Title
82260
    1SAPS     N    1   2.396   4.559  11.072  0.5446  0.0259 -0.0275
    1SAPS   HN1    2   2.460   4.490  11.029 -0.4310 -0.1173 -1.2814
    1SAPS   HN2    3   2.340   4.520  11.151  0.3473  0.2590 -0.0516
    1SAPS   HN3    4   2.329   4.596  11.002 -0.3653  0.9045  1.2944
    1SAPS   C12    5   2.487   4.678  11.106  0.7443 -0.2703  0.3180
    1SAPS  H12A    6   2.503   4.741  11.020 -1.4259 -1.0768 -0.7072
    1SAPS   C13    7   2.427   4.775  11.217 -0.7161  0.7350 -0.4974
    1SAPS  O13A    8   2.307   4.765  11.255  0.5383  0.1927  0.0303
    1SAPS  O13B    9   2.501   4.872  11.249 -0.0297  0.1590 -0.3378
    1SAPS   C11   10   2.635   4.622  11.143  0.7057  0.6731  0.2628
    1SAPS  H11A   11   2.629   4.555  11.231  1.0985  0.9129  0.4753
    1SAPS  H11B   12   2.697   4.707  11.177 -0.3341  1.3298  0.5320
    1SAPS     P   13   2.837   4.547  10.996  0.8234  0.0995 -0.3969
    1SAPS   O13   14   2.900   4.592  11.121 -0.2224 -0.0310 -0.2149
    1SAPS   O14   15   2.880   4.422  10.932  0.3213  0.4587 -0.2835
    1SAPS   O12   16   2.686   4.545  11.035 -0.3144 -0.0301 -0.5907
    1SAPS   O11   17   2.844   4.668  10.888  0.7494 -0.0325  0.0859
    1SAPS    C1   18   2.727   4.713  10.810 -0.2936  0.3724  0.0150
    1SAPS    HA   19   2.632   4.669  10.846 -0.0504 -0.1103  0.0833
    1SAPS    HB   20   2.709   4.818  10.840  1.9785  0.1947  2.1669
    1SAPS    C2   21   2.745   4.691  10.660 -0.1220  0.5925  0.0484
    1SAPS    HS   22   2.647   4.715  10.615  0.0373 -1.6787 -1.6160
    1SAPS   O21   23   2.780   4.548  10.622 -0.3329 -0.4203 -0.1273
    1SAPS   C21   24   2.685   4.458  10.635  0.1155 -0.1091  0.4856
    1SAPS   O22   25   2.576   4.471  10.686 -0.6341  0.0775 -0.0117
    1SAPS   C22   26   2.743   4.335  10.570 -0.5571 -0.2002  0.0027
    1SAPS   H2R   27   2.845   4.350  10.529  0.0337 -0.8292  1.2221
    1SAPS   H2S   28   2.744   4.249  10.641  0.4060  1.7991  2.5020
    1SAPS    C3   29   2.856   4.781  10.605 -0.0975  0.4983  0.4505
    1SAPS    HX   30   2.956   4.758  10.646  0.1616 -0.5343 -0.7550
    1SAPS    HY   31   2.835   4.887  10.632  0.0500  0.3902  0.9856
    1SAPS   O31   32   2.863   4.782  10.459  0.7715 -0.0220 -0.6508
    1SAPS   C31   33   2.935   4.689  10.400 -0.3010  0.2789  0.9061
    1SAPS   O32   34   2.995   4.599  10.459  0.3280 -0.5715  0.2928
    1SAPS   C32   35   2.943   4.712  10.249 -0.5840  0.2544  0.2932
    1SAPS   H2X   36   3.019   4.791  10.227  0.0967 -0.3918  0.3305
    1SAPS   H2Y   37   2.848   4.764  10.224  0.2796  1.1524 -1.2342
    1SAPS   C23   38   2.651   4.299  10.454  0.0401 -0.5444  0.3243
    1SAPS   H3R   39   2.550   4.274  10.494 -1.8315  3.5579 -1.4791
    1SAPS   H3S   40   2.689   4.207  10.405  0.6331 -0.7159  1.1093
    1SAPS   C24   41   2.633   4.400  10.334  0.7092  0.3810 -0.0051
    1SAPS   H4R   42   2.735   4.421  10.297  0.9890 -1.0087 -0.0403
    1SAPS   H4S   43   2.592   4.488  10.388 -0.8229 -0.9906  1.1459
    1SAPS   C25   44   2.535   4.361  10.227  0.8759  1.2491 -0.6162
    1SAPS   H5R   45   2.431   4.383  10.258  0.4333 -1.2579 -0.2243
    1SAPS   C26   46   2.563   4.331  10.096 -0.1726 -0.3743 -0.1457
    1SAPS   H6R   47   2.474   4.324  10.031  0.0292  2.6596 -0.8576
    1SAPS   C27   48   2.695   4.332  10.028 -0.5222 -0.0617 -0.3271
    1SAPS   H7R   49   2.685   4.242   9.964 -0.0364  0.8048 -1.6337
    1SAPS   H7S   50   2.773   4.302  10.102 -1.1345  0.4481  0.5251
    1SAPS   C28   51   2.727   4.462   9.952  0.2338  0.2805 -0.1404
    1SAPS   H8R   52   2.715   4.552  10.013 -1.8301  0.6603 -1.0283
    1SAPS   C29   53   2.768   4.481   9.826 -1.1195 -0.1773 -0.2635
    1SAPS   H9R   54   2.788   4.584   9.794  0.8628 -0.3987  0.1990
    1SAPS  C210   55   2.796   4.376   9.726  0.1382  0.1348  0.5970
    1SAPS  H10R   56   2.708   4.370   9.659 -1.8182  0.2178  3.0914
    1SAPS  H10S   57   2.798   4.276   9.776 -0.6787 -0.5089 -0.6521
    1SAPS  C211   58   2.924   4.408   9.651  0.4595  0.6203 -0.8791
    1SAPS  H11R   59   3.017   4.370   9.698 -0.0044  0.1779 -0.3154
    1SAPS  C212   60   2.930   4.471   9.533 -0.3363  1.1634  0.2257
    1SAPS  H12R   61   3.024   4.468   9.476 -1.1874  0.4194 -1.1617
    1SAPS  C213   62   2.821   4.528   9.444  0.2629  0.2330 -0.5528
    1SAPS  H13R   63   2.881   4.595   9.378  0.3612  1.1769  0.4867
    1SAPS  H13S   64   2.742   4.583   9.499 -0.7879 -0.8722 -0.9225
    1SAPS  C214   65   2.756   4.416   9.358  0.0660  0.2649 -0.2319
    1SAPS  H14R   66   2.651   4.401   9.389  0.5289 -0.3844  1.0471
    1SAPS  C215   67   2.812   4.328   9.266 -0.4506  0.2759 -0.5912
    1SAPS  H15R   68   2.753   4.249   9.216  0.5715 -0.3105 -0.8759
    1SAPS  C216   69   2.956   4.338   9.220 -0.0923  0.2279 -0.2724
    1SAPS  H16R   70   3.015   4.262   9.275  0.2632 -0.5957 -1.7429
    1SAPS  H16S   71   3.010   4.435   9.233  1.0343 -0.2728 -1.0438
    1SAPS  C217   72   2.971   4.285   9.079 -0.5045 -0.4172  0.5003
    1SAPS  H17R   73   2.955   4.175   9.074  1.7619 -0.7605  0.4410
    1SAPS  H17S   74   3.074   4.305   9.041 -0.2626 -1.7888  0.4204
    1SAPS  C218   75   2.894   4.356   8.966  0.5982 -0.1466 -0.1326
    1SAPS  H18R   76   2.911   4.465   8.960  1.5615 -0.2669  0.3182
    1SAPS  H18S   77   2.786   4.345   8.989  0.8419  0.4278  1.3809
    1SAPS  C219   78   2.910   4.288   8.833 -0.3763 -0.0634  0.5570
    1SAPS  H19R   79   2.885   4.180   8.841 -0.9270 -0.1883 -2.3468
    1SAPS  H19S   80   3.019   4.291   8.815 -0.5327 -1.5214 -0.7613
    1SAPS  C220   81   2.825   4.357   8.723 -0.7399 -0.4098 -0.0121
    1SAPS  H20R   82   2.889   4.420   8.658 -1.9469 -0.9520 -1.7579
    1SAPS  H20S   83   2.751   4.424   8.770  1.1308  2.6039 -1.2606
    1SAPS  H20T   84   2.782   4.285   8.650 -0.0546  2.6571 -3.5830
    1SAPS   C33   85   2.992   4.593  10.173  1.2599 -0.2341  0.1916
    1SAPS   H3X   86   2.903   4.527  10.172 -0.1159  1.5801 -0.6637
    1SAPS   H3Y   87   3.075   4.533  10.217  0.3526 -2.2657 -0.8107
    1SAPS   C34   88   3.026   4.627  10.029 -0.4091 -0.4316  0.2038
    1SAPS   H4X   89   2.937   4.661   9.972  0.2334  0.9343 -0.0283
    1SAPS   H4Y   90   3.054   4.529   9.986  2.5359 -0.3424  1.7682
    1SAPS   C35   91   3.150   4.719  10.026 -0.1409  0.5474  0.0672
    1SAPS   H5X   92   3.233   4.673  10.083  1.0330 -0.2061 -2.1879
    1SAPS   H5Y   93   3.121   4.820  10.064 -1.2483  0.1281  0.3620
    1SAPS   C36   94   3.196   4.732   9.878 -0.1980  0.1392  0.2613
    1SAPS   H6X   95   3.268   4.816   9.887 -0.3469  0.1816  1.0603
    1SAPS   H6Y   96   3.107   4.747   9.813 -0.5279 -1.9608  0.1754
    1SAPS   C37   97   3.261   4.607   9.813  0.3777  0.3701 -0.8111
    1SAPS   H7X   98   3.193   4.520   9.816  1.0300 -0.1621 -1.2761
    1SAPS   H7Y   99   3.351   4.584   9.875 -0.1304 -0.7631 -0.4891
    1SAPS   C38  100   3.303   4.617   9.664 -0.8547 -0.5691  0.2206
    1SAPS   H8X  101   3.219   4.652   9.601  0.6201 -1.4500 -2.3204
    1SAPS   H8Y  102   3.331   4.511   9.646 -0.1013 -0.9311  3.2713
    1SAPS   C39  103   3.415   4.721   9.641  0.6695 -0.5499  0.2289
    1SAPS   H9X  104   3.513   4.699   9.688  0.4068 -0.8344  0.6564
    1SAPS   H9Y  105   3.379   4.804   9.706  3.8533  0.2385  1.0508
    1SAPS  C310  106   3.430   4.764   9.493  0.0615  0.9346 -0.3079
    1SAPS  H10X  107   3.491   4.856   9.502  2.5943 -0.6897 -0.4067
    1SAPS  H10Y  108   3.334   4.804   9.454 -0.1563 -0.7022 -1.4867
    1SAPS  C311  109   3.508   4.671   9.401  0.3233 -0.4003 -0.1249
    1SAPS  H11X  110   3.442   4.581   9.400 -0.3447  0.0578  1.5173
    1SAPS  H11Y  111   3.610   4.632   9.424 -1.3383 -3.2752  2.7218
    1SAPS  C312  112   3.523   4.712   9.259 -0.2278  0.0657 -0.0013
    1SAPS  H12X  113   3.560   4.631   9.193 -1.9405 -0.2174 -0.6364
    1SAPS  H12Y  114   3.606   4.786   9.260  0.1059 -0.2998  1.6461
    1SAPS  C313  115   3.399   4.757   9.176  0.1526 -0.1346  0.1139
    1SAPS  H13X  116   3.432   4.798   9.078  1.5063 -2.3660 -0.4228
    1SAPS  H13Y  117   3.368   4.846   9.233 -0.5985  1.4463 -2.6371
    1SAPS  C314  118   3.292   4.649   9.162  0.3748 -0.3220  0.6660
    1SAPS  H14X  119   3.263   4.624   9.267  0.3186  0.7605  0.9150
    1SAPS  H14Y  120   3.339   4.563   9.112  0.2357  0.0295 -0.0743
    1SAPS  C315  121   3.167   4.698   9.101 -0.5248  0.2809  0.5710
    1SAPS  H15X  122   3.130   4.780   9.167 -0.7732  0.7993 -0.2051
    1SAPS  H15Y  123   3.082   4.628   9.119  1.5476 -1.8391  2.3956
    1SAPS  C316  124   3.179   4.737   8.951 -0.2643  0.3961  0.1190
    1SAPS  H16X  125   3.236   4.656   8.901 -2.0061 -1.4706  1.0998
    1SAPS  H16Y  126   3.234   4.833   8.940  0.8566 -0.3195 -0.7468
    1SAPS  C317  127   3.048   4.749   8.874  0.1168  0.9058 -0.3661
    1SAPS  H17X  128   2.966   4.795   8.933  0.6022 -0.5913  1.5297
    1SAPS  H17Y  129   3.018   4.642   8.866 -0.5293  0.9987  0.7400
    1SAPS  C318  130   3.057   4.813   8.740  0.9308  0.3590 -0.3468
    1SAPS  H18X  131   3.095   4.914   8.765  3.5416 -0.1823 -1.8936
    1SAPS  H18Y  132   2.963   4.825   8.683  1.0761 -0.6693 -0.8208
    1SAPS  H18Z  133   3.131   4.771   8.668 -1.8812 -0.8930 -2.6004
    2SAPS     N  134   0.653   4.465  11.107 -0.6206 -0.0665 -1.1399
    2SAPS   HN1  135   0.697   4.537  11.047 -0.4886  0.9623  0.1514
    2SAPS   HN2  136   0.678   4.496  11.203  0.4465 -1.3021 -1.0024
    2SAPS   HN3  137   0.711   4.380  11.093  0.2804  0.4624 -0.7010
    2SAPS   C12  138   0.512   4.433  11.084 -0.6069 -0.3884  0.5142
    2SAPS  H12A  139   0.510   4.339  11.031  0.3470  0.2626 -0.6886
    2SAPS   C13  140   0.436   4.428  11.216  0.4449  0.6635 -0.0021
    2SAPS  O13A  141   0.497   4.432  11.322 -1.1608  0.0334  0.3647
    2SAPS  O13B  142   0.320   4.383  11.216 -0.1894 -0.1492  0.1407
    2SAPS   C11  143   0.428   4.540  11.006 -0.7416  0.6350  0.2996
    2SAPS  H11A  144   0.413   4.633  11.065  1.4675  0.2705  1.4645
    2SAPS  H11B  145   0.329   4.494  10.984 -0.3836  0.5250 -1.1238
    2SAPS     P  146   0.409   4.644  10.775 -0.3465 -0.0779  0.6460
    2SAPS   O13  147   0.288   4.569  10.748 -0.7581 -0.7507 -0.0421
    2SAPS   O14  148   0.402   4.789  10.798  0.0344  0.1134 -0.2705
    2SAPS   O12  149   0.497   4.579  10.887  0.1332  1.2564 -0.2698
    2SAPS   O11  150   0.506   4.624  10.651  0.1321 -0.0576 -0.3534
    2SAPS    C1  151   0.647   4.666  10.664 -0.0149  0.2506  0.7239
    2SAPS    HA  152   0.660   4.746  10.589  0.6024 -1.6675 -1.2643
    2SAPS    HB  153   0.673   4.708  10.763 -0.9075  1.0553  0.6233
    2SAPS    C2  154   0.748   4.563  10.618 -0.5436 -0.4503 -0.1221
    2SAPS    HS  155   0.848   4.609  10.632 -2.0940  3.0037  0.2981
    2SAPS   O21  156   0.715   4.540  10.476 -0.3967 -0.3854 -0.2397
    2SAPS   C21  157   0.817   4.527  10.385  0.1788 -0.1737 -0.6973
    2SAPS   O22  158   0.939   4.535  10.408 -0.2448  0.5191 -0.5692
    2SAPS   C22  159   0.768   4.517  10.249  0.2961  0.0884 -0.3536
    2SAPS   H2R  160   0.697   4.598  10.226  0.2524 -0.1192 -0.9633
    2SAPS   H2S  161   0.858   4.535  10.186  1.2355 -3.1165 -0.0212
    2SAPS    C3  162   0.738   4.428  10.700 -0.4101  0.0541 -0.2456
    2SAPS    HX  163   0.630   4.401  10.705 -0.7006  0.6947 -2.3530
    2SAPS    HY  164   0.769   4.454  10.803 -2.1238  0.4810  0.1820
    2SAPS   O31  165   0.835   4.332  10.658 -0.0216 -0.9468 -0.3488
    2SAPS   C31  166   0.805   4.236  10.571  0.3839  0.6107  0.2550
    2SAPS   O32  167   0.696   4.212  10.532  0.2963 -0.0387 -0.2780
    2SAPS   C32  168   0.933   4.165  10.516  0.8040 -0.5641 -0.0442
    2SAPS   H2X  169   1.007   4.140  10.595  1.4106  1.3287  0.0379
    2SAPS   H2Y  170   0.984   4.254  10.471  1.2268 -1.0964 -0.6225
    2SAPS   C23  171   0.718   4.376  10.214  0.2040 -0.9490 -0.1681
    2SAPS   H3R  172   0.624   4.352  10.270 -1.1236  1.8226 -1.0798
    2SAPS   H3S  173   0.791   4.297  10.239  0.7690 -0.2935  0.2848
    2SAPS   C24  174   0.687   4.356  10.071  0.3453 -0.1162 -0.5749
    2SAPS   H4R  175   0.667   4.249  10.051 -0.6044  0.1541 -1.1339
    2SAPS   H4S  176   0.781   4.374  10.013  1.4386  1.1145  1.5314
    2SAPS   C25  177   0.586   4.451  10.015  0.3421 -0.2159 -0.3726
    2SAPS   H5R  178   0.498   4.466  10.080  2.0355  2.8548  1.2998
    2SAPS   C26  179   0.597   4.521   9.898 -0.2739  0.1282  0.1365
    2SAPS   H6R  180   0.517   4.588   9.863 -0.3601 -1.5024 -2.9078
    2SAPS   C27  181   0.713   4.525   9.803  0.0462  0.4041  0.3291
    2SAPS   H7R  182   0.804   4.553   9.860  0.3906 -1.3980  0.6945
    2SAPS   H7S  183   0.702   4.612   9.735  4.1841  0.4994 -0.3605
    2SAPS   C28  184   0.744   4.398   9.721  0.8381  0.1684 -1.8336
    2SAPS   H8R  185   0.751   4.301   9.773 -2.1140  1.8106  1.8416
    2SAPS   C29  186   0.751   4.389   9.585  0.2581 -0.3418  0.4494
    2SAPS   H9R  187   0.754   4.291   9.536  2.2946 -0.8775  1.6303
    2SAPS  C210  188   0.754   4.501   9.480  0.0169 -0.8127 -0.0561
    2SAPS  H10R  189   0.788   4.452   9.387 -0.2539  0.7042 -0.9721
    2SAPS  H10S  190   0.822   4.576   9.526 -1.2961  0.2949  0.1331
    2SAPS  C211  191   0.627   4.565   9.444  0.3636 -0.1361  0.4424
    2SAPS  H11R  192   0.545   4.502   9.483  1.6069 -2.6950 -0.9363
    2SAPS  C212  193   0.592   4.660   9.351  0.0653  0.6351  0.3217
    2SAPS  H12R  194   0.485   4.686   9.348  0.0883  0.8571  1.2967
    2SAPS  C213  195   0.699   4.724   9.261 -0.4693 -0.8372  0.0705
    2SAPS  H13R  196   0.772   4.652   9.218  0.5650  1.9398 -3.0807
    2SAPS  H13S  197   0.760   4.786   9.330 -2.5256 -2.3899  3.4202
    2SAPS  C214  198   0.640   4.818   9.164  0.3458  0.3244 -0.2500
    2SAPS  H14R  199   0.533   4.805   9.143  0.3886 -0.5607  0.0256
    2SAPS  C215  200   0.709   4.921   9.110 -0.1418  0.0005 -0.4738
    2SAPS  H15R  201   0.657   4.986   9.038  0.9983 -1.4674 -2.6929
    2SAPS  C216  202   0.850   4.965   9.138  0.5612  0.0493  0.1643
    2SAPS  H16R  203   0.911   4.907   9.211 -0.8153  0.0831  1.3533
    2SAPS  H16S  204   0.859   5.067   9.181  1.3366 -0.5266  1.3944
    2SAPS  C217  205   0.939   4.973   9.013 -0.1910 -0.0873 -0.8116
    2SAPS  H17R  206   0.886   5.020   8.928 -0.2214  0.0908 -0.6955
    2SAPS  H17S  207   0.966   4.868   8.988 -2.8938 -0.9875 -0.1175
    2SAPS  C218  208   1.070   5.046   9.043 -0.6288  0.9975  0.0408
    2SAPS  H18R  209   1.122   4.975   9.110 -0.9848  0.5922 -0.1138
    2SAPS  H18S  210   1.061   5.142   9.099  0.4055  1.0247  0.1759
    2SAPS  C219  211   1.136   5.091   8.916  0.5401  0.4953  0.0635
    2SAPS  H19R  212   1.232   5.144   8.935  0.6491  0.3842 -0.1706
    2SAPS  H19S  213   1.084   5.163   8.849 -1.2190 -1.0206 -0.2266
    2SAPS  C220  214   1.163   4.968   8.827  0.3277 -0.8312  0.0430
    2SAPS  H20R  215   1.235   4.898   8.874 -1.2087 -1.5755  1.3363
    2SAPS  H20S  216   1.217   5.004   8.737 -1.4915  1.6508 -0.0922
    2SAPS  H20T  217   1.067   4.931   8.786 -0.1505  1.0115 -0.5656
    2SAPS   C33  218   0.921   4.057  10.407 -0.2222  0.3039 -0.5519
    2SAPS   H3X  219   0.816   4.038  10.376  0.4425 -0.6440 -2.3174
    2SAPS   H3Y  220   0.964   3.972  10.463  0.2454  0.7529 -0.2218
    2SAPS   C34  221   0.997   4.091  10.278 -0.1811 -0.0280 -0.1952
    2SAPS   H4X  222   1.108   4.091  10.289  0.3058 -1.2737 -4.2220
    2SAPS   H4Y  223   0.974   4.196  10.248  1.0735  0.5348  0.7717
    2SAPS   C35  224   0.971   4.000  10.155 -0.3139 -0.4968 -0.4361
    2SAPS   H5X  225   1.028   3.906  10.171  1.0519  0.7543  2.4015
    2SAPS   H5Y  226   1.015   4.051  10.067  0.8358 -0.0822  0.3661
    2SAPS   C36  227   0.826   3.967  10.116 -0.4350  0.1230  0.0429
    2SAPS   H6X  228   0.775   4.060  10.148  0.9583  0.0290  2.6634
    2SAPS   H6Y  229   0.795   3.893  10.193 -1.6451  2.9735  2.4050
    2SAPS   C37  230   0.797   3.922   9.968  0.5428  0.1281 -0.8258
    2SAPS   H7X  231   0.686   3.913   9.962  0.5989 -1.4073 -0.0530
    2SAPS   H7Y  232   0.848   3.827   9.942 -1.4988 -1.1944 -0.1222
    2SAPS   C38  233   0.850   4.017   9.860 -0.1442  0.1447 -0.4996
    2SAPS   H8X  234   0.961   4.022   9.863 -0.1364  0.9137 -2.0280
    2SAPS   H8Y  235   0.809   4.119   9.874 -0.8611 -0.3102  0.8813
    2SAPS   C39  236   0.824   3.963   9.722  0.3281 -0.3612  0.4766
    2SAPS   H9X  237   0.716   3.978   9.701 -0.2506 -2.4647  1.7702
    2SAPS   H9Y  238   0.831   3.852   9.726  1.0708 -0.2270  4.8677
    2SAPS  C310  239   0.902   4.023   9.602 -0.2689  0.3321  0.1442
    2SAPS  H10X  240   1.008   3.989   9.612  0.0072  1.4112  0.9491
    2SAPS  H10Y  241   0.904   4.134   9.603  1.4378  0.3122  1.0040
    2SAPS  C311  242   0.833   3.988   9.467  1.1355  0.5693  0.3746
    2SAPS  H11X  243   0.736   4.044   9.468  0.1557 -1.1140  0.8582
    2SAPS  H11Y  244   0.821   3.878   9.464  0.3109  0.5483  2.8741
    2SAPS  C312  245   0.912   4.034   9.343 -0.3270 -0.0096  0.7219
    2SAPS  H12X  246   1.015   3.997   9.364 -0.5947 -0.4777  1.2193
    2SAPS  H12Y  247   0.923   4.144   9.349  0.5424  0.0782 -1.9931
    2SAPS  C313  248   0.858   4.003   9.205 -0.2344  0.2315 -0.3399
    2SAPS  H13X  249   0.766   4.064   9.189  0.2172  0.6078 -1.5548
    2SAPS  H13Y  250   0.829   3.896   9.195  0.6187 -0.0529  0.2689
    2SAPS  C314  251   0.963   4.039   9.099 -0.7227 -0.0138 -0.6196
    2SAPS  H14X  252   1.033   3.952   9.101 -1.9549 -1.0001  1.0999
    2SAPS  H14Y  253   1.017   4.125   9.143 -0.7902 -1.3127  2.1083
    2SAPS  C315  254   0.910   4.058   8.955  0.4595  0.1943 -0.2113
    2SAPS  H15X  255   0.847   3.972   8.922  0.4426  1.7038 -4.4722
    2SAPS  H15Y  256   0.998   4.067   8.887  0.0363  0.2889 -0.7535
    2SAPS  C316  257   0.829   4.189   8.935 -0.8017  0.4924 -0.7868
    2SAPS  H16X  258   0.738   4.179   8.996  0.5731  0.7694  1.3665
    2SAPS  H16Y  259   0.801   4.190   8.827  1.9083  0.9636 -1.5516
    2SAPS  C317  260   0.899   4.322   8.974 -0.4103  0.0169 -0.3311
    2SAPS  H17X  261   0.995   4.326   8.917 -0.6830 -1.0372 -0.8696
    2SAPS  H17Y  262   0.923   4.314   9.083 -1.0956  1.9609 -0.0212
    2SAPS  C318  263   0.809   4.443   8.959  0.3769 -0.5348  0.5450
    2SAPS  H18X  264   0.705   4.421   8.991 -0.1149  0.7565 -0.1312
    2SAPS  H18Y  265   0.800   4.456   8.849 -0.7805  2.2090  0.9031
    2SAPS  H18Z  266   0.845   4.535   9.010 -0.1491  0.1554 -0.3029
    3SAPS     N  267   0.999   6.285  11.237 -0.1274 -0.6469 -0.0034
    3SAPS   HN1  268   1.004   6.182  11.226  0.7250 -0.4132 -1.9225
    3SAPS   HN2  269   1.085   6.325  11.194 -1.4609  0.3563 -1.7989
    3SAPS   HN3  270   1.002   6.314  11.337  0.2976  1.4450 -0.5900
    3SAPS   C12  271   0.871   6.339  11.174  0.2330 -0.7670  0.3558
    3SAPS  H12A  272   0.785   6.302  11.227  0.4487 -0.1771  1.1392
    3SAPS   C13  273   0.867   6.488  11.197 -1.2213 -0.3064  0.1623
    3SAPS  O13A  274   0.963   6.562  11.244 -0.1191  0.8025 -0.5763
    3SAPS  O13B  275   0.764   6.546  11.153  0.2304 -0.2108  0.1489
    3SAPS   C11  276   0.883   6.316  11.024  0.4865 -0.8245  0.4416
    3SAPS  H11A  277   0.950   6.382  10.965 -2.3801  1.8129 -0.0020
    3SAPS  H11B  278   0.785   6.343  10.978  1.5678  1.7875 -0.4547
    3SAPS     P  279   0.986   6.136  10.865  0.3507 -0.6186  0.7229
    3SAPS   O13  280   1.116   6.201  10.878  0.0272  0.0181  0.2600
    3SAPS   O14  281   0.987   5.994  10.846 -0.2494 -0.2867 -0.2480
    3SAPS   O12  282   0.908   6.177  10.992 -0.3083  0.2373 -0.3333
    3SAPS   O11  283   0.907   6.206  10.752 -0.4183  0.3771 -0.5850
    3SAPS    C1  284   0.943   6.166  10.620  0.1903  0.2334 -0.1073
    3SAPS    HA  285   0.974   6.254  10.559 -1.1176 -0.4754 -1.8576
    3SAPS    HB  286   1.039   6.113  10.605 -0.4988 -0.6121 -1.6370
    3SAPS    C2  287   0.829   6.101  10.535 -0.1150  0.7551 -0.4848
    3SAPS    HS  288   0.876   6.075  10.438 -0.6760 -0.9885 -0.3074
    3SAPS   O21  289   0.714   6.191  10.535  0.2292 -0.6710  0.3964
    3SAPS   C21  290   0.714   6.297  10.454  0.6781  0.2248 -0.3968
    3SAPS   O22  291   0.813   6.337  10.389 -0.5595  0.1539  0.5414
    3SAPS   C22  292   0.567   6.352  10.441  0.5031 -0.6963  0.1311
    3SAPS   H2R  293   0.495   6.283  10.490  0.0776 -1.5467 -1.6685
    3SAPS   H2S  294   0.556   6.450  10.492 -0.8891 -1.3414  1.1108
    3SAPS    C3  295   0.794   5.970  10.604 -1.2101  0.0563 -0.0382
    3SAPS    HX  296   0.755   5.986  10.707  1.5701 -3.7257  1.7380
    3SAPS    HY  297   0.889   5.916  10.626 -0.1722  0.7927 -2.5637
    3SAPS   O31  298   0.706   5.869  10.542 -0.0409 -0.2047 -0.3244
    3SAPS   C31  299   0.763   5.817  10.431  0.1124  0.6048 -0.0985
    3SAPS   O32  300   0.878   5.839  10.402  0.1656  0.1302 -0.2013
    3SAPS   C32  301   0.651   5.742  10.350 -0.1370 -0.5918 -0.5261
    3SAPS   H2X  302   0.605   5.668  10.418 -1.1667  0.0111 -0.5487
    3SAPS   H2Y  303   0.697   5.680  10.270  0.1837  2.3264 -2.7113
    3SAPS   C23  304   0.521   6.358  10.290  0.2847 -0.6006  0.3439
    3SAPS   H3R  305   0.532   6.253  10.255 -0.0362 -0.6970  0.5313
    3SAPS   H3S  306   0.597   6.421  10.238 -1.5760  0.8245 -0.6880
    3SAPS   C24  307   0.384   6.406  10.259  0.9219 -0.4503  0.0131
    3SAPS   H4R  308   0.313   6.333  10.303 -0.9935  0.0719 -2.0864
    3SAPS   H4S  309   0.366   6.402  10.149 -1.4541  0.7932  0.3328
    3SAPS   C25  310   0.370   6.540  10.317  0.5409  0.6216 -0.5776
    3SAPS   H5R  311   0.338   6.538  10.422  3.0879  2.6757  0.2939
    3SAPS   C26  312   0.383   6.656  10.250  0.4382  0.3074 -0.5387
    3SAPS   H6R  313   0.381   6.750  10.306  1.0407  1.2124 -2.0144
    3SAPS   C27  314   0.424   6.664  10.106  0.8994  0.3372 -0.7897
    3SAPS   H7R  315   0.487   6.577  10.077 -1.1201 -1.4203  0.0382
    3SAPS   H7S  316   0.478   6.760  10.091  0.0568  0.8500 -0.5420
    3SAPS   C28  317   0.299   6.649  10.023  0.0157 -0.1462 -0.8273
    3SAPS   H8R  318   0.252   6.549  10.024 -1.1307  0.3617  1.9409
    3SAPS   C29  319   0.248   6.746   9.953  0.2328  0.7678 -0.6402
    3SAPS   H9R  320   0.160   6.722   9.891  0.7641 -3.4199  0.0888
    3SAPS  C210  321   0.304   6.883   9.945 -0.6018  0.4241 -0.5513
    3SAPS  H10R  322   0.411   6.878   9.917 -0.1204  2.7733  0.6916
    3SAPS  H10S  323   0.286   6.949  10.034  2.0478 -0.8307  0.9453
    3SAPS  C211  324   0.229   6.958   9.831  0.0817  0.1337  0.3059
    3SAPS  H11R  325   0.129   6.991   9.860 -1.0055 -2.6559 -0.0854
    3SAPS  C212  326   0.276   7.007   9.709 -0.2494  0.0316  0.0103
    3SAPS  H12R  327   0.203   7.044   9.636 -0.1272 -0.8147 -0.5518
    3SAPS  C213  328   0.414   7.008   9.654 -0.9432 -0.1402 -0.0167
    3SAPS  H13R  329   0.432   6.902   9.625  0.1340 -0.3382  1.3065
    3SAPS  H13S  330   0.484   7.025   9.739  0.5920  0.7168 -1.4119
    3SAPS  C214  331   0.437   7.103   9.536 -0.1475 -0.3012  0.1694
    3SAPS  H14R  332   0.454   7.204   9.575 -0.4965  0.1231 -0.7704
    3SAPS  C215  333   0.480   7.069   9.413  0.2871  0.1421  1.0718
    3SAPS  H15R  334   0.482   7.145   9.333  1.1182 -0.7289  0.2434
    3SAPS  C216  335   0.510   6.932   9.360 -0.1157 -0.5623  0.6921
    3SAPS  H16R  336   0.495   6.858   9.442 -0.3926 -2.7372 -1.2688
    3SAPS  H16S  337   0.616   6.923   9.328 -0.5750  0.0937 -1.0941
    3SAPS  C217  338   0.420   6.905   9.230 -0.2208  0.7396 -0.2086
    3SAPS  H17R  339   0.318   6.948   9.246 -2.2167 -2.6602 -2.9185
    3SAPS  H17S  340   0.403   6.795   9.238 -2.1794  0.8718 -1.9357
    3SAPS  C218  341   0.472   6.967   9.103 -0.0215 -0.2383 -0.4997
    3SAPS  H18R  342   0.575   6.939   9.072 -0.7404  1.3183 -4.6310
    3SAPS  H18S  343   0.490   7.075   9.125  0.7915 -0.6012  0.6568
    3SAPS  C219  344   0.376   6.941   8.984  0.8565  1.0570  0.6007
    3SAPS  H19R  345   0.366   6.831   8.983  2.7783  0.8618  1.2702
    3SAPS  H19S  346   0.416   6.979   8.887 -2.4596  2.8670 -0.1368
    3SAPS  C220  347   0.239   7.014   8.985  0.5629  0.2462  0.0570
    3SAPS  H20R  348   0.261   7.117   8.952  1.2749  0.0454 -0.0923
    3SAPS  H20S  349   0.205   7.011   9.091  0.0989 -1.9925 -0.1151
    3SAPS  H20T  350   0.161   6.973   8.917  0.0006 -1.7631  1.8543
    3SAPS   C33  351   0.532   5.826  10.291  0.1114 -0.4512  0.3198
    3SAPS   H3X  352   0.516   5.928  10.333  1.1882 -0.4680  0.8041
    3SAPS   H3Y  353   0.441   5.765  10.306 -1.8396  2.7783  2.1911
    3SAPS   C34  354   0.543   5.843  10.134  0.2347  0.3468 -0.3039
    3SAPS   H4X  355   0.449   5.888  10.095 -0.9065  1.7842  3.8473
    3SAPS   H4Y  356   0.562   5.746  10.084  1.7540  0.4181  0.1345
    3SAPS   C35  357   0.650   5.937  10.093  0.0066  0.2163  0.2222
    3SAPS   H5X  358   0.747   5.927  10.147  0.6191 -2.0803 -1.2052
    3SAPS   H5Y  359   0.619   6.038  10.126  0.6576 -0.1514  1.9947
    3SAPS   C36  360   0.673   5.950   9.938 -0.6739  0.2625 -0.4522
    3SAPS   H6X  361   0.581   5.995   9.895 -0.7556 -3.1660 -4.1814
    3SAPS   H6Y  362   0.690   5.856   9.881 -0.8087 -0.0033 -0.0515
    3SAPS   C37  363   0.786   6.055   9.906  0.5809  0.2397 -1.0295
    3SAPS   H7X  364   0.890   6.017   9.914  0.3788  0.1591  1.6588
    3SAPS   H7Y  365   0.772   6.146   9.970 -1.2185  0.0857 -1.1734
    3SAPS   C38  366   0.764   6.125   9.776 -0.2925  0.4953  0.0402
    3SAPS   H8X  367   0.832   6.212   9.775  0.5092 -0.1238  0.3088
    3SAPS   H8Y  368   0.660   6.164   9.771 -1.1694 -1.5303  1.6678
    3SAPS   C39  369   0.782   6.030   9.651  0.2717  0.1784 -0.0195
    3SAPS   H9X  370   0.705   5.950   9.644  0.1151  0.4352 -1.3523
    3SAPS   H9Y  371   0.871   5.970   9.681  1.2513  1.5258 -0.2140
    3SAPS  C310  372   0.794   6.113   9.523 -0.1467  0.1996  0.4703
    3SAPS  H10X  373   0.862   6.198   9.545  0.2410  0.7793 -2.6341
    3SAPS  H10Y  374   0.703   6.173   9.502  1.4577  3.5508  2.7623
    3SAPS  C311  375   0.840   6.025   9.405 -0.3005 -0.0599 -0.7118
    3SAPS  H11X  376   0.799   5.922   9.410  0.3502 -0.3348 -1.0280
    3SAPS  H11Y  377   0.949   6.002   9.412 -0.9521 -3.8768 -2.0255
    3SAPS  C312  378   0.801   6.087   9.275 -0.4935  0.5567  0.7741
    3SAPS  H12X  379   0.845   6.189   9.270  0.1777  0.1879 -1.5161
    3SAPS  H12Y  380   0.691   6.092   9.266 -0.4657 -1.4246 -1.0740
    3SAPS  C313  381   0.854   6.009   9.155  0.3452  0.5467  0.2773
    3SAPS  H13X  382   0.776   5.939   9.119  1.3900 -0.0795 -0.8277
    3SAPS  H13Y  383   0.949   5.959   9.184  0.3517  0.1875 -0.3472
    3SAPS  C314  384   0.887   6.089   9.032  0.1948 -0.6518 -0.2234
    3SAPS  H14X  385   0.986   6.137   9.034  0.1660 -0.6419  1.3149
    3SAPS  H14Y  386   0.813   6.172   9.028  0.3442 -0.5191 -0.1983
    3SAPS  C315  387   0.896   6.004   8.906  0.4844  0.9063  0.4705
    3SAPS  H15X  388   0.796   5.964   8.880  0.7888 -1.1459  2.2847
    3SAPS  H15Y  389   0.954   5.914   8.936 -0.9450 -0.1004  0.2606
    3SAPS  C316  390   0.967   6.077   8.793  0.6360 -0.0822 -0.4813
    3SAPS  H16X  391   0.995   6.001   8.716  0.9041 -0.9968  0.5097
    3SAPS  H16Y  392   1.064   6.121   8.825  0.3073  0.2660  0.0348
    3SAPS  C317  393   0.891   6.187   8.721  0.3824 -0.4096  0.9215
    3SAPS  H17X  394   0.869   6.271   8.789  3.1595 -0.5258  2.0129
    3SAPS  H17Y  395   0.789   6.150   8.696  1.2211 -2.4756  0.4095
    3SAPS  C318  396   0.976   6.258   8.605 -0.7174 -0.1642 -0.0502
    3SAPS  H18X  397   1.017   6.174   8.546 -1.3893 -0.3833 -0.2084
    3SAPS  H18Y  398   1.061   6.316   8.648 -1.1280  0.6511 -0.3422
    3SAPS  H18Z  399   0.915   6.323   8.540  0.3598 -0.3494 -1.2568
    4SAPS     N  400   3.111   0.418  11.064  0.6087 -0.8482  0.3537
    4SAPS   HN1  401   3.150   0.510  11.036 -0.5794 -1.0038 -1.8924
    4SAPS   HN2  402   3.010   0.437  11.052  0.5236 -1.4456  0.0919
    4SAPS   HN3  403   3.143   0.400  11.162 -2.7525 -1.0704  1.4649
    4SAPS   C12  404   3.162   0.312  10.980 -0.0803  0.8890  0.0005
    4SAPS  H12A  405   3.269   0.319  10.978  0.0708 -1.2898 -1.2783
    4SAPS   C13  406   3.123   0.178  11.056 -0.1827  0.2244  0.0904
    4SAPS  O13A  407   3.073   0.173  11.168  0.4172  0.2307  0.0180
    4SAPS  O13B  408   3.138   0.070  10.999  0.4471 -0.1453 -0.2071
    4SAPS   C11  409   3.094   0.310  10.840  0.1032  0.0154  0.4898
    4SAPS  H11A  410   2.984   0.299  10.852  0.4793 -2.4493  2.1688
    4SAPS  H11B  411   3.137   0.222  10.787  0.0561  0.2641  0.0411
    4SAPS     P  412   3.033   0.497  10.665  0.0954 -0.0386  0.2177
    4SAPS   O13  413   2.890   0.496  10.711 -0.4037 -0.1480 -0.1442
    4SAPS   O14  414   3.091   0.627  10.628 -0.4419  0.3992 -0.0636
    4SAPS   O12  415   3.125   0.437  10.782  0.8886 -0.0123  0.0627
    4SAPS   O11  416   3.046   0.392  10.540  0.0073  0.1879 -0.7192
    4SAPS    C1  417   3.172   0.384  10.477 -0.3161  0.4222  0.6254
    4SAPS    HA  418   3.243   0.464  10.506  0.5719 -0.2221  0.2352
    4SAPS    HB  419   3.224   0.294  10.515 -2.0568 -0.8804 -0.0404
    4SAPS    C2  420   3.155   0.381  10.322 -0.4331  0.1348 -0.6012
    4SAPS    HS  421   3.210   0.463  10.271  0.7735  0.0441  0.5380
    4SAPS   O21  422   3.022   0.354  10.282 -0.3037 -0.5920 -0.4547
    4SAPS   C21  423   2.952   0.463  10.266  0.2700  0.1967 -0.2758
    4SAPS   O22  424   2.990   0.577  10.257 -0.8388  0.0660 -0.0968
    4SAPS   C22  425   2.803   0.422  10.250  0.3789  0.0034 -0.1563
    4SAPS   H2R  426   2.783   0.359  10.340 -0.3188  1.9099  1.0610
    4SAPS   H2S  427   2.745   0.516  10.257 -0.8425 -0.7931  0.6912
    4SAPS    C3  428   3.230   0.256  10.271  0.3554 -0.0651  0.0887
    4SAPS    HX  429   3.187   0.172  10.330 -1.1469 -0.5415 -1.6149
    4SAPS    HY  430   3.338   0.259  10.293 -0.0217 -1.8136  2.4320
    4SAPS   O31  431   3.209   0.237  10.129 -0.4796 -0.6850  0.0694
    4SAPS   C31  432   3.110   0.148  10.089 -0.1722 -0.3502 -0.0870
    4SAPS   O32  433   3.052   0.065  10.159 -0.0917 -0.0435 -0.1232
    4SAPS   C32  434   3.087   0.174   9.938  0.5845  0.5061  0.5630
    4SAPS   H2X  435   3.178   0.144   9.881  0.5291  1.4418 -0.0264
    4SAPS   H2Y  436   3.084   0.283   9.916  2.1269  0.2367 -1.1817
    4SAPS   C23  437   2.772   0.354  10.118  0.1158  0.2623  0.5385
    4SAPS   H3R  438   2.674   0.305  10.133  0.3822  0.3820  2.8929
    4SAPS   H3S  439   2.852   0.279  10.100  0.2602  0.3445  0.8418
    4SAPS   C24  440   2.756   0.432   9.991 -0.5695 -0.6592 -0.2156
    4SAPS   H4R  441   2.717   0.363   9.914  1.5865  0.5721 -2.4624
    4SAPS   H4S  442   2.850   0.481   9.958  0.4911 -1.3524  1.6957
    4SAPS   C25  443   2.663   0.552   9.996 -0.4359  0.5931 -0.7815
    4SAPS   H5R  444   2.693   0.641  10.053  1.7641 -0.4975 -0.2042
    4SAPS   C26  445   2.536   0.546   9.955  0.2688  0.9883  0.6260
    4SAPS   H6R  446   2.465   0.625   9.981 -1.1241  0.1711 -0.6293
    4SAPS   C27  447   2.467   0.435   9.886  0.3087  0.6684  1.0427
    4SAPS   H7R  448   2.360   0.433   9.916 -0.2853 -0.2386 -1.0226
    4SAPS   H7S  449   2.506   0.335   9.916 -0.8091  0.6211  2.3636
    4SAPS   C28  450   2.468   0.443   9.739  0.8031  0.2002 -0.3575
    4SAPS   H8R  451   2.496   0.539   9.693 -3.4031  1.8683  0.3046
    4SAPS   C29  452   2.469   0.340   9.659 -0.2718  0.0855 -0.3365
    4SAPS   H9R  453   2.472   0.360   9.550  0.1102  1.1334 -0.1441
    4SAPS  C210  454   2.462   0.190   9.684 -0.4995  0.2382 -0.3988
    4SAPS  H10R  455   2.545   0.154   9.749 -0.9942  1.0965  0.7436
    4SAPS  H10S  456   2.493   0.135   9.593 -0.5729  1.5935 -1.2535
    4SAPS  C211  457   2.327   0.134   9.733 -0.3541 -0.6773  0.4876
    4SAPS  H11R  458   2.311   0.142   9.841 -1.0659  0.0073  0.3339
    4SAPS  C212  459   2.234   0.074   9.662  0.9064  0.1309  0.4544
    4SAPS  H12R  460   2.150   0.019   9.707  1.4589 -1.7309 -0.7080
    4SAPS  C213  461   2.234   0.060   9.515  0.4332 -0.5188 -0.1506
    4SAPS  H13R  462   2.299   0.144   9.481 -1.4345  0.7159 -0.7529
    4SAPS  H13S  463   2.130   0.070   9.478 -0.9816 -4.5053  2.4133
    4SAPS  C214  464   2.293  -0.071   9.463  0.0886  0.5628 -0.1069
    4SAPS  H14R  465   2.368  -0.124   9.523 -0.7091 -0.4295  0.0384
    4SAPS  C215  466   2.244  -0.144   9.359 -0.7768  0.4563 -0.1173
    4SAPS  H15R  467   2.295  -0.239   9.335 -0.7244  0.3559  0.3838
    4SAPS  C216  468   2.127  -0.117   9.265  0.3029 -0.6153 -0.0011
    4SAPS  H16R  469   2.163  -0.126   9.160 -0.3905 -1.2766 -0.1829
    4SAPS  H16S  470   2.088  -0.014   9.279  1.9691  0.1751 -1.0308
    4SAPS  C217  471   2.015  -0.218   9.282 -0.7799 -0.2916 -0.3061
    4SAPS  H17R  472   2.044  -0.325   9.280  2.2885  0.4942 -1.0247
    4SAPS  H17S  473   1.944  -0.189   9.201 -0.7801  1.4886  0.3003
    4SAPS  C218  474   1.939  -0.212   9.418 -0.2908  0.5838  0.3187
    4SAPS  H18R  475   1.919  -0.106   9.446  0.8018  1.1620 -1.0306
    4SAPS  H18S  476   2.007  -0.256   9.494 -1.9633 -1.3514  0.7328
    4SAPS  C219  477   1.796  -0.287   9.419  0.3998  0.6049 -0.6404
    4SAPS  H19R  478   1.817  -0.384   9.369 -2.5137  0.4918 -1.7506
    4SAPS  H19S  479   1.723  -0.231   9.357  0.8549  0.2743 -1.4732
    4SAPS  C220  480   1.739  -0.309   9.562 -0.1320  0.3679 -0.8290
    4SAPS  H20R  481   1.636  -0.350   9.576  0.6111 -1.0415  0.7035
    4SAPS  H20S  482   1.737  -0.217   9.623 -0.3495 -1.4575  2.0230
    4SAPS  H20T  483   1.801  -0.386   9.613 -1.1457  0.4366  0.5466
    4SAPS   C33  484   2.969   0.091   9.883  0.6927  0.1832 -0.9990
    4SAPS   H3X  485   2.880   0.124   9.939  2.0618 -0.0968  1.3978
    4SAPS   H3Y  486   2.980  -0.017   9.907 -1.5211  0.2123  0.2507
    4SAPS   C34  487   2.951   0.107   9.732  0.4414 -0.0045  0.3922
    4SAPS   H4X  488   3.046   0.083   9.679 -0.4490  0.4720 -1.4480
    4SAPS   H4Y  489   2.924   0.212   9.708  1.4242 -0.0391 -0.9508
    4SAPS   C35  490   2.841   0.021   9.680 -0.1548  0.0171 -0.2498
    4SAPS   H5X  491   2.767   0.019   9.763  1.6270 -1.2798  1.3753
    4SAPS   H5Y  492   2.879  -0.081   9.659  2.7036  1.3466 -1.7090
    4SAPS   C36  493   2.783   0.048   9.538 -0.6213 -0.3833  0.8003
    4SAPS   H6X  494   2.767   0.158   9.528 -0.3991 -0.3949  0.2964
    4SAPS   H6Y  495   2.689  -0.010   9.543 -0.4709 -0.8451 -1.2974
    4SAPS   C37  496   2.880  -0.003   9.433 -0.5242  0.4186  0.7338
    4SAPS   H7X  497   2.916  -0.107   9.453 -1.9447 -0.3431 -0.5339
    4SAPS   H7Y  498   2.967   0.065   9.442 -1.2460  1.4809 -0.3043
    4SAPS   C38  499   2.840   0.004   9.290 -0.2317 -0.0363  0.8897
    4SAPS   H8X  500   2.774   0.091   9.268 -1.4972 -1.8811 -3.2462
    4SAPS   H8Y  501   2.778  -0.085   9.265  1.3928 -0.4573 -1.8597
    4SAPS   C39  502   2.965   0.010   9.199 -0.3538  1.1791  0.4488
    4SAPS   H9X  503   3.037  -0.066   9.235  0.7320  1.9131 -0.1449
    4SAPS   H9Y  504   3.018   0.107   9.214  0.8415  0.6279 -0.1073
    4SAPS  C310  505   2.935   0.013   9.045  0.7577 -0.2226 -0.6132
    4SAPS  H10X  506   2.904   0.112   9.006  0.6110  0.0916  0.2906
    4SAPS  H10Y  507   2.836  -0.038   9.037  1.3046 -1.4143  0.1046
    4SAPS  C311  508   3.036  -0.055   8.949 -0.0483 -0.4530  0.9915
    4SAPS  H11X  509   3.051  -0.156   8.994 -1.7952 -1.5012 -0.7565
    4SAPS  H11Y  510   3.137  -0.009   8.953  0.2937 -0.9901 -1.0252
    4SAPS  C312  511   3.010  -0.073   8.801  0.2632  0.5489  0.6543
    4SAPS  H12X  512   2.931  -0.151   8.796 -0.5660  1.4517 -0.5815
    4SAPS  H12Y  513   3.098  -0.118   8.752 -0.4222 -1.3343  1.0954
    4SAPS  C313  514   2.973   0.052   8.719 -0.0353 -0.0260 -0.0962
    4SAPS  H13X  515   3.053   0.127   8.732  0.3003  0.2322 -3.3285
    4SAPS  H13Y  516   2.878   0.104   8.744  1.3871  1.7685  1.7164
    4SAPS  C314  517   2.957   0.028   8.568 -0.6055 -0.1908 -0.4072
    4SAPS  H14X  518   2.897  -0.065   8.563 -0.8004 -0.1332  0.8733
    4SAPS  H14Y  519   3.054  -0.010   8.529 -0.8339  0.5845 -1.7757
    4SAPS  C315  520   2.927   0.153   8.489  0.2987  0.1149 -0.1888
    4SAPS  H15X  521   3.009   0.227   8.503  0.4948 -0.1451  0.0241
    4SAPS  H15Y  522   2.834   0.201   8.529  0.8199  1.6528 -0.7693
    4SAPS  C316  523   2.920   0.146   8.338  0.4600  0.3360 -0.0708
    4SAPS  H16X  524   2.922   0.246   8.289  0.2977  1.0347  1.3185
    4SAPS  H16Y  525   2.823   0.096   8.317  0.8800 -1.1016  1.3145
    4SAPS  C317  526   3.029   0.064   8.268 -0.1169 -0.0532 -0.5342
    4SAPS  H17X  527   3.003  -0.042   8.291  0.2971  0.3090  1.6521
    4SAPS  H17Y  528   3.126   0.082   8.318 -0.5402  0.6086  0.0568
    4SAPS  C318  529   3.013   0.081   8.114 -0.1372 -0.3808  0.0583
    4SAPS  H18X  530   3.056   0.173   8.068  1.3176 -0.3155  1.5260
    4SAPS  H18Y  531   2.905   0.085   8.086 -0.0499  0.5988 -0.1765
    4SAPS  H18Z  532   3.059  -0.007   8.064 -0.9882 -1.2971  0.8730
    5SAPS     N  533   6.163   6.533  10.968  0.1005 -0.0249 -0.0900
    5SAPS   HN1  534   6.115   6.623  10.948  0.2936 -0.4817 -2.7244
    5SAPS   HN2  535   6.247   6.544  10.909 -0.2267  1.9225 -0.2230
    5SAPS   HN3  536   6.112   6.455  10.922  1.5809 -1.2455  0.2858
    5SAPS   C12  537   6.186   6.493  11.106  0.6876 -0.5817  0.0015
    5SAPS  H12A  538   6.263   6.554  11.150  0.6386 -0.5056 -0.0187
    5SAPS   C13  539   6.056   6.498  11.188 -0.4071 -0.1015 -0.0897
    5SAPS  O13A  540   5.941   6.527  11.141  0.5596  0.4248  0.3946
    5SAPS  O13B  541   6.075   6.493  11.313 -0.7145  0.1142 -0.3298
    5SAPS   C11  542   6.242   6.353  11.109 -0.5384  0.0130  0.5367
    5SAPS  H11A  543   6.159   6.284  11.085 -0.2664  0.0464 -0.5544
    5SAPS  H11B  544   6.270   6.330  11.214 -0.1099 -1.5777  0.0928
    5SAPS     P  545   6.487   6.317  11.062  0.0426 -0.1398  0.1753
    5SAPS   O13  546   6.511   6.432  11.148 -0.0112 -0.5720  0.7735
    5SAPS   O14  547   6.516   6.188  11.125  0.8303 -0.2344  0.1205
    5SAPS   O12  548   6.339   6.322  11.010 -0.2586  0.2471  0.2538
    5SAPS   O11  549   6.568   6.326  10.927 -0.3143  0.2632 -0.7919
    5SAPS    C1  550   6.570   6.195  10.859 -1.0181  0.1756 -0.6477
    5SAPS    HA  551   6.642   6.120  10.898 -2.4937 -1.2697 -0.6499
    5SAPS    HB  552   6.471   6.147  10.859 -1.5520  1.2514  0.0728
    5SAPS    C2  553   6.611   6.211  10.709 -0.0559  0.0101 -0.3443
    5SAPS    HS  554   6.694   6.284  10.701  0.0964 -0.1194  0.0671
    5SAPS   O21  555   6.494   6.275  10.646 -0.1908  0.1431 -0.7574
    5SAPS   C21  556   6.517   6.326  10.533  0.2132 -0.9883  0.1011
    5SAPS   O22  557   6.623   6.355  10.484  0.1567  0.0016 -0.5361
    5SAPS   C22  558   6.385   6.349  10.464  0.0270 -0.0098  0.0671
    5SAPS   H2R  559   6.336   6.249  10.466 -1.9171  0.8484 -2.7972
    5SAPS   H2S  560   6.328   6.428  10.517 -1.2705 -0.7661 -0.1780
    5SAPS    C3  561   6.647   6.073  10.649  0.8923 -0.0218 -0.9364
    5SAPS    HX  562   6.544   6.034  10.636 -0.4731  2.5326  1.7293
    5SAPS    HY  563   6.717   6.017  10.715  0.4928 -1.9652 -2.1164
    5SAPS   O31  564   6.696   6.082  10.517 -0.1262 -0.4161  0.0459
    5SAPS   C31  565   6.822   6.135  10.498 -0.0555 -0.6671  0.3966
    5SAPS   O32  566   6.892   6.179  10.587 -0.6414  0.0469 -0.6538
    5SAPS   C32  567   6.864   6.139  10.362 -0.4610  0.3266  0.3669
    5SAPS   H2X  568   6.927   6.229  10.343 -0.2635 -0.1113 -1.1430
    5SAPS   H2Y  569   6.774   6.138  10.297  0.6443  0.8270 -1.1960
    5SAPS   C23  570   6.415   6.383  10.314  0.6790 -0.9707 -0.1777
    5SAPS   H3R  571   6.469   6.300  10.263 -0.2199 -0.5859 -1.7967
    5SAPS   H3S  572   6.494   6.461  10.311 -0.0422 -0.2745 -0.9823
    5SAPS   C24  573   6.292   6.429  10.235  0.1781 -0.0404  0.4539
    5SAPS   H4R  574   6.214   6.349  10.232 -2.3341  2.3409  0.4013
    5SAPS   H4S  575   6.328   6.437  10.131  1.5823  3.2915  1.1501
    5SAPS   C25  576   6.231   6.559  10.287  0.1206 -0.7663  0.2628
    5SAPS   H5R  577   6.152   6.553  10.364  0.6890 -1.2193  0.8150
    5SAPS   C26  578   6.268   6.682  10.246 -0.1220  0.3314  0.9002
    5SAPS   H6R  579   6.231   6.769  10.302  1.2828  1.4464  0.1362
    5SAPS   C27  580   6.370   6.723  10.141  0.5406 -0.2510 -0.2320
    5SAPS   H7R  581   6.324   6.723  10.040 -0.8902 -0.4088  0.4020
    5SAPS   H7S  582   6.449   6.647  10.125  0.8724 -0.4159  1.9875
    5SAPS   C28  583   6.425   6.862  10.175  0.2461 -0.0993  0.7668
    5SAPS   H8R  584   6.415   6.881  10.283 -1.7751 -1.5017  0.8576
    5SAPS   C29  585   6.465   6.953  10.092  0.1629 -0.2455  0.1220
    5SAPS   H9R  586   6.515   7.042  10.134 -0.3257  1.2391 -2.3268
    5SAPS  C210  587   6.484   6.923   9.949 -0.2986 -0.1284 -0.0350
    5SAPS  H10R  588   6.484   7.024   9.903 -0.0905 -0.4967 -0.8399
    5SAPS  H10S  589   6.395   6.873   9.905 -1.1873  0.2495  1.2807
    5SAPS  C211  590   6.614   6.851   9.921 -0.1805  0.1930 -0.0706
    5SAPS  H11R  591   6.667   6.810  10.008 -0.7923 -0.2418  0.0992
    5SAPS  C212  592   6.651   6.823   9.800 -0.0827  0.0264  0.3904
    5SAPS  H12R  593   6.746   6.769   9.783  1.4102  2.5874  0.4302
    5SAPS  C213  594   6.570   6.849   9.675 -0.0319 -0.5005  0.1418
    5SAPS  H13R  595   6.460   6.856   9.692  0.0233  0.7529  0.0267
    5SAPS  H13S  596   6.586   6.771   9.597  0.2696 -0.5667  0.2678
    5SAPS  C214  597   6.615   6.984   9.638  0.0330 -0.3171  0.3397
    5SAPS  H14R  598   6.609   7.060   9.718 -0.8867 -0.2635  0.2141
    5SAPS  C215  599   6.656   7.024   9.511 -0.0754 -0.4328 -0.4121
    5SAPS  H15R  600   6.688   7.128   9.495  2.7987 -1.1721  0.1690
    5SAPS  C216  601   6.669   6.925   9.400 -0.3990  0.6794  0.8161
    5SAPS  H16R  602   6.689   6.822   9.438  3.0804  1.4869  1.3104
    5SAPS  H16S  603   6.758   6.945   9.337 -1.3697 -1.5965 -1.3602
    5SAPS  C217  604   6.537   6.932   9.316 -0.4207  0.4734  0.0261
    5SAPS  H17R  605   6.440   6.912   9.368 -0.5217  0.1394 -0.2858
    5SAPS  H17S  606   6.542   6.848   9.243  0.8115 -0.4615  1.1581
    5SAPS  C218  607   6.518   7.063   9.235  0.2574  0.3980 -0.3111
    5SAPS  H18R  608   6.410   7.066   9.209 -0.1569  1.4230  1.4796
    5SAPS  H18S  609   6.537   7.154   9.297  1.3882 -0.0193 -0.0291
    5SAPS  C219  610   6.598   7.074   9.101  0.2255 -0.3928  0.3150
    5SAPS  H19R  611   6.581   6.982   9.041 -1.3956  0.9055 -1.2577
    5SAPS  H19S  612   6.706   7.089   9.123  0.2472 -3.0432  2.2348
    5SAPS  C220  613   6.566   7.195   9.010 -0.0955 -1.2505 -0.2485
    5SAPS  H20R  614   6.590   7.293   9.056 -1.4153  1.0279 -4.1711
    5SAPS  H20S  615   6.460   7.195   8.977 -1.2229 -0.9385  3.1727
    5SAPS  H20T  616   6.623   7.188   8.915 -0.6970 -2.0706 -0.5559
    5SAPS   C33  617   6.938   6.006  10.325 -0.6898  0.1628  0.4574
    5SAPS   H3X  618   6.874   5.926  10.369  0.7895 -0.0493  2.2796
    5SAPS   H3Y  619   7.038   6.000  10.374 -1.1845 -3.5058  1.1347
    5SAPS   C34  620   6.967   5.986  10.171  0.6024  0.1118 -0.8200
    5SAPS   H4X  621   6.875   6.003  10.111  1.7730 -0.1023 -2.6968
    5SAPS   H4Y  622   7.005   5.883  10.156  1.2731  0.4203 -1.2193
    5SAPS   C35  623   7.059   6.092  10.112 -0.1686 -0.3937  0.0875
    5SAPS   H5X  624   7.165   6.090  10.146 -0.1207  1.6620  0.0982
    5SAPS   H5Y  625   7.018   6.189  10.146 -0.9376 -0.2547 -1.1998
    5SAPS   C36  626   7.068   6.103   9.958 -0.0541 -0.4482 -1.3850
    5SAPS   H6X  627   6.968   6.094   9.909  0.0604 -2.4961 -1.3001
    5SAPS   H6Y  628   7.127   6.016   9.922  3.5991  1.0787  0.5752
    5SAPS   C37  629   7.159   6.222   9.921 -0.1693  0.5091 -0.7693
    5SAPS   H7X  630   7.260   6.210   9.966 -0.0806 -2.4013 -1.6561
    5SAPS   H7Y  631   7.118   6.316   9.965 -1.4880  0.0929 -1.0739
    5SAPS   C38  632   7.192   6.240   9.775  0.6235  0.5548  0.0691
    5SAPS   H8X  633   7.097   6.246   9.716 -0.2060  0.2274  1.3452
    5SAPS   H8Y  634   7.241   6.149   9.735 -1.9774 -0.2344 -1.4885
    5SAPS   C39  635   7.271   6.358   9.734  0.1579  0.4521  0.6020
    5SAPS   H9X  636   7.380   6.346   9.745  0.1727 -3.2448 -2.3701
    5SAPS   H9Y  637   7.237   6.451   9.786 -1.5390  2.2195 -3.4423
    5SAPS  C310  638   7.265   6.379   9.579 -0.3436 -0.8524 -0.1983
    5SAPS  H10X  639   7.167   6.426   9.560 -0.1493  0.8724  2.6796
    5SAPS  H10Y  640   7.272   6.280   9.529  1.6475 -0.4571 -0.7482
    5SAPS  C311  641   7.378   6.469   9.522 -0.6886 -0.2061  0.0953
    5SAPS  H11X  642   7.477   6.419   9.518 -0.6518 -0.1207 -0.0477
    5SAPS  H11Y  643   7.380   6.552   9.596 -0.0266  1.1278 -1.3845
    5SAPS  C312  644   7.359   6.531   9.390  0.3230  0.4101  0.5348
    5SAPS  H12X  645   7.431   6.614   9.375  0.6847  0.2713  1.5197
    5SAPS  H12Y  646   7.264   6.588   9.398 -0.2267 -0.2544 -1.0066
    5SAPS  C313  647   7.366   6.431   9.274 -0.4266 -0.4803  0.0378
    5SAPS  H13X  648   7.285   6.357   9.292 -0.2829 -0.3004  1.4881
    5SAPS  H13Y  649   7.459   6.372   9.283 -0.2785 -0.0242  1.7102
    5SAPS  C314  650   7.368   6.497   9.136 -0.9156 -0.4358 -0.2721
    5SAPS  H14X  651   7.444   6.577   9.146 -0.1156 -1.2061 -0.1480
    5SAPS  H14Y  652   7.272   6.548   9.110 -0.4443 -0.6429 -2.5202
    5SAPS  C315  653   7.401   6.403   9.020 -0.2877 -0.3787  0.7256
    5SAPS  H15X  654   7.493   6.348   9.050 -1.6180 -1.4133  3.0035
    5SAPS  H15Y  655   7.429   6.465   8.932 -0.1643  0.6713  1.4802
    5SAPS  C316  656   7.293   6.306   8.991 -0.5279  0.3735  0.2788
    5SAPS  H16X  657   7.199   6.324   9.048 -0.2642  0.7858  0.5971
    5SAPS  H16Y  658   7.332   6.207   9.024  0.6503  0.9429  0.6454
    5SAPS  C317  659   7.258   6.296   8.844 -0.6896 -0.2125 -0.2784
    5SAPS  H17X  660   7.183   6.218   8.820  0.2369 -1.3065  0.3748
    5SAPS  H17Y  661   7.347   6.268   8.784  0.0160  1.2346  0.0538
    5SAPS  C318  662   7.199   6.423   8.794  0.6544 -0.1805  0.4316
    5SAPS  H18X  663   7.090   6.428   8.812  0.9171 -2.3908  2.8925
    5SAPS  H18Y  664   7.216   6.423   8.684 -2.0564 -0.6762 -0.0302
    5SAPS  H18Z  665   7.239   6.515   8.842 -0.4972 -0.0773  1.2104
    6SAPS     N  666   6.466   5.451  10.902  0.8995  0.4405  0.0420
    6SAPS   HN1  667   6.489   5.351  10.883 -0.4807 -0.5058  2.9661
    6SAPS   HN2  668   6.524   5.515  10.844  1.9674  0.5677  1.2324
    6SAPS   HN3  669   6.488   5.475  11.001 -0.2745  0.5273  0.2876
    6SAPS   C12  670   6.327   5.479  10.878  0.9467 -0.0934 -0.0220
    6SAPS  H12A  671   6.272   5.436  10.960  1.3901  0.0926  0.3789
    6SAPS   C13  672   6.291   5.625  10.863 -0.2553 -0.5206 -0.2421
    6SAPS  O13A  673   6.378   5.712  10.842 -0.0020 -0.3507 -0.4334
    6SAPS  O13B  674   6.176   5.659  10.887  0.3300  0.4964 -0.1198
    6SAPS   C11  675   6.281   5.397  10.757  0.4614  0.2323  0.1478
    6SAPS  H11A  676   6.316   5.427  10.656  4.5611 -0.3994  1.2912
    6SAPS  H11B  677   6.171   5.411  10.755  0.5089  0.4780 -2.4239
    6SAPS     P  678   6.212   5.140  10.744 -0.0986 -0.5278 -0.3229
    6SAPS   O13  679   6.281   5.013  10.751 -1.1090  0.2858 -0.0566
    6SAPS   O14  680   6.090   5.163  10.823 -0.1808  0.0846 -0.6902
    6SAPS   O12  681   6.319   5.259  10.775  0.1269  0.1985  0.3203
    6SAPS   O11  682   6.164   5.168  10.597 -0.6563  0.0562 -0.0072
    6SAPS    C1  683   6.254   5.159  10.489  0.1442 -0.2196 -0.3339
    6SAPS    HA  684   6.297   5.259  10.466 -1.6957  1.3600  2.8262
    6SAPS    HB  685   6.343   5.095  10.509 -0.1306 -0.5075 -0.0197
    6SAPS    C2  686   6.188   5.110  10.351 -0.5268  0.5417  0.2322
    6SAPS    HS  687   6.267   5.069  10.284 -1.6587 -0.7492 -0.3468
    6SAPS   O21  688   6.119   5.211  10.281  0.4829 -0.6748  0.7845
    6SAPS   C21  689   6.194   5.313  10.231 -0.5728  0.5396  0.9646
    6SAPS   O22  690   6.313   5.318  10.234 -0.0191  0.2071 -0.6964
    6SAPS   C22  691   6.104   5.409  10.166 -0.4967 -0.4646  0.5813
    6SAPS   H2R  692   6.062   5.358  10.077  1.1596 -0.9229  0.0391
    6SAPS   H2S  693   6.016   5.437  10.228 -1.1842  2.0224 -1.4289
    6SAPS    C3  694   6.100   4.982  10.371 -0.0322 -0.1918 -0.8315
    6SAPS    HX  695   6.027   5.008  10.451  1.1244  2.2578 -0.5231
    6SAPS    HY  696   6.164   4.904  10.417 -0.3209 -0.1475 -0.3476
    6SAPS   O31  697   6.048   4.926  10.246  0.4524 -0.2770 -0.1805
    6SAPS   C31  698   5.920   4.935  10.219  0.4372 -0.3055  0.2477
    6SAPS   O32  699   5.838   4.977  10.298  0.9831  0.8584  0.8894
    6SAPS   C32  700   5.895   4.876  10.082 -0.3227  0.3318 -0.3682
    6SAPS   H2X  701   5.803   4.815  10.070 -0.6485  0.5179  1.1858
    6SAPS   H2Y  702   5.980   4.812  10.048 -1.0048 -0.4750 -0.5666
    6SAPS   C23  703   6.169   5.536  10.130 -0.4932 -0.4813  0.3218
    6SAPS   H3R  704   6.214   5.581  10.221 -0.7377  3.1312 -1.2793
    6SAPS   H3S  705   6.086   5.603  10.101 -2.5819 -2.7148  0.9109
    6SAPS   C24  706   6.271   5.528  10.011 -0.3116  0.2390 -0.2577
    6SAPS   H4R  707   6.347   5.450  10.033 -0.4228  0.2617  0.2035
    6SAPS   H4S  708   6.325   5.625  10.013 -2.6582  1.5738 -0.1959
    6SAPS   C25  709   6.219   5.493   9.881  0.2009  0.6618 -0.3313
    6SAPS   H5R  710   6.206   5.385   9.861 -1.3685  1.0353 -1.4171
    6SAPS   C26  711   6.202   5.579   9.783 -0.0935  0.3097 -0.6759
    6SAPS   H6R  712   6.164   5.548   9.684 -1.2017  1.7467 -0.7229
    6SAPS   C27  713   6.222   5.729   9.791 -0.0461 -0.5116 -0.7458
    6SAPS   H7R  714   6.330   5.743   9.765 -0.0070 -3.1552 -2.0960
    6SAPS   H7S  715   6.209   5.772   9.893  0.5815 -0.2138 -0.7882
    6SAPS   C28  716   6.140   5.813   9.695  0.1867  0.2605 -0.0232
    6SAPS   H8R  717   6.044   5.849   9.735 -1.2671 -2.5041 -0.9085
    6SAPS   C29  718   6.169   5.847   9.572  0.3788  0.7286  0.3316
    6SAPS   H9R  719   6.088   5.901   9.522  0.0848 -0.1266 -0.1210
    6SAPS  C210  720   6.286   5.815   9.488 -0.0138 -0.2710 -0.3857
    6SAPS  H10R  721   6.253   5.799   9.383 -2.0235 -2.2953  0.5086
    6SAPS  H10S  722   6.343   5.728   9.528 -0.6372 -0.5126 -0.0151
    6SAPS  C211  723   6.397   5.915   9.479 -0.1291 -0.1357  0.2087
    6SAPS  H11R  724   6.419   5.968   9.573 -1.0132  1.0922 -0.2674
    6SAPS  C212  725   6.485   5.936   9.374 -0.0173  0.4772 -1.1135
    6SAPS  H12R  726   6.560   6.015   9.390  0.1098  0.2822 -0.7490
    6SAPS  C213  727   6.489   5.866   9.237  0.1084 -0.6170  0.2205
    6SAPS  H13R  728   6.410   5.789   9.219  0.7042 -0.7628 -1.8990
    6SAPS  H13S  729   6.582   5.806   9.233  1.0859  0.8272  1.0969
    6SAPS  C214  730   6.467   5.973   9.130  0.2794 -0.1503 -0.5924
    6SAPS  H14R  731   6.403   6.057   9.161  1.2067  0.6428 -0.8114
    6SAPS  C215  732   6.510   5.967   9.005 -0.0021  0.3138  0.3894
    6SAPS  H15R  733   6.476   6.047   8.937  2.6334  1.1514  0.0072
    6SAPS  C216  734   6.601   5.856   8.957 -0.0448  0.0968 -0.2730
    6SAPS  H16R  735   6.554   5.756   8.971 -1.0206  0.4388 -1.0415
    6SAPS  H16S  736   6.695   5.855   9.015 -0.2110  1.1468  0.0226
    6SAPS  C217  737   6.638   5.874   8.806 -0.4752  0.6520  0.0611
    6SAPS  H17R  738   6.548   5.879   8.740 -0.2628 -1.7935 -0.4388
    6SAPS  H17S  739   6.692   5.785   8.768 -1.6286  0.0907 -0.2680
    6SAPS  C218  740   6.737   5.992   8.790 -0.0801 -0.0054 -0.8187
    6SAPS  H18R  741   6.802   5.987   8.881 -2.7974 -0.4978  1.1576
    6SAPS  H18S  742   6.689   6.091   8.794  0.5342  0.2498  1.1541
    6SAPS  C219  743   6.820   6.003   8.664 -0.4138  0.2711  0.8283
    6SAPS  H19R  744   6.763   5.980   8.571  1.1704 -0.4194  0.0018
    6SAPS  H19S  745   6.895   5.921   8.654 -2.0689 -1.0573 -1.0788
    6SAPS  C220  746   6.906   6.131   8.654  1.0478 -0.7096 -0.0199
    6SAPS  H20R  747   6.960   6.155   8.748  0.4572  1.8809 -0.3016
    6SAPS  H20S  748   6.843   6.221   8.637  0.8241 -0.9400 -0.4166
    6SAPS  H20T  749   6.972   6.119   8.565  0.2299  0.0886 -0.7502
    6SAPS   C33  750   5.866   4.990   9.978 -0.1685 -0.3316 -0.7916
    6SAPS   H3X  751   5.955   5.055   9.983 -0.7026  0.3060  0.6731
    6SAPS   H3Y  752   5.778   5.053  10.003 -0.9611 -0.8534 -2.1605
    6SAPS   C34  753   5.860   4.923   9.844  0.7324  0.0918 -0.2494
    6SAPS   H4X  754   5.782   4.844   9.842  0.6112  0.2090 -0.2041
    6SAPS   H4Y  755   5.963   4.883   9.832 -0.3732 -2.4452 -1.4542
    6SAPS   C35  756   5.844   5.032   9.730  0.3682 -0.3152 -0.5145
    6SAPS   H5X  757   5.900   5.126   9.748 -0.3552  0.2069 -0.9746
    6SAPS   H5Y  758   5.737   5.060   9.739  0.7778  1.3523 -0.6639
    6SAPS   C36  759   5.883   4.974   9.591  0.0613  0.1953  0.1407
    6SAPS   H6X  760   5.815   4.888   9.570 -0.9896  1.0583 -0.0103
    6SAPS   H6Y  761   5.984   4.926   9.587 -1.2996 -2.9941  1.8793
    6SAPS   C37  762   5.844   5.065   9.470 -0.4487  0.2296  0.6152
    6SAPS   H7X  763   5.892   5.166   9.473 -1.2281  0.7036 -1.9284
    6SAPS   H7Y  764   5.735   5.081   9.481 -0.4350 -0.6323  2.0538
    6SAPS   C38  765   5.853   4.999   9.331 -0.3704  0.1451  0.8967
    6SAPS   H8X  766   5.788   4.909   9.329 -0.7781  0.4617 -1.1025
    6SAPS   H8Y  767   5.955   4.969   9.298 -1.0863 -0.6556 -0.6119
    6SAPS   C39  768   5.804   5.092   9.227 -0.5315  0.5633  0.2249
    6SAPS   H9X  769   5.857   5.189   9.217  0.9318 -0.4534 -2.4552
    6SAPS   H9Y  770   5.695   5.107   9.246 -0.6548 -0.3265  0.2522
    6SAPS  C310  771   5.799   5.023   9.083 -0.3965  0.0971  0.1207
    6SAPS  H10X  772   5.722   4.945   9.100 -1.2202  1.2705  1.9406
    6SAPS  H10Y  773   5.893   4.970   9.057  0.4171  0.8701  1.4357
    6SAPS  C311  774   5.752   5.115   8.970 -0.1304  0.6631 -0.6947
    6SAPS  H11X  775   5.790   5.068   8.877 -2.3733  0.0545 -1.3422
    6SAPS  H11Y  776   5.801   5.215   8.971 -0.9329  1.0588  0.6984
    6SAPS  C312  777   5.602   5.122   8.960 -0.1297 -0.4584 -0.6350
    6SAPS  H12X  778   5.573   5.152   9.062  1.2970  1.1788 -0.6765
    6SAPS  H12Y  779   5.570   5.017   8.940 -2.1220  0.3043 -1.5528
    6SAPS  C313  780   5.547   5.208   8.845  0.2314 -0.5668 -0.3322
    6SAPS  H13X  781   5.588   5.311   8.838 -0.8738 -0.0047  1.1185
    6SAPS  H13Y  782   5.437   5.214   8.864  0.6452  1.1212  1.6366
    6SAPS  C314  783   5.587   5.143   8.699 -0.1935 -0.6974 -0.0323
    6SAPS  H14X  784   5.526   5.052   8.684 -2.0826  0.7169 -1.1735
    6SAPS  H14Y  785   5.694   5.113   8.703  0.0738  0.4713  1.6998
    6SAPS  C315  786   5.552   5.227   8.573 -0.1338  0.5199 -0.1142
    6SAPS  H15X  787   5.583   5.161   8.488  2.0349 -1.0398  1.8270
    6SAPS  H15Y  788   5.616   5.317   8.565  0.0119  0.5150  1.0267
    6SAPS  C316  789   5.404   5.269   8.564  0.4861 -0.1720  0.2885
    6SAPS  H16X  790   5.405   5.341   8.649 -0.3344  0.4995 -0.2543
    6SAPS  H16Y  791   5.333   5.190   8.597 -0.0827 -1.2492 -3.3232
    6SAPS  C317  792   5.367   5.346   8.436 -0.4941 -0.0253  0.5995
    6SAPS  H17X  793   5.325   5.279   8.358  0.9049 -0.0060 -0.1888
    6SAPS  H17Y  794   5.454   5.393   8.385  0.1456  0.7992  2.4062
    6SAPS  C318  795   5.253   5.441   8.455 -0.0355  0.1751 -0.0798
    6SAPS  H18X  796   5.169   5.392   8.509  2.2252 -2.8238  0.8819
    6SAPS  H18Y  797   5.224   5.475   8.353 -1.0402  0.0164  0.1386
    6SAPS  H18Z  798   5.289   5.528   8.514  1.4529 -0.9379  0.6968
    7SAPS     N  799   1.712   6.263  10.696  0.4443 -0.5668  0.7889
    7SAPS   HN1  800   1.766   6.198  10.756  0.3918  0.2553  1.7493
    7SAPS   HN2  801   1.672   6.200  10.624 -0.9004  0.9748  0.1548
    7SAPS   HN3  802   1.772   6.334  10.649 -0.2119 -0.5836 -0.0921
    7SAPS   C12  803   1.610   6.319  10.791  0.1791 -0.1398 -0.0403
    7SAPS  H12A  804   1.572   6.234  10.846 -0.6255 -0.2741 -0.7855
    7SAPS   C13  805   1.671   6.410  10.905  0.6493 -0.8807  0.1215
    7SAPS  O13A  806   1.793   6.445  10.915 -0.0134 -0.9097  0.2014
    7SAPS  O13B  807   1.590   6.431  11.002 -1.5341 -0.2872  0.0591
    7SAPS   C11  808   1.495   6.397  10.727  0.5258  0.6899  0.2309
    7SAPS  H11A  809   1.414   6.400  10.802  1.6232 -0.4837  1.4903
    7SAPS  H11B  810   1.457   6.344  10.636 -1.9401  0.4411  1.3697
    7SAPS     P  811   1.464   6.655  10.674  0.0901 -0.4283 -0.3509
    7SAPS   O13  812   1.386   6.677  10.796  0.5392 -0.1146 -0.1339
    7SAPS   O14  813   1.572   6.747  10.642  0.3769  0.0975 -0.0611
    7SAPS   O12  814   1.535   6.518  10.681  0.4569  0.1099  0.1938
    7SAPS   O11  815   1.361   6.647  10.553 -0.9185 -0.2346  0.4931
    7SAPS    C1  816   1.366   6.542  10.454  0.2023  0.4512 -0.1177
    7SAPS    HA  817   1.464   6.557  10.404 -0.0841  1.9450 -0.2475
    7SAPS    HB  818   1.350   6.440  10.494 -0.8922 -0.7379 -3.3780
    7SAPS    C2  819   1.262   6.562  10.341 -0.5221  0.1853 -0.1967
    7SAPS    HS  820   1.301   6.539  10.240  0.8058  0.9067  0.1504
    7SAPS   O21  821   1.232   6.701  10.334 -0.2269 -0.3270 -0.3053
    7SAPS   C21  822   1.312   6.791  10.280  0.2248 -0.0581  0.4143
    7SAPS   O22  823   1.422   6.759  10.241 -0.3085  0.3182 -0.4409
    7SAPS   C22  824   1.267   6.935  10.295 -0.3594 -0.3455  0.9214
    7SAPS   H2R  825   1.181   6.938  10.364  0.3487  2.2928  1.7634
    7SAPS   H2S  826   1.346   6.997  10.344 -0.2548  1.5730 -1.5402
    7SAPS    C3  827   1.131   6.478  10.374 -0.5570 -0.8874  0.5358
    7SAPS    HX  828   1.095   6.485  10.479 -1.3256 -0.8489  0.2720
    7SAPS    HY  829   1.162   6.371  10.373 -1.3398 -1.1151 -0.9178
    7SAPS   O31  830   1.025   6.510  10.275 -0.1271  0.4317 -0.0876
    7SAPS   C31  831   0.929   6.593  10.322  0.5780 -0.4265 -0.1229
    7SAPS   O32  832   0.920   6.650  10.426  0.1707 -0.0073 -0.2187
    7SAPS   C32  833   0.825   6.599  10.211 -0.0997 -1.1096  0.0323
    7SAPS   H2X  834   0.736   6.644  10.260  0.0055 -0.2430 -0.5589
    7SAPS   H2Y  835   0.824   6.491  10.183 -1.6230 -1.3805  1.0693
    7SAPS   C23  836   1.216   6.987  10.163  0.1045 -0.4070  0.6758
    7SAPS   H3R  837   1.187   7.093  10.182  1.8968  0.0848  0.8279
    7SAPS   H3S  838   1.122   6.934  10.138 -0.1353 -0.7378  2.2410
    7SAPS   C24  839   1.311   6.987  10.044  0.4204  0.0208 -0.9023
    7SAPS   H4R  840   1.265   7.026   9.950 -0.0638  0.2786 -0.5631
    7SAPS   H4S  841   1.340   6.883  10.017 -0.4626  0.1033 -2.1979
    7SAPS   C25  842   1.443   7.057  10.067  0.0880 -0.4262  0.0066
    7SAPS   H5R  843   1.493   7.007  10.151 -1.6730 -0.8505  0.8154
    7SAPS   C26  844   1.487   7.170  10.010 -0.3903  0.2221 -0.1005
    7SAPS   H6R  845   1.584   7.207  10.046 -0.4519 -0.7465  1.0931
    7SAPS   C27  846   1.420   7.246   9.896  0.2246  0.8737  0.3884
    7SAPS   H7R  847   1.329   7.299   9.930 -1.7198 -1.9228 -0.2532
    7SAPS   H7S  848   1.377   7.175   9.821  0.1616  0.4182  0.8550
    7SAPS   C28  849   1.533   7.325   9.827  0.6165 -0.4047  0.4259
    7SAPS   H8R  850   1.602   7.379   9.894 -1.2360  1.5887  0.7715
    7SAPS   C29  851   1.548   7.338   9.692 -0.0236  0.3585 -0.0530
    7SAPS   H9R  852   1.630   7.398   9.649  2.4964 -1.5300  1.9733
    7SAPS  C210  853   1.450   7.279   9.588  0.4070  0.2699 -0.0825
    7SAPS  H10R  854   1.404   7.185   9.624  1.5982 -0.5116 -0.5719
    7SAPS  H10S  855   1.504   7.248   9.496 -0.6441 -0.5924 -0.4191
    7SAPS  C211  856   1.347   7.387   9.556 -0.5998  0.4709  0.7994
    7SAPS  H11R  857   1.314   7.437   9.648  1.8668 -0.0773  2.0416
    7SAPS  C212  858   1.319   7.422   9.427 -0.4473  0.2276  0.6849
    7SAPS  H12R  859   1.240   7.498   9.415  1.5466  2.1477 -0.5823
    7SAPS  C213  860   1.365   7.363   9.294 -0.8698 -0.0488  0.3423
    7SAPS  H13R  861   1.279   7.358   9.224  1.7342 -1.4220 -2.8658
    7SAPS  H13S  862   1.400   7.258   9.295  0.4684  0.3922  0.4228
    7SAPS  C214  863   1.464   7.467   9.237  0.5412 -0.0759 -0.2910
    7SAPS  H14R  864   1.444   7.576   9.241  0.9840  0.0346 -0.9735
    7SAPS  C215  865   1.572   7.439   9.155 -0.3176  0.7922  0.1621
    7SAPS  H15R  866   1.630   7.525   9.118  1.2757 -0.0726  0.6051
    7SAPS  C216  867   1.623   7.295   9.121 -0.4137 -0.7509  0.0702
    7SAPS  H16R  868   1.555   7.215   9.156  1.3285 -1.8802  0.9747
    7SAPS  H16S  869   1.721   7.267   9.166 -0.4949 -3.7587 -1.5454
    7SAPS  C217  870   1.653   7.280   8.971 -0.0817 -0.4189 -0.2209
    7SAPS  H17R  871   1.707   7.184   8.960 -0.9415 -1.0908  1.2504
    7SAPS  H17S  872   1.727   7.355   8.937 -0.0645  0.1005  0.9446
    7SAPS  C218  873   1.528   7.278   8.882  0.1368 -0.2182  0.4224
    7SAPS  H18R  874   1.493   7.383   8.870 -0.6300 -0.3176  1.5814
    7SAPS  H18S  875   1.441   7.226   8.929 -1.7625  1.6091 -1.0086
    7SAPS  C219  876   1.555   7.208   8.748  0.1028 -0.0567  0.1782
    7SAPS  H19R  877   1.652   7.247   8.712 -0.2688  1.5014  0.8219
    7SAPS  H19S  878   1.472   7.222   8.676 -0.1024 -3.0683 -0.2287
    7SAPS  C220  879   1.580   7.058   8.760 -1.4745  0.1330  0.2364
    7SAPS  H20R  880   1.494   7.004   8.805 -1.1548 -0.4958  0.0972
    7SAPS  H20S  881   1.663   7.026   8.825 -1.3325 -0.7434 -0.3640
    7SAPS  H20T  882   1.594   7.012   8.660  0.7074  0.1445  0.5294
    7SAPS   C33  883   0.872   6.680  10.089 -0.2362  0.1178 -0.4577
    7SAPS   H3X  884   0.969   6.633  10.061 -0.5684  0.5848 -2.4605
    7SAPS   H3Y  885   0.897   6.783  10.119 -1.2587  0.2297  0.0385
    7SAPS   C34  886   0.761   6.711   9.990 -1.1387 -0.1413  0.5107
    7SAPS   H4X  887   0.686   6.768  10.049 -1.6223 -0.3594  0.1140
    7SAPS   H4Y  888   0.716   6.616   9.951  1.9286 -0.8028 -1.5648
    7SAPS   C35  889   0.819   6.786   9.868 -0.5802 -0.2958  0.2068
    7SAPS   H5X  890   0.751   6.776   9.781 -1.6196 -1.6759  1.1409
    7SAPS   H5Y  891   0.915   6.733   9.850 -0.2046  0.5661 -0.3540
    7SAPS   C36  892   0.844   6.931   9.903 -0.1690 -0.0405 -0.0713
    7SAPS   H6X  893   0.930   6.940   9.972 -2.4713  3.1998  2.5338
    7SAPS   H6Y  894   0.758   6.985   9.948  0.7966  0.0825  1.6588
    7SAPS   C37  895   0.884   7.009   9.772 -0.3544  0.1366 -0.0968
    7SAPS   H7X  896   0.794   7.040   9.715 -0.7440  0.9546  0.9447
    7SAPS   H7Y  897   0.933   6.940   9.700  1.8310  0.3528  1.1276
    7SAPS   C38  898   0.967   7.131   9.791  0.4130 -0.2489  0.8297
    7SAPS   H8X  899   1.069   7.094   9.815  0.4738 -0.7462 -0.1504
    7SAPS   H8Y  900   0.937   7.181   9.886  1.1598 -0.3369  1.1185
    7SAPS   C39  901   0.977   7.216   9.671 -0.7229  0.5427 -0.0781
    7SAPS   H9X  902   1.005   7.166   9.576 -0.2098 -0.1168  0.4166
    7SAPS   H9Y  903   1.053   7.294   9.691 -1.5906  1.4154 -0.1898
    7SAPS  C310  904   0.847   7.294   9.649 -0.2321 -0.0474 -1.2211
    7SAPS  H10X  905   0.818   7.344   9.744 -0.8647  1.1895 -2.0493
    7SAPS  H10Y  906   0.770   7.218   9.621  0.9376 -0.9693 -1.9869
    7SAPS  C311  907   0.854   7.394   9.535 -0.2580  0.5551  0.4215
    7SAPS  H11X  908   0.860   7.330   9.444 -2.3206 -0.1121  0.7291
    7SAPS  H11Y  909   0.938   7.467   9.533 -0.3791  0.6673 -1.5702
    7SAPS  C312  910   0.725   7.476   9.526 -0.2122 -0.3291 -0.2552
    7SAPS  H12X  911   0.718   7.559   9.599  1.1429 -0.7842  0.3959
    7SAPS  H12Y  912   0.639   7.409   9.549  0.2397 -0.9695 -0.4373
    7SAPS  C313  913   0.698   7.531   9.379 -0.5619  0.1688 -0.0374
    7SAPS  H13X  914   0.790   7.575   9.336  0.6246 -1.2550  1.0055
    7SAPS  H13Y  915   0.622   7.612   9.392 -0.6165  0.3273 -1.3097
    7SAPS  C314  916   0.640   7.420   9.285  0.0198  0.2614 -0.4052
    7SAPS  H14X  917   0.556   7.370   9.337 -0.3346  1.2308 -0.0298
    7SAPS  H14Y  918   0.720   7.345   9.264  0.6331  0.8022 -0.0199
    7SAPS  C315  919   0.586   7.471   9.158  0.2007 -0.0991 -0.5158
    7SAPS  H15X  920   0.669   7.532   9.115  1.1085 -0.7192  0.3338
    7SAPS  H15Y  921   0.497   7.533   9.180 -0.8401 -2.5838  2.7077
    7SAPS  C316  922   0.555   7.351   9.073 -0.0814  0.4084 -0.2049
    7SAPS  H16X  923   0.464   7.301   9.113 -0.8948  2.5889  0.6981
    7SAPS  H16Y  924   0.638   7.278   9.085  1.9714  3.0746  2.4775
    7SAPS  C317  925   0.550   7.378   8.915  0.1081 -0.1363 -0.1596
    7SAPS  H17X  926   0.546   7.280   8.862  0.4429 -0.5569  0.5809
    7SAPS  H17Y  927   0.639   7.438   8.888 -1.6430  2.6769  0.1464
    7SAPS  C318  928   0.450   7.476   8.864  0.3524 -0.0549  0.2688
    7SAPS  H18X  929   0.348   7.441   8.889 -0.3347  0.6747 -1.4070
    7SAPS  H18Y  930   0.464   7.492   8.754 -1.9433  2.6246  0.3162
    7SAPS  H18Z  931   0.465   7.576   8.909 -0.1808  0.6187 -1.0143
    8SAPS     N  932   6.503   1.288  11.131 -0.9395 -0.8579  0.1045
    8SAPS   HN1  933   6.471   1.370  11.076 -0.5066  0.1304  1.2964
    8SAPS   HN2  934   6.580   1.312  11.197 -1.1145  2.3190 -0.7523
    8SAPS   HN3  935   6.536   1.216  11.063  0.1784 -0.1460 -0.1313
    8SAPS   C12  936   6.385   1.252  11.206  0.8716  0.6903 -0.3473
    8SAPS  H12A  937   6.406   1.177  11.281  2.6665 -0.3178 -1.8177
    8SAPS   C13  938   6.317   1.366  11.282 -0.2251 -0.3329 -0.2211
    8SAPS  O13A  939   6.354   1.484  11.268  0.0320 -0.0078  0.3617
    8SAPS  O13B  940   6.221   1.332  11.355 -0.5113 -0.1549 -0.1355
    8SAPS   C11  941   6.281   1.183  11.114 -0.1088 -0.1922 -0.4599
    8SAPS  H11A  942   6.212   1.126  11.180 -0.2882 -0.3939 -0.8241
    8SAPS  H11B  943   6.331   1.103  11.056 -0.3399  0.0147 -0.9510
    8SAPS     P  944   6.078   1.235  10.947 -0.2691 -0.0633 -0.1493
    8SAPS   O13  945   5.962   1.192  11.028 -0.2893 -0.1880  0.0583
    8SAPS   O14  946   6.054   1.337  10.848 -0.0302  0.0379  0.6770
    8SAPS   O12  947   6.201   1.271  11.034  0.0946  0.3457  0.0776
    8SAPS   O11  948   6.130   1.109  10.874 -0.0433 -0.7190 -0.1347
    8SAPS    C1  949   6.234   1.111  10.775 -0.3557 -0.1994 -0.1602
    8SAPS    HA  950   6.302   1.197  10.791 -1.4132  0.5899  0.1584
    8SAPS    HB  951   6.303   1.026  10.791 -1.3000 -0.6108  1.9526
    8SAPS    C2  952   6.180   1.116  10.630 -0.2048 -0.3320  0.4330
    8SAPS    HS  953   6.104   1.198  10.633  1.0861  0.9771 -1.3588
    8SAPS   O21  954   6.131   0.983  10.594  0.0824  0.2448 -0.0366
    8SAPS   C21  955   6.017   0.983  10.535  0.0489 -0.6656  0.0174
    8SAPS   O22  956   5.951   1.085  10.506  0.6850  0.1376 -0.6194
    8SAPS   C22  957   5.966   0.844  10.496  0.0446  0.0242 -0.1005
    8SAPS   H2R  958   5.926   0.791  10.585 -3.5956  0.4910 -1.3714
    8SAPS   H2S  959   5.884   0.857  10.422 -0.8521  3.3509  1.3924
    8SAPS    C3  960   6.290   1.144  10.523  1.0354  0.3095  0.4710
    8SAPS    HX  961   6.351   1.057  10.493  1.6287  0.5086  1.0940
    8SAPS    HY  962   6.362   1.218  10.562  1.4881  0.0765  0.0825
    8SAPS   O31  963   6.226   1.179  10.399 -0.2935  0.3966  0.2349
    8SAPS   C31  964   6.215   1.311  10.387 -0.0296 -0.0410  0.7308
    8SAPS   O32  965   6.246   1.391  10.473  0.0501 -0.5812  0.5840
    8SAPS   C32  966   6.148   1.356  10.255 -0.3165  0.5734  0.3129
    8SAPS   H2X  967   6.057   1.293  10.242  1.4503 -2.3948  1.8965
    8SAPS   H2Y  968   6.218   1.345  10.170 -0.3396  1.8357  0.1280
    8SAPS   C23  969   6.071   0.752  10.440  0.2482  0.0690  0.8035
    8SAPS   H3R  970   6.037   0.647  10.443 -0.5742  0.2253 -1.5633
    8SAPS   H3S  971   6.165   0.746  10.498  2.8579  0.5986 -3.1151
    8SAPS   C24  972   6.118   0.787  10.293 -0.3745 -0.0314 -0.5269
    8SAPS   H4R  973   6.213   0.733  10.271 -1.5662 -1.1965 -3.0078
    8SAPS   H4S  974   6.152   0.892  10.302  1.7332 -0.8081  0.8644
    8SAPS   C25  975   6.018   0.761  10.187 -0.2251  0.5161  0.2707
    8SAPS   H5R  976   5.992   0.657  10.163 -2.0648  0.7204  1.2453
    8SAPS   C26  977   5.950   0.855  10.117 -0.4681 -0.8663 -0.0377
    8SAPS   H6R  978   5.881   0.822  10.038 -2.0404 -0.3576  1.0991
    8SAPS   C27  979   5.975   1.004  10.121 -0.4299  0.4865  0.3350
    8SAPS   H7R  980   5.996   1.026  10.015 -1.3008  0.3977  0.1389
    8SAPS   H7S  981   6.067   1.039  10.174  0.6811 -1.1367 -0.5035
    8SAPS   C28  982   5.855   1.083  10.173 -0.3027  0.6278 -0.0979
    8SAPS   H8R  983   5.825   1.075  10.278 -2.9162 -0.7690 -0.9021
    8SAPS   C29  984   5.762   1.135  10.093  0.3068  0.2758  0.3439
    8SAPS   H9R  985   5.675   1.190  10.131  0.0539  0.4760 -0.5036
    8SAPS  C210  986   5.764   1.126   9.944 -0.0044  0.1512  0.0288
    8SAPS  H10R  987   5.660   1.132   9.904 -0.5169 -2.5090  0.8721
    8SAPS  H10S  988   5.796   1.024   9.915 -2.2379 -0.3423 -0.7771
    8SAPS  C211  989   5.847   1.231   9.872  0.3393 -0.1532  0.1587
    8SAPS  H11R  990   5.915   1.296   9.928  1.1936  1.2293 -2.3931
    8SAPS  C212  991   5.835   1.243   9.741 -0.7261 -0.4759 -0.6577
    8SAPS  H12R  992   5.896   1.317   9.687  0.7083 -1.4399 -0.3865
    8SAPS  C213  993   5.744   1.168   9.647 -0.2227  0.3464 -0.1537
    8SAPS  H13R  994   5.675   1.089   9.684 -0.6507  0.4968 -0.6142
    8SAPS  H13S  995   5.819   1.124   9.578 -1.0540 -2.9579  0.9561
    8SAPS  C214  996   5.661   1.270   9.567 -0.0108  0.1200 -0.8341
    8SAPS  H14R  997   5.616   1.348   9.629 -0.5602 -0.1634 -0.8688
    8SAPS  C215  998   5.652   1.284   9.434 -0.9822 -0.4861 -0.3309
    8SAPS  H15R  999   5.579   1.355   9.394 -1.0569  0.7202  1.8715
    8SAPS  C216 1000   5.720   1.197   9.331  0.3926 -0.3850 -0.8187
    8SAPS  H16R 1001   5.773   1.113   9.380 -1.6273 -1.4057 -0.3087
    8SAPS  H16S 1002   5.805   1.254   9.288 -0.0902  0.6589 -0.4098
    8SAPS  C217 1003   5.632   1.150   9.207 -0.1216 -0.0221 -0.4620
    8SAPS  H17R 1004   5.556   1.230   9.193 -0.4909  0.3126  2.9148
    8SAPS  H17S 1005   5.578   1.058   9.238  1.1682 -0.1886  1.4249
    8SAPS  C218 1006   5.715   1.141   9.073 -0.5493  0.9066 -0.0001
    8SAPS  H18R 1007   5.789   1.063   9.101 -1.3216  1.0805  2.6262
    8SAPS  H18S 1008   5.775   1.229   9.042 -0.1043  0.3238 -0.8380
    8SAPS  C219 1009   5.641   1.082   8.952  0.1356 -0.5412  0.3902
    8SAPS  H19R 1010   5.551   1.142   8.925  2.5798  1.9935 -2.4496
    8SAPS  H19S 1011   5.601   0.987   8.992  1.8358 -0.4492  2.4141
    8SAPS  C220 1012   5.715   1.052   8.822  0.2899  0.4974  0.9277
    8SAPS  H20R 1013   5.797   0.977   8.828  1.3511  1.3110 -2.3881
    8SAPS  H20S 1014   5.761   1.145   8.783  0.0241 -0.1081 -0.8935
    8SAPS  H20T 1015   5.654   1.013   8.738  1.1971 -0.8466  0.8771
    8SAPS   C33 1016   6.103   1.502  10.251 -0.0868 -0.0859  0.1485
    8SAPS   H3X 1017   6.193   1.565  10.270 -1.2918  1.8205 -0.3700
    8SAPS   H3Y 1018   6.034   1.499  10.338  1.3938  0.5454  1.3699
    8SAPS   C34 1019   6.027   1.547  10.125  0.1694 -0.1167 -0.6973
    8SAPS   H4X 1020   5.984   1.647  10.145 -0.1036 -0.3528 -0.0936
    8SAPS   H4Y 1021   5.940   1.478  10.118 -0.3530  0.3269  1.1338
    8SAPS   C35 1022   6.100   1.549   9.994  0.0199  0.0100  0.4354
    8SAPS   H5X 1023   6.139   1.446   9.983  0.2132  0.1507 -0.2295
    8SAPS   H5Y 1024   6.191   1.613   9.996  0.3730 -0.3600 -1.9215
    8SAPS   C36 1025   6.033   1.595   9.870  0.0022 -0.2619  0.0137
    8SAPS   H6X 1026   6.006   1.703   9.869  0.0422 -0.2547 -2.7042
    8SAPS   H6Y 1027   5.936   1.541   9.864 -0.3341  0.2434  0.7362
    8SAPS   C37 1028   6.117   1.557   9.754  0.0210  0.0471 -0.4996
    8SAPS   H7X 1029   6.168   1.459   9.771  1.8629  1.0549 -0.1361
    8SAPS   H7Y 1030   6.201   1.629   9.747 -0.2481  0.8147  3.1037
    8SAPS   C38 1031   6.050   1.548   9.614  0.5548  0.0364 -0.2190
    8SAPS   H8X 1032   6.042   1.653   9.580 -0.9964 -0.1068 -0.3334
    8SAPS   H8Y 1033   5.947   1.505   9.615 -0.4828  2.3979 -1.0343
    8SAPS   C39 1034   6.138   1.480   9.515  0.3242  0.9652  0.1427
    8SAPS   H9X 1035   6.147   1.376   9.553  0.1128  0.7798 -0.3070
    8SAPS   H9Y 1036   6.237   1.529   9.508  0.3864  0.8861  0.4441
    8SAPS  C310 1037   6.062   1.473   9.378  0.0338 -0.8437 -0.0884
    8SAPS  H10X 1038   6.047   1.576   9.339  2.9148 -0.0888  0.6747
    8SAPS  H10Y 1039   5.962   1.427   9.389  0.6862 -2.1179  0.6740
    8SAPS  C311 1040   6.144   1.412   9.269 -0.3570  0.6538 -0.1847
    8SAPS  H11X 1041   6.156   1.303   9.289  1.2298  0.9154  0.3616
    8SAPS  H11Y 1042   6.243   1.459   9.286 -0.5939  1.3313 -0.6784
    8SAPS  C312 1043   6.078   1.425   9.135 -0.8072  0.3295 -0.9099
    8SAPS  H12X 1044   6.112   1.521   9.089 -1.9168  1.0403 -0.2700
    8SAPS  H12Y 1045   5.973   1.442   9.164 -0.3928  1.9206 -0.2665
    8SAPS  C313 1046   6.102   1.310   9.037 -0.7068  0.0081  0.4319
    8SAPS  H13X 1047   6.059   1.341   8.940 -0.2695  0.0830  0.2629
    8SAPS  H13Y 1048   6.054   1.214   9.067  1.2228 -1.4373 -0.9861
    8SAPS  C314 1049   6.251   1.271   9.027  0.6325  0.2114 -0.5786
    8SAPS  H14X 1050   6.293   1.224   9.118  1.0166  0.3405 -0.6880
    8SAPS  H14Y 1051   6.288   1.375   9.012 -0.6693  0.5794 -1.2491
    8SAPS  C315 1052   6.281   1.181   8.902  0.0298 -0.2240 -0.2264
    8SAPS  H15X 1053   6.231   1.089   8.941  0.8097 -1.7661 -2.7371
    8SAPS  H15Y 1054   6.389   1.155   8.904  0.8041  2.7890 -0.3637
    8SAPS  C316 1055   6.216   1.224   8.771 -0.9035  0.2686  0.5036
    8SAPS  H16X 1056   6.216   1.335   8.764 -0.8501  0.2597  0.3651
    8SAPS  H16Y 1057   6.109   1.195   8.768 -1.3578  1.4180  3.4554
    8SAPS  C317 1058   6.300   1.171   8.656 -0.1554 -0.1063 -0.7197
    8SAPS  H17X 1059   6.296   1.060   8.656  0.5457 -0.1405 -2.1860
    8SAPS  H17Y 1060   6.407   1.193   8.672 -0.1122  0.4334 -1.7529
    8SAPS  C318 1061   6.253   1.225   8.521 -0.1042  0.0035 -0.4835
    8SAPS  H18X 1062   6.152   1.191   8.489  0.4182 -2.2251  0.1464
    8SAPS  H18Y 1063   6.312   1.185   8.437  0.9919  2.5951 -0.9919
    8SAPS  H18Z 1064   6.257   1.336   8.522 -1.6372  0.0761  1.5388
    9SAPS     N 1065   1.949   4.877   6.105 -0.6576  0.2758  0.5553
    9SAPS   HN1 1066   1.870   4.940   6.081 -1.4259 -1.8591 -2.7341
    9SAPS   HN2 1067   1.919   4.796   6.163 -0.4336 -0.3038 -0.1360
    9SAPS   HN3 1068   2.014   4.934   6.163  0.4263 -0.7998  0.4113
    9SAPS   C12 1069   2.016   4.822   5.987 -0.0835  0.3597 -0.1645
    9SAPS  H12A 1070   1.942   4.773   5.925 -1.1318  2.0587 -0.3056
    9SAPS   C13 1071   2.086   4.930   5.894 -0.0976 -0.3790 -0.1401
    9SAPS  O13A 1072   2.080   5.058   5.917 -0.1007 -0.5365  0.2462
    9SAPS  O13B 1073   2.141   4.888   5.789 -0.2752  0.0686  0.5913
    9SAPS   C11 1074   2.127   4.725   6.036  0.1693  0.2148 -0.0570
    9SAPS  H11A 1075   2.198   4.793   6.088  0.8392  0.7738 -1.6523
    9SAPS  H11B 1076   2.181   4.691   5.945  0.1372  2.2980 -0.8893
    9SAPS     P 1077   2.182   4.514   6.177  0.2814 -0.0265 -0.1091
    9SAPS   O13 1078   2.110   4.386   6.211 -0.1671  0.1317  0.4129
    9SAPS   O14 1079   2.281   4.480   6.074 -0.1391 -0.4064  0.3152
    9SAPS   O12 1080   2.076   4.621   6.123  0.1650 -0.3674 -0.1006
    9SAPS   O11 1081   2.251   4.585   6.305  0.3694 -0.6156 -0.3143
    9SAPS    C1 1082   2.171   4.587   6.428  0.6031 -0.3098 -0.7443
    9SAPS    HA 1083   2.094   4.662   6.401 -0.2219 -1.1175 -0.6501
    9SAPS    HB 1084   2.119   4.491   6.449  2.3611 -0.5700  2.7980
    9SAPS    C2 1085   2.257   4.618   6.555  0.8579 -0.0930  0.3585
    9SAPS    HS 1086   2.300   4.717   6.528 -0.2917  0.1640 -0.5613
    9SAPS   O21 1087   2.349   4.508   6.581  0.5270 -0.5805  0.5997
    9SAPS   C21 1088   2.466   4.548   6.630 -0.3426  0.7175  0.1103
    9SAPS   O22 1089   2.504   4.660   6.640 -0.0734 -0.4994 -0.2370
    9SAPS   C22 1090   2.543   4.429   6.681 -0.2150  0.5746 -0.1711
    9SAPS   H2R 1091   2.468   4.351   6.705 -0.3013  0.9220  0.7085
    9SAPS   H2S 1092   2.607   4.393   6.597 -2.2020 -1.8073 -0.7227
    9SAPS    C3 1093   2.157   4.642   6.677  0.3642  0.6027 -0.2210
    9SAPS    HX 1094   2.060   4.591   6.657  0.8000  0.1592 -1.2544
    9SAPS    HY 1095   2.132   4.750   6.677  0.5486  0.6782  2.2965
    9SAPS   O31 1096   2.214   4.602   6.803 -0.4424  0.0033  0.0676
    9SAPS   C31 1097   2.175   4.486   6.848 -0.4586 -1.0784  0.0234
    9SAPS   O32 1098   2.121   4.399   6.782 -0.3943 -0.0915 -0.1608
    9SAPS   C32 1099   2.207   4.474   6.997  0.0128  0.1413  0.1610
    9SAPS   H2X 1100   2.131   4.536   7.049  0.2788  1.7855 -1.3387
    9SAPS   H2Y 1101   2.311   4.504   7.020  0.1835 -1.4828  1.4960
    9SAPS   C23 1102   2.634   4.465   6.804 -0.2493 -0.8422 -0.0916
    9SAPS   H3R 1103   2.578   4.514   6.887  0.5435  0.8072 -0.5251
    9SAPS   H3S 1104   2.713   4.532   6.766  0.6432 -2.0050 -0.3151
    9SAPS   C24 1105   2.724   4.362   6.862  0.6174  0.3413 -0.4096
    9SAPS   H4R 1106   2.784   4.412   6.940  0.6699  1.4805 -1.1737
    9SAPS   H4S 1107   2.804   4.331   6.791 -1.1810 -2.7941 -1.1913
    9SAPS   C25 1108   2.634   4.253   6.908 -0.1754  0.3991  0.2958
    9SAPS   H5R 1109   2.604   4.181   6.831 -1.0427  0.0730  0.9376
    9SAPS   C26 1110   2.594   4.228   7.038 -0.0175 -0.0547  0.3535
    9SAPS   H6R 1111   2.526   4.143   7.054  0.4157 -0.0143  2.5882
    9SAPS   C27 1112   2.620   4.302   7.165 -0.1371 -0.9847  0.9944
    9SAPS   H7R 1113   2.528   4.320   7.226 -0.4014 -1.4331  0.7309
    9SAPS   H7S 1114   2.660   4.401   7.133  0.8758 -1.2242  1.4996
    9SAPS   C28 1115   2.729   4.234   7.241 -0.1658 -0.5030 -0.8968
    9SAPS   H8R 1116   2.823   4.219   7.186  1.6150 -2.2193  2.4413
    9SAPS   C29 1117   2.731   4.188   7.369 -0.1642 -0.1901  0.7197
    9SAPS   H9R 1118   2.820   4.133   7.405  0.1524 -0.2719 -0.1719
    9SAPS  C210 1119   2.616   4.202   7.469 -0.2480 -0.3287 -0.3773
    9SAPS  H10R 1120   2.617   4.114   7.538  1.9240  0.2831  0.4032
    9SAPS  H10S 1121   2.521   4.213   7.411 -0.7425 -0.6769  0.3523
    9SAPS  C211 1122   2.633   4.326   7.548 -0.2563  0.7765  0.1190
    9SAPS  H11R 1123   2.623   4.418   7.489 -0.4616 -0.8903 -2.5223
    9SAPS  C212 1124   2.616   4.341   7.679  0.1954  0.6691 -0.0920
    9SAPS  H12R 1125   2.656   4.434   7.724 -0.3365  1.5750 -1.4423
    9SAPS  C213 1126   2.580   4.226   7.774 -0.3170 -0.1031  0.3012
    9SAPS  H13R 1127   2.502   4.177   7.712  1.3163  1.2538 -2.9640
    9SAPS  H13S 1128   2.532   4.265   7.866  3.1556 -0.7964  2.5171
    9SAPS  C214 1129   2.689   4.129   7.816 -0.0918 -0.8652  0.1869
    9SAPS  H14R 1130   2.754   4.101   7.732  2.5611 -1.4777  2.3440
    9SAPS  C215 1131   2.735   4.094   7.938  0.7772 -0.0663  0.7433
    9SAPS  H15R 1132   2.834   4.046   7.938  1.1742  0.7131 -1.1002
    9SAPS  C216 1133   2.671   4.144   8.068  1.1026  0.1747  0.0504
    9SAPS  H16R 1134   2.710   4.082   8.152  0.5268  0.2612  0.3873
    9SAPS  H16S 1135   2.561   4.137   8.060  1.0304 -1.5639  2.0115
    9SAPS  C217 1136   2.716   4.285   8.093  0.2848  0.2709  0.0561
    9SAPS  H17R 1137   2.649   4.330   8.170  0.7678  1.3898 -0.1778
    9SAPS  H17S 1138   2.719   4.356   8.008 -0.2023  1.1242  0.7413
    9SAPS  C218 1139   2.851   4.278   8.167 -0.2912  0.6377  0.6529
    9SAPS  H18R 1140   2.904   4.366   8.125  0.9108 -0.7108 -0.6860
    9SAPS  H18S 1141   2.911   4.192   8.132  0.2129  1.7226 -1.2460
    9SAPS  C219 1142   2.850   4.287   8.318 -0.0977 -0.0220 -0.3957
    9SAPS  H19R 1143   2.817   4.188   8.357 -1.1119  0.2602 -0.5228
    9SAPS  H19S 1144   2.791   4.373   8.357  1.9413  0.5230  1.5785
    9SAPS  C220 1145   2.986   4.310   8.380 -0.5253 -0.0288  0.7781
    9SAPS  H20R 1146   2.984   4.291   8.489 -0.5290  1.4192  1.0353
    9SAPS  H20S 1147   3.027   4.408   8.348  0.0167 -0.5903 -0.2904
    9SAPS  H20T 1148   3.058   4.232   8.345 -0.8331  0.5702 -1.2337
    9SAPS   C33 1149   2.188   4.335   7.057  0.6076  0.4353 -0.3119
    9SAPS   H3X 1150   2.260   4.266   7.007  0.9677  0.7275 -0.1955
    9SAPS   H3Y 1151   2.087   4.295   7.035  0.6144  0.0874  0.2739
    9SAPS   C34 1152   2.214   4.326   7.205 -0.6023 -0.0422 -0.1270
    9SAPS   H4X 1153   2.132   4.375   7.261 -2.1834  1.3367 -3.4924
    9SAPS   H4Y 1154   2.304   4.386   7.230 -2.1184  2.1465  0.1762
    9SAPS   C35 1155   2.217   4.178   7.262  0.0319 -0.5004 -0.7107
    9SAPS   H5X 1156   2.308   4.133   7.216 -0.3856 -0.8884 -1.1735
    9SAPS   H5Y 1157   2.135   4.119   7.215 -1.5456  1.2264 -0.1937
    9SAPS   C36 1158   2.222   4.163   7.413 -0.1152 -0.6493 -0.5502
    9SAPS   H6X 1159   2.118   4.184   7.445  0.7447  0.1652  1.7993
    9SAPS   H6Y 1160   2.295   4.236   7.455  0.3269 -1.0449 -0.6193
    9SAPS   C37 1161   2.270   4.023   7.460 -0.2276  0.5837 -0.5940
    9SAPS   H7X 1162   2.371   4.005   7.416  0.6909 -0.7381  1.9810
    9SAPS   H7Y 1163   2.201   3.947   7.418  0.1379 -1.3242  2.1199
    9SAPS   C38 1164   2.268   3.999   7.610  0.5427  0.3871  0.3122
    9SAPS   H8X 1165   2.323   4.085   7.653 -0.4540  2.0394 -1.6535
    9SAPS   H8Y 1166   2.325   3.911   7.647 -1.1301 -0.2976  1.3365
    9SAPS   C39 1167   2.130   3.998   7.667 -1.2923 -0.3008  0.6479
    9SAPS   H9X 1168   2.079   3.902   7.648 -0.7974 -0.6270  0.9681
    9SAPS   H9Y 1169   2.066   4.082   7.632 -0.9435  0.8112  2.5880
    9SAPS  C310 1170   2.133   4.024   7.823  0.8294  0.2836  0.4028
    9SAPS  H10X 1171   2.182   4.123   7.833  1.9533 -0.2028 -0.1978
    9SAPS  H10Y 1172   2.184   3.945   7.882  0.9564 -0.2825 -0.4467
    9SAPS  C311 1173   1.997   4.037   7.881 -0.1124  0.1263 -0.3452
    9SAPS  H11X 1174   1.946   3.938   7.884  0.7062 -0.3227 -1.1444
    9SAPS  H11Y 1175   1.942   4.110   7.818  0.3639  0.9460  0.1787
    9SAPS  C312 1176   1.991   4.079   8.026 -0.1872 -0.4089  0.3403
    9SAPS  H12X 1177   1.889   4.107   8.060  0.2177  0.0642  1.1870
    9SAPS  H12Y 1178   2.048   4.174   8.033 -1.8883  0.8556 -2.1189
    9SAPS  C313 1179   2.051   3.972   8.111  0.4565  0.2733  0.1477
    9SAPS  H13X 1180   2.160   3.967   8.091  0.5134 -0.2424  0.5755
    9SAPS  H13Y 1181   2.002   3.876   8.085 -1.5620  1.2289  0.2436
    9SAPS  C314 1182   2.028   3.986   8.256  0.5039 -0.5217  0.8045
    9SAPS  H14X 1183   2.046   3.891   8.309 -2.5944 -0.1821  2.6226
    9SAPS  H14Y 1184   1.919   3.996   8.275  0.4565 -0.4762  0.5181
    9SAPS  C315 1185   2.113   4.087   8.337 -0.0187 -0.3715  0.3901
    9SAPS  H15X 1186   2.070   4.080   8.439  2.1856  2.5811  1.6008
    9SAPS  H15Y 1187   2.083   4.191   8.310 -1.4484 -1.1354 -1.0060
    9SAPS  C316 1188   2.266   4.062   8.330  0.3521 -0.0212 -0.0582
    9SAPS  H16X 1189   2.300   4.041   8.227  1.2095  0.0572  0.2018
    9SAPS  H16Y 1190   2.278   3.966   8.384 -1.8550 -0.7596 -0.8168
    9SAPS  C317 1191   2.350   4.177   8.381 -0.0089 -0.0141 -0.0379
    9SAPS  H17X 1192   2.320   4.274   8.334 -1.4267 -1.0371 -1.3006
    9SAPS  H17Y 1193   2.453   4.156   8.347 -0.2929 -0.3655 -0.6943
    9SAPS  C318 1194   2.345   4.167   8.534 -0.2029 -0.1611  0.6444
    9SAPS  H18X 1195   2.244   4.150   8.577 -0.1365 -0.7525  0.5660
    9SAPS  H18Y 1196   2.395   4.256   8.579 -0.2238  0.9561 -1.4741
    9SAPS  H18Z 1197   2.412   4.085   8.565  0.3848 -0.1935 -0.7018
   10SAPS     N 1198   2.463   3.256   6.273  0.5258 -0.1745 -0.3924
   10SAPS   HN1 1199   2.421   3.209   6.190 -0.5473  0.3277 -0.1365
   10SAPS   HN2 1200   2.501   3.187   6.341  0.3036  0.9686  0.8972
   10SAPS   HN3 1201   2.375   3.290   6.317  1.7931  0.1658  1.9592
   10SAPS   C12 1202   2.542   3.372   6.231  0.3955 -0.5438 -0.0175
   10SAPS  H12A 1203   2.608   3.401   6.311 -1.3099  0.0912  1.1797
   10SAPS   C13 1204   2.625   3.362   6.102 -0.4638 -0.1022 -0.4589
   10SAPS  O13A 1205   2.637   3.260   6.037 -0.6108  0.3209  0.4190
   10SAPS  O13B 1206   2.709   3.459   6.084  0.4833 -0.3432  0.6634
   10SAPS   C11 1207   2.443   3.493   6.223 -0.2974 -0.4937  0.1655
   10SAPS  H11A 1208   2.398   3.479   6.122  0.5864  1.7786 -0.5799
   10SAPS  H11B 1209   2.497   3.588   6.199 -0.4684 -1.0885 -2.7825
   10SAPS     P 1210   2.381   3.512   6.481 -0.0137 -0.2537 -0.1780
   10SAPS   O13 1211   2.285   3.613   6.539 -0.8091  0.2061  0.2301
   10SAPS   O14 1212   2.377   3.370   6.520 -0.1561  0.0397 -0.3132
   10SAPS   O12 1213   2.344   3.491   6.323 -0.5254 -0.4713  0.6668
   10SAPS   O11 1214   2.526   3.558   6.476  0.2256  0.2132 -0.0550
   10SAPS    C1 1215   2.638   3.506   6.554  0.2709  1.1618 -0.0348
   10SAPS    HA 1216   2.638   3.395   6.563 -1.2769  1.3441  2.4269
   10SAPS    HB 1217   2.734   3.531   6.504  0.0364  1.1395 -0.4985
   10SAPS    C2 1218   2.649   3.566   6.698  0.0075 -1.0286  0.2626
   10SAPS    HS 1219   2.748   3.530   6.733  1.6548  0.4854 -2.5984
   10SAPS   O21 1220   2.543   3.535   6.783 -0.2275 -0.2026  0.0680
   10SAPS   C21 1221   2.547   3.422   6.849  0.6257  0.1618 -0.2124
   10SAPS   O22 1222   2.636   3.339   6.853  0.3376 -0.3596  0.2859
   10SAPS   C22 1223   2.414   3.398   6.918 -0.6863  0.3974  0.3894
   10SAPS   H2R 1224   2.425   3.431   7.024 -0.1316 -1.1855  0.8415
   10SAPS   H2S 1225   2.331   3.463   6.884  1.3207  2.7499 -0.1998
   10SAPS    C3 1226   2.659   3.714   6.678 -0.0826  0.8352  0.5186
   10SAPS    HX 1227   2.561   3.766   6.668 -0.0047  1.2125  1.6845
   10SAPS    HY 1228   2.718   3.736   6.587  1.2929  0.6731  1.3582
   10SAPS   O31 1229   2.733   3.760   6.786 -0.4761  0.1336 -0.1785
   10SAPS   C31 1230   2.744   3.892   6.797  0.5293 -0.2248 -0.4140
   10SAPS   O32 1231   2.667   3.967   6.740 -0.1239 -0.3608 -0.1196
   10SAPS   C32 1232   2.843   3.938   6.906  0.0101  0.4441  0.0318
   10SAPS   H2X 1233   2.824   4.046   6.922 -3.8878 -0.1937  0.2861
   10SAPS   H2Y 1234   2.941   3.908   6.864 -0.2182 -3.6878  2.1360
   10SAPS   C23 1235   2.374   3.253   6.910  0.3410 -0.5880  0.2329
   10SAPS   H3R 1236   2.458   3.184   6.933  1.3613  1.2820  2.1970
   10SAPS   H3S 1237   2.330   3.237   6.809 -1.2108 -2.7565  1.2044
   10SAPS   C24 1238   2.245   3.238   6.991  0.1634  0.0917 -0.0846
   10SAPS   H4R 1239   2.163   3.273   6.924 -2.6966 -1.1976  2.6107
   10SAPS   H4S 1240   2.239   3.302   7.082  1.8935  1.1042 -0.6699
   10SAPS   C25 1241   2.227   3.092   7.028 -0.1629 -0.4960  0.0601
   10SAPS   H5R 1242   2.199   3.025   6.945  0.0508  1.0546 -1.2989
   10SAPS   C26 1243   2.256   3.032   7.147 -0.1188  0.5608  0.0426
   10SAPS   H6R 1244   2.231   2.925   7.155  2.5834 -0.1139 -0.0083
   10SAPS   C27 1245   2.313   3.096   7.272 -0.1087 -0.1308 -0.0877
   10SAPS   H7R 1246   2.392   3.164   7.234  2.2891 -1.7815  1.8057
   10SAPS   H7S 1247   2.368   3.026   7.339  0.8010 -0.0478 -0.7338
   10SAPS   C28 1248   2.200   3.167   7.353 -0.7672  1.0632  0.1274
   10SAPS   H8R 1249   2.110   3.187   7.292 -0.0264 -1.9565 -2.0979
   10SAPS   C29 1250   2.207   3.225   7.472 -0.3999  0.2588 -0.8884
   10SAPS   H9R 1251   2.113   3.266   7.510  0.2299 -0.4751  1.5404
   10SAPS  C210 1252   2.317   3.241   7.574  0.4694  0.2522 -0.2970
   10SAPS  H10R 1253   2.336   3.344   7.610  1.5660 -0.1102  0.1653
   10SAPS  H10S 1254   2.413   3.219   7.524  0.8836 -0.9418  0.9932
   10SAPS  C211 1255   2.312   3.138   7.683  0.4087 -0.5235  0.8956
   10SAPS  H11R 1256   2.294   3.036   7.648 -0.0611 -0.2488  0.3367
   10SAPS  C212 1257   2.316   3.164   7.808  0.0060 -0.2588  0.1786
   10SAPS  H12R 1258   2.309   3.081   7.879  0.2655  0.1333  0.6687
   10SAPS  C213 1259   2.335   3.284   7.879 -0.9268 -0.1976 -0.4391
   10SAPS  H13R 1260   2.290   3.367   7.820  1.2004 -0.1212 -2.0105
   10SAPS  H13S 1261   2.446   3.296   7.879 -0.8752 -0.6978  0.2356
   10SAPS  C214 1262   2.267   3.271   8.012  0.2878 -0.1420  0.0136
   10SAPS  H14R 1263   2.159   3.287   8.009  0.6345  2.2693 -0.6265
   10SAPS  C215 1264   2.321   3.257   8.137 -0.7519  0.0785 -0.2356
   10SAPS  H15R 1265   2.251   3.234   8.219  1.2260 -0.8885  1.2351
   10SAPS  C216 1266   2.463   3.244   8.184 -0.1566 -0.0947  0.1149
   10SAPS  H16R 1267   2.477   3.323   8.262 -0.0713 -0.0705  0.0747
   10SAPS  H16S 1268   2.526   3.246   8.093 -2.5280 -2.7152 -1.6639
   10SAPS  C217 1269   2.498   3.118   8.259 -0.2205  0.3813 -0.1636
   10SAPS  H17R 1270   2.447   3.108   8.358  0.8454  1.4194  0.5060
   10SAPS  H17S 1271   2.605   3.100   8.280 -0.1472  2.3133  1.1920
   10SAPS  C218 1272   2.450   2.980   8.201  0.9412  0.0464 -0.0207
   10SAPS  H18R 1273   2.487   2.956   8.099  2.5489  1.5317  0.1811
   10SAPS  H18S 1274   2.340   2.994   8.206  0.9591  0.3769 -0.4588
   10SAPS  C219 1275   2.494   2.855   8.292  0.0083  0.3060 -0.8519
   10SAPS  H19R 1276   2.472   2.885   8.397 -0.7032  0.6552 -1.1059
   10SAPS  H19S 1277   2.604   2.868   8.299 -0.0500  0.1761  0.4418
   10SAPS  C220 1278   2.437   2.716   8.258  0.0004 -0.5077 -0.3193
   10SAPS  H20R 1279   2.327   2.704   8.261 -0.1616  0.9991  4.4647
   10SAPS  H20S 1280   2.449   2.637   8.336  2.4442  1.0831  1.0082
   10SAPS  H20T 1281   2.488   2.688   8.163  0.0439  0.5300 -0.6140
   10SAPS   C33 1282   2.828   3.857   7.038  0.1993 -0.0680  1.1614
   10SAPS   H3X 1283   2.828   3.747   7.019  0.2305 -0.6167  4.1448
   10SAPS   H3Y 1284   2.737   3.893   7.088  1.0016  1.4478  1.5578
   10SAPS   C34 1285   2.944   3.874   7.136 -0.2976  0.4401 -0.3311
   10SAPS   H4X 1286   2.981   3.978   7.138 -0.4453  0.4842  0.3589
   10SAPS   H4Y 1287   3.023   3.809   7.093 -1.1142 -0.9346  0.2010
   10SAPS   C35 1288   2.901   3.827   7.274 -0.2264 -0.2083  1.0087
   10SAPS   H5X 1289   2.854   3.726   7.270  0.8837 -0.6966  0.0419
   10SAPS   H5Y 1290   2.814   3.891   7.299  1.4471  2.3247  0.5162
   10SAPS   C36 1291   3.009   3.830   7.391 -0.4626 -0.8722  0.8981
   10SAPS   H6X 1292   3.073   3.920   7.386 -2.0263  0.1774 -0.7558
   10SAPS   H6Y 1293   3.071   3.738   7.388 -0.4227 -0.8744  1.5949
   10SAPS   C37 1294   2.948   3.829   7.530  0.0907  0.4763  0.2150
   10SAPS   H7X 1295   2.876   3.745   7.526  1.0277 -0.3600  0.6525
   10SAPS   H7Y 1296   2.893   3.922   7.555 -4.1477 -1.9262  0.3002
   10SAPS   C38 1297   3.044   3.805   7.649 -0.6384  0.1934 -0.6798
   10SAPS   H8X 1298   3.115   3.886   7.677 -0.8146  0.2714 -0.4622
   10SAPS   H8Y 1299   3.103   3.719   7.611 -0.5333 -1.7384  3.5730
   10SAPS   C39 1300   2.975   3.769   7.785 -0.0460  0.1494  0.2312
   10SAPS   H9X 1301   2.920   3.673   7.774  1.9145 -0.9999  0.0985
   10SAPS   H9Y 1302   2.901   3.846   7.813 -0.7653 -1.2909  2.3698
   10SAPS  C310 1303   3.066   3.755   7.904  0.5988 -0.4372  0.0274
   10SAPS  H10X 1304   3.093   3.856   7.942 -2.1532  1.2703 -2.3471
   10SAPS  H10Y 1305   3.165   3.717   7.870  0.3354 -3.0334  2.0274
   10SAPS  C311 1306   3.016   3.685   8.027 -0.3514 -0.1231 -0.8555
   10SAPS  H11X 1307   3.006   3.577   8.003 -1.1236  0.3477 -2.7113
   10SAPS  H11Y 1308   2.914   3.722   8.050  0.1560  0.5743  0.3299
   10SAPS  C312 1309   3.098   3.696   8.157  0.0069 -0.1296 -1.0853
   10SAPS  H12X 1310   3.084   3.798   8.201 -0.5438 -0.0668 -1.4030
   10SAPS  H12Y 1311   3.206   3.690   8.130  0.3254  0.0996  0.0652
   10SAPS  C313 1312   3.067   3.592   8.271 -0.2668  0.3700 -0.5008
   10SAPS  H13X 1313   3.084   3.488   8.238 -1.1711 -0.5846  1.9550
   10SAPS  H13Y 1314   2.959   3.592   8.299 -0.3584 -1.1674 -0.8330
   10SAPS  C314 1315   3.141   3.620   8.406 -0.5579 -0.6991 -0.0542
   10SAPS  H14X 1316   3.102   3.719   8.439  0.0050  0.1796 -1.9828
   10SAPS  H14Y 1317   3.246   3.648   8.384 -0.7876  0.0546 -0.1920
   10SAPS  C315 1318   3.127   3.508   8.509  0.2235 -0.0068 -0.2853
   10SAPS  H15X 1319   3.146   3.409   8.464  1.4078  0.3693 -0.6313
   10SAPS  H15Y 1320   3.019   3.500   8.534 -0.2171  0.3883 -1.9809
   10SAPS  C316 1321   3.215   3.526   8.628 -0.1839  0.4741 -0.0036
   10SAPS  H16X 1322   3.321   3.542   8.598  0.5963 -0.1744  2.2905
   10SAPS  H16Y 1323   3.205   3.439   8.696 -1.4752  1.7267  1.4684
   10SAPS  C317 1324   3.173   3.651   8.707  0.4453 -0.4750 -0.6584
   10SAPS  H17X 1325   3.065   3.641   8.733  0.7915 -1.4077  0.4749
   10SAPS  H17Y 1326   3.174   3.737   8.637  1.0722 -1.0264 -1.3320
   10SAPS  C318 1327   3.269   3.683   8.822 -0.0236  0.0476  0.0399
   10SAPS  H18X 1328   3.259   3.598   8.892  3.0058  1.2787  2.0520
   10SAPS  H18Y 1329   3.246   3.771   8.884 -2.3040 -0.6505  0.2096
   10SAPS  H18Z 1330   3.374   3.695   8.786 -0.5855  2.3212 -0.9245
   11SAPS     N 1331   4.450   5.836   5.560 -0.5599  0.1907  0.6819
   11SAPS   HN1 1332   4.407   5.848   5.466 -0.3400 -0.1545  0.5389
   11SAPS   HN2 1333   4.482   5.929   5.594 -0.8981  0.6129 -0.1475
   11SAPS   HN3 1334   4.522   5.762   5.548 -1.7619 -1.0417  0.9523
   11SAPS   C12 1335   4.347   5.787   5.655  0.7178  0.3758 -0.4593
   11SAPS  H12A 1336   4.263   5.851   5.634  2.5725  2.0167 -3.1625
   11SAPS   C13 1337   4.310   5.642   5.636 -0.8251 -0.1277 -0.3916
   11SAPS  O13A 1338   4.350   5.587   5.534 -0.3374  0.4206 -0.6329
   11SAPS  O13B 1339   4.226   5.588   5.712 -0.2633  0.1292 -0.2586
   11SAPS   C11 1340   4.399   5.791   5.800 -0.0079  0.2106  0.4525
   11SAPS  H11A 1341   4.483   5.718   5.808 -1.0963 -1.0252  0.8005
   11SAPS  H11B 1342   4.315   5.775   5.871  1.4485 -1.7292  1.7977
   11SAPS     P 1343   4.570   5.931   5.925 -0.2418 -0.1903  0.1523
   11SAPS   O13 1344   4.679   5.849   5.869  0.0625 -0.0645  0.1968
   11SAPS   O14 1345   4.607   6.074   5.952 -0.2436 -0.2969  0.1604
   11SAPS   O12 1346   4.448   5.925   5.821 -0.7440 -0.2073  0.6525
   11SAPS   O11 1347   4.508   5.854   6.048  0.3517  0.3150 -0.6589
   11SAPS    C1 1348   4.426   5.902   6.155  0.3304  0.1518  0.4664
   11SAPS    HA 1349   4.460   6.002   6.191 -0.4327  0.1609  1.1721
   11SAPS    HB 1350   4.319   5.908   6.126  0.2378 -1.1886  0.5289
   11SAPS    C2 1351   4.449   5.814   6.277 -0.0163  0.1847 -1.0757
   11SAPS    HS 1352   4.440   5.707   6.248  2.6799  0.1115 -1.7358
   11SAPS   O21 1353   4.351   5.855   6.378  0.0660 -0.1910 -0.4556
   11SAPS   C21 1354   4.302   5.755   6.452  0.2288 -0.3497  0.5115
   11SAPS   O22 1355   4.342   5.641   6.457  0.6220 -0.9522 -0.5403
   11SAPS   C22 1356   4.196   5.813   6.537 -0.5902 -0.4482 -0.4211
   11SAPS   H2R 1357   4.234   5.904   6.589  2.0110 -0.2326 -2.5848
   11SAPS   H2S 1358   4.128   5.865   6.466  3.1341  0.0540 -3.7865
   11SAPS    C3 1359   4.593   5.826   6.333  0.7111  0.7602  0.4064
   11SAPS    HX 1360   4.660   5.792   6.251  2.8334 -0.0043  2.4024
   11SAPS    HY 1361   4.596   5.749   6.414  0.2623  0.9363  0.5955
   11SAPS   O31 1362   4.628   5.955   6.378 -0.2375  0.0153  0.6392
   11SAPS   C31 1363   4.595   5.988   6.501 -0.4361  0.1099 -0.0348
   11SAPS   O32 1364   4.539   5.918   6.579 -0.4603 -0.2536  0.0695
   11SAPS   C32 1365   4.637   6.131   6.516 -0.1390  0.0469  0.4755
   11SAPS   H2X 1366   4.589   6.193   6.437  0.5786 -1.5941 -1.2759
   11SAPS   H2Y 1367   4.745   6.134   6.489 -0.0910 -0.0451  0.6496
   11SAPS   C23 1368   4.133   5.720   6.640 -0.0275  0.1706 -0.6518
   11SAPS   H3R 1369   4.217   5.667   6.689  2.3069  1.6363 -2.9042
   11SAPS   H3S 1370   4.062   5.652   6.588 -1.0779 -1.5170  2.8531
   11SAPS   C24 1371   4.068   5.799   6.764  0.0425 -0.1635 -0.0003
   11SAPS   H4R 1372   4.151   5.845   6.821 -1.2080 -0.5457  2.1774
   11SAPS   H4S 1373   4.017   5.723   6.828  1.0413  1.2703  2.5612
   11SAPS   C25 1374   3.968   5.895   6.715 -0.1033 -0.0708  0.2617
   11SAPS   H5R 1375   3.928   5.877   6.614  3.0298 -1.2266 -0.8364
   11SAPS   C26 1376   3.934   6.004   6.788  0.2309 -0.1223  0.3036
   11SAPS   H6R 1377   3.879   6.086   6.740  1.3061 -1.2819 -3.0723
   11SAPS   C27 1378   3.974   6.036   6.937  0.5127  0.2089  0.0842
   11SAPS   H7R 1379   3.966   5.937   6.987  0.4271  1.2129  2.0938
   11SAPS   H7S 1380   3.900   6.107   6.981  2.2363  1.1556  1.5282
   11SAPS   C28 1381   4.111   6.085   6.953 -0.0965  0.3978 -0.1247
   11SAPS   H8R 1382   4.171   6.052   6.867  1.3099 -0.0648  1.0023
   11SAPS   C29 1383   4.159   6.152   7.058 -0.1107 -0.2385  0.5384
   11SAPS   H9R 1384   4.267   6.172   7.060  0.0304 -0.8652 -0.4856
   11SAPS  C210 1385   4.092   6.195   7.182  0.0363  0.3409  0.4612
   11SAPS  H10R 1386   4.124   6.123   7.260 -2.7258 -0.5005  0.8747
   11SAPS  H10S 1387   3.985   6.187   7.156  0.5561 -1.2414 -1.3041
   11SAPS  C211 1388   4.119   6.337   7.228  0.9785  0.4299 -0.1864
   11SAPS  H11R 1389   4.094   6.412   7.152 -1.5935 -1.3378 -1.1531
   11SAPS  C212 1390   4.169   6.372   7.346 -0.2993  1.1979 -0.8854
   11SAPS  H12R 1391   4.178   6.480   7.365 -0.0330  0.9386  0.4835
   11SAPS  C213 1392   4.205   6.294   7.470  0.0292  0.2621 -0.4733
   11SAPS  H13R 1393   4.283   6.340   7.534 -0.7841  1.1732 -0.1333
   11SAPS  H13S 1394   4.252   6.200   7.434 -1.6266 -0.2114 -1.4512
   11SAPS  C214 1395   4.092   6.247   7.561  0.1463  0.2755 -0.5314
   11SAPS  H14R 1396   4.013   6.189   7.511  2.3384 -1.1042 -2.5362
   11SAPS  C215 1397   4.078   6.268   7.692 -0.1472  0.3108 -0.7093
   11SAPS  H15R 1398   3.985   6.227   7.734  0.0941 -0.4525 -0.9079
   11SAPS  C216 1399   4.169   6.341   7.785 -0.4125  0.5847 -0.3768
   11SAPS  H16R 1400   4.111   6.429   7.820  0.7248  0.3251  2.2965
   11SAPS  H16S 1401   4.261   6.385   7.743  1.1055 -0.6175  1.5576
   11SAPS  C217 1402   4.196   6.259   7.907 -0.3061  0.5059 -0.3751
   11SAPS  H17R 1403   4.226   6.153   7.893  0.2246  0.4188  1.3040
   11SAPS  H17S 1404   4.102   6.254   7.967 -1.0531 -0.9603 -1.6280
   11SAPS  C218 1405   4.296   6.327   8.008  0.0058 -0.3377  1.0124
   11SAPS  H18R 1406   4.307   6.438   8.002 -0.9695 -0.2626  0.4876
   11SAPS  H18S 1407   4.390   6.293   7.960 -0.8419 -0.2030 -0.7807
   11SAPS  C219 1408   4.285   6.285   8.158  0.3371 -0.6256  0.8385
   11SAPS  H19R 1409   4.309   6.176   8.168 -0.2262 -0.8746 -0.4763
   11SAPS  H19S 1410   4.179   6.299   8.187 -0.8084 -2.0898 -2.4871
   11SAPS  C220 1411   4.377   6.360   8.247  0.1746 -1.0018  0.2027
   11SAPS  H20R 1412   4.395   6.303   8.340  0.6992 -0.6080  0.3487
   11SAPS  H20S 1413   4.321   6.452   8.272  1.8153 -0.0463  0.4532
   11SAPS  H20T 1414   4.475   6.375   8.197  0.7816 -1.1227  1.3547
   11SAPS   C33 1415   4.615   6.190   6.663 -0.2408 -0.6290 -0.3259
   11SAPS   H3X 1416   4.532   6.132   6.709 -2.7310  0.3832 -3.3297
   11SAPS   H3Y 1417   4.590   6.297   6.652 -1.0883 -0.6752  1.0301
   11SAPS   C34 1418   4.746   6.176   6.748 -0.3654  0.3195  0.5554
   11SAPS   H4X 1419   4.832   6.203   6.683 -1.1098  0.0866 -0.5436
   11SAPS   H4Y 1420   4.763   6.069   6.769  2.6485  0.6443  0.0399
   11SAPS   C35 1421   4.747   6.254   6.875 -0.1601  0.2524 -0.2802
   11SAPS   H5X 1422   4.644   6.269   6.914  1.5319  0.7035  4.2679
   11SAPS   H5Y 1423   4.777   6.360   6.858  0.0999  0.0932 -0.8422
   11SAPS   C36 1424   4.834   6.191   6.987 -0.2636 -1.5110 -0.2855
   11SAPS   H6X 1425   4.938   6.202   6.950  0.1903  1.9667  1.7638
   11SAPS   H6Y 1426   4.805   6.084   6.983 -0.7226 -1.3638 -0.9057
   11SAPS   C37 1427   4.832   6.271   7.119  0.1670  0.0526  0.3414
   11SAPS   H7X 1428   4.728   6.281   7.157  0.7127  2.5007  1.3115
   11SAPS   H7Y 1429   4.863   6.376   7.096  2.1830 -0.3717  0.9893
   11SAPS   C38 1430   4.917   6.216   7.223  0.3169  0.1435  0.2956
   11SAPS   H8X 1431   5.022   6.205   7.185  0.7797 -0.8158  1.8301
   11SAPS   H8Y 1432   4.889   6.109   7.238 -3.6218  1.0682 -0.0351
   11SAPS   C39 1433   4.914   6.290   7.360  0.1885  0.3617  0.4993
   11SAPS   H9X 1434   4.810   6.298   7.399 -0.2446 -1.1055 -0.3106
   11SAPS   H9Y 1435   4.958   6.392   7.347 -2.7526  1.8879  2.0080
   11SAPS  C310 1436   5.005   6.213   7.460  0.2293  0.7204  0.3894
   11SAPS  H10X 1437   5.102   6.185   7.412  0.6489  1.3926  0.8414
   11SAPS  H10Y 1438   4.951   6.120   7.486 -0.1879  0.9087  0.2095
   11SAPS  C311 1439   5.028   6.282   7.592 -0.0804  0.1896  0.4931
   11SAPS  H11X 1440   5.067   6.385   7.572 -2.1687  0.4347 -2.6105
   11SAPS  H11Y 1441   5.115   6.234   7.642  0.7512 -1.5072 -2.4659
   11SAPS  C312 1442   4.918   6.296   7.686 -0.0654  0.1170  1.0033
   11SAPS  H12X 1443   4.836   6.224   7.662  1.0460 -0.9289  0.2751
   11SAPS  H12Y 1444   4.871   6.396   7.683 -0.6164 -0.1302  1.3859
   11SAPS  C313 1445   4.958   6.273   7.835  0.3869 -0.1142 -0.5986
   11SAPS  H13X 1446   5.022   6.183   7.840 -1.0576 -1.1193  0.4367
   11SAPS  H13Y 1447   4.863   6.261   7.893  0.0843 -2.1825 -1.4879
   11SAPS  C314 1448   5.031   6.397   7.891  0.4682 -0.0960 -0.6318
   11SAPS  H14X 1449   4.956   6.474   7.864 -1.1668 -0.8330  1.6556
   11SAPS  H14Y 1450   5.121   6.416   7.828 -0.4829  1.6250 -1.5052
   11SAPS  C315 1451   5.041   6.397   8.046  0.5387 -0.2825  0.3707
   11SAPS  H15X 1452   5.126   6.327   8.062  2.2336  1.5155 -0.4876
   11SAPS  H15Y 1453   4.949   6.376   8.104 -1.1705  1.6268 -1.5494
   11SAPS  C316 1454   5.084   6.536   8.099  0.1905 -0.9386  0.1505
   11SAPS  H16X 1455   5.014   6.614   8.064  1.4847  0.3317  0.3211
   11SAPS  H16Y 1456   5.182   6.564   8.056 -0.5205  2.7700  0.8201
   11SAPS  C317 1457   5.081   6.543   8.253 -0.2289 -0.2493 -0.3378
   11SAPS  H17X 1458   5.144   6.460   8.292  2.4656  2.0672  0.4023
   11SAPS  H17Y 1459   4.976   6.520   8.282  0.2603 -0.8265  0.9823
   11SAPS  C318 1460   5.136   6.679   8.311 -0.7385 -0.2517 -0.3296
   11SAPS  H18X 1461   5.111   6.693   8.418 -0.0679 -0.9102 -0.0748
   11SAPS  H18Y 1462   5.113   6.766   8.246  2.4647  2.1523  1.5701
   11SAPS  H18Z 1463   5.244   6.661   8.290 -0.9081 -0.2917 -1.1636
   12SAPS     N 1464   3.268   1.005   5.934  0.0486 -0.2220  0.0285
   12SAPS   HN1 1465   3.309   0.918   5.973  1.7819 -0.0213 -1.2548
   12SAPS   HN2 1466   3.177   1.028   5.976  0.6583  3.4499 -0.4963
   12SAPS   HN3 1467   3.257   0.994   5.831 -3.0397  0.4427  0.2673
   12SAPS   C12 1468   3.367   1.107   5.952  0.6906 -0.0822 -0.3173
   12SAPS  H12A 1469   3.458   1.079   5.901 -0.9213 -1.7194 -2.3366
   12SAPS   C13 1470   3.330   1.252   5.898 -0.2290  0.5247  0.2163
   12SAPS  O13A 1471   3.236   1.261   5.815  0.0077 -0.7602 -0.0457
   12SAPS  O13B 1472   3.414   1.347   5.906  0.3397  0.0533 -0.4960
   12SAPS   C11 1473   3.406   1.108   6.102  0.1779 -0.7492  0.1998
   12SAPS  H11A 1474   3.320   1.146   6.161 -2.0220  0.9451 -3.8635
   12SAPS  H11B 1475   3.489   1.175   6.133 -1.8069  0.4403  3.2090
   12SAPS     P 1476   3.576   0.922   6.156  0.3661 -0.1875 -0.0986
   12SAPS   O13 1477   3.576   0.785   6.211 -0.3070 -0.1816  0.0365
   12SAPS   O14 1478   3.652   0.937   6.028 -0.4406  0.8126  0.4029
   12SAPS   O12 1479   3.427   0.977   6.147 -0.1509 -0.0963  1.0517
   12SAPS   O11 1480   3.650   1.023   6.254  0.0229 -0.6691 -0.0900
   12SAPS    C1 1481   3.771   0.988   6.327 -0.3755 -0.3219  0.3811
   12SAPS    HA 1482   3.838   0.922   6.267  0.9444  2.1621 -0.9578
   12SAPS    HB 1483   3.824   1.085   6.311 -0.1371 -0.1916  1.9289
   12SAPS    C2 1484   3.746   0.969   6.479 -0.0370 -0.2772  0.6758
   12SAPS    HS 1485   3.841   0.989   6.533  0.6956 -0.0016 -0.6845
   12SAPS   O21 1486   3.701   0.833   6.502 -0.0656  0.1106  0.3480
   12SAPS   C21 1487   3.786   0.734   6.480  0.1379 -0.0138 -0.6576
   12SAPS   O22 1488   3.894   0.738   6.426  0.3731  0.3396  0.1084
   12SAPS   C22 1489   3.726   0.604   6.535 -0.7346  0.0317 -0.6615
   12SAPS   H2R 1490   3.641   0.628   6.603 -0.8422  0.6903 -1.0303
   12SAPS   H2S 1491   3.684   0.552   6.446 -1.1736 -0.7345 -0.0152
   12SAPS    C3 1492   3.637   1.064   6.542 -0.3679  0.1239  0.9123
   12SAPS    HX 1493   3.545   1.032   6.488 -0.6341 -1.8693  2.4931
   12SAPS    HY 1494   3.666   1.169   6.520  0.6961 -0.0676  1.3471
   12SAPS   O31 1495   3.620   1.034   6.685 -0.6291  0.4320 -0.2861
   12SAPS   C31 1496   3.706   1.100   6.762  0.8852  0.2550 -0.0672
   12SAPS   O32 1497   3.800   1.166   6.724 -0.1178  0.5359  0.3550
   12SAPS   C32 1498   3.650   1.084   6.899  0.2291  0.1812  0.4509
   12SAPS   H2X 1499   3.646   0.975   6.918  1.1193 -0.1104 -0.9395
   12SAPS   H2Y 1500   3.539   1.096   6.892  0.2516  1.8951  2.4529
   12SAPS   C23 1501   3.819   0.511   6.610  1.2474 -0.0699  0.3543
   12SAPS   H3R 1502   3.911   0.493   6.550  1.1148  1.3187 -0.2874
   12SAPS   H3S 1503   3.767   0.414   6.603  2.5072 -0.7006 -0.5078
   12SAPS   C24 1504   3.837   0.561   6.757  0.1180 -0.0250 -0.5118
   12SAPS   H4R 1505   3.882   0.468   6.800 -2.6632 -0.7683  0.8842
   12SAPS   H4S 1506   3.732   0.561   6.792  0.7752  0.8958  1.5558
   12SAPS   C25 1507   3.910   0.687   6.785 -0.2271  0.8421  0.2217
   12SAPS   H5R 1508   3.971   0.720   6.699 -0.0448 -0.7699 -0.2877
   12SAPS   C26 1509   3.893   0.752   6.908  0.4560 -0.3986 -0.2256
   12SAPS   H6R 1510   3.959   0.838   6.930  0.4110 -0.5383  0.4819
   12SAPS   C27 1511   3.806   0.720   7.029 -0.4811  0.2046  0.4648
   12SAPS   H7R 1512   3.810   0.614   7.062  1.6367  0.1597  0.1012
   12SAPS   H7S 1513   3.700   0.734   6.998 -0.4310 -1.9243 -0.7467
   12SAPS   C28 1514   3.846   0.795   7.153  0.4873  0.5661  0.3639
   12SAPS   H8R 1515   3.794   0.891   7.165 -0.4769 -0.2379  2.9801
   12SAPS   C29 1516   3.924   0.747   7.255 -0.5861  1.0374 -0.3045
   12SAPS   H9R 1517   3.957   0.808   7.340 -0.5266 -1.0315  1.1935
   12SAPS  C210 1518   3.993   0.618   7.261 -0.2604 -0.1689 -0.1701
   12SAPS  H10R 1519   4.002   0.578   7.158 -0.7043  2.3716 -1.2285
   12SAPS  H10S 1520   3.928   0.554   7.324  0.0843  1.6720  2.1409
   12SAPS  C211 1521   4.146   0.626   7.300  1.1904  0.6424  0.3498
   12SAPS  H11R 1522   4.215   0.626   7.214 -0.1752  0.6853 -0.7752
   12SAPS  C212 1523   4.192   0.608   7.423  0.7529 -0.1957  0.1264
   12SAPS  H12R 1524   4.301   0.620   7.436  0.8374  1.9037 -2.2672
   12SAPS  C213 1525   4.110   0.585   7.549  0.1212 -1.0674 -0.3309
   12SAPS  H13R 1526   4.026   0.659   7.554 -1.6097 -3.0352  0.4095
   12SAPS  H13S 1527   4.175   0.611   7.635 -2.5652  0.8862  1.1906
   12SAPS  C214 1528   4.048   0.446   7.560  0.3059 -0.0598  0.3995
   12SAPS  H14R 1529   3.996   0.410   7.470  1.2088  0.2716 -0.2492
   12SAPS  C215 1530   4.047   0.367   7.664 -0.7921  0.8962  0.0157
   12SAPS  H15R 1531   3.994   0.271   7.650  2.9247 -1.0278 -1.6736
   12SAPS  C216 1532   4.127   0.391   7.792  0.1457  0.3179  0.0172
   12SAPS  H16R 1533   4.185   0.486   7.791 -1.4130  1.2772 -0.6890
   12SAPS  H16S 1534   4.211   0.320   7.809  1.8411  2.1697 -0.4335
   12SAPS  C217 1535   4.046   0.364   7.921  0.5781  0.7948 -0.8030
   12SAPS  H17R 1536   4.010   0.260   7.906 -0.6861  1.4072 -2.2074
   12SAPS  H17S 1537   3.951   0.422   7.927  0.2099  0.1187 -0.0235
   12SAPS  C218 1538   4.129   0.394   8.046  0.7623 -0.0191 -0.7700
   12SAPS  H18R 1539   4.232   0.364   8.019  0.7772  0.3531 -1.1424
   12SAPS  H18S 1540   4.079   0.336   8.127  0.5057  2.1063  0.6276
   12SAPS  C219 1541   4.130   0.551   8.086  0.6742  0.1242 -0.0840
   12SAPS  H19R 1542   4.026   0.574   8.119  1.1707  0.7926  1.0263
   12SAPS  H19S 1543   4.174   0.609   8.002  1.6929  0.2407  0.5201
   12SAPS  C220 1544   4.223   0.580   8.205  0.6417 -0.2617  0.2571
   12SAPS  H20R 1545   4.193   0.520   8.294  2.5856 -1.2076  0.3135
   12SAPS  H20S 1546   4.224   0.689   8.228 -1.0517 -0.2276  0.1820
   12SAPS  H20T 1547   4.329   0.557   8.181  0.5269 -0.9928  0.4308
   12SAPS   C33 1548   3.705   1.183   6.998 -0.2542  0.1511 -0.3800
   12SAPS   H3X 1549   3.685   1.282   6.951 -0.4232 -0.0012 -0.6312
   12SAPS   H3Y 1550   3.814   1.164   6.998  0.4057  3.7469  0.1731
   12SAPS   C34 1551   3.641   1.150   7.135 -0.7414  0.1037  0.2631
   12SAPS   H4X 1552   3.639   1.041   7.153  0.7179 -0.2142 -1.3240
   12SAPS   H4Y 1553   3.541   1.199   7.133 -1.1411 -0.5113  2.8009
   12SAPS   C35 1554   3.721   1.201   7.257  0.9810  0.0513 -0.5149
   12SAPS   H5X 1555   3.716   1.311   7.266  2.2663  0.0529  0.3742
   12SAPS   H5Y 1556   3.830   1.194   7.234  1.7848  0.8398  2.8574
   12SAPS   C36 1557   3.684   1.132   7.388  0.0111  0.4049  0.2302
   12SAPS   H6X 1558   3.725   1.029   7.386  0.0909  0.4235  0.9742
   12SAPS   H6Y 1559   3.574   1.119   7.391 -0.0071  0.3819 -0.3648
   12SAPS   C37 1560   3.737   1.212   7.506  0.0593  0.9220  0.0100
   12SAPS   H7X 1561   3.687   1.309   7.485 -1.6036  0.1860  0.4781
   12SAPS   H7Y 1562   3.847   1.225   7.499  0.1153  0.1474 -0.6270
   12SAPS   C38 1563   3.707   1.166   7.645  0.1275  0.6030  0.3149
   12SAPS   H8X 1564   3.740   1.065   7.678 -1.2434 -0.3522 -1.1682
   12SAPS   H8Y 1565   3.596   1.161   7.642  0.1686 -0.4385  0.1314
   12SAPS   C39 1566   3.757   1.255   7.759 -0.1871 -0.2645 -0.8698
   12SAPS   H9X 1567   3.721   1.359   7.744  0.1687 -0.3573 -2.4694
   12SAPS   H9Y 1568   3.867   1.248   7.765 -0.2251  0.7345  1.8190
   12SAPS  C310 1569   3.698   1.202   7.890 -0.5612 -0.2591  0.1077
   12SAPS  H10X 1570   3.741   1.100   7.903  1.7227  0.0733 -3.9780
   12SAPS  H10Y 1571   3.590   1.180   7.874 -0.1050 -0.9590 -2.1363
   12SAPS  C311 1572   3.719   1.288   8.011 -0.1891 -0.4502  0.5927
   12SAPS  H11X 1573   3.706   1.396   7.988  3.1896 -0.3187 -1.0655
   12SAPS  H11Y 1574   3.828   1.280   8.033 -0.1621  0.0050  0.6397
   12SAPS  C312 1575   3.629   1.253   8.139 -0.3865  0.0262  0.1293
   12SAPS  H12X 1576   3.669   1.152   8.162 -0.5339 -0.3695 -1.3079
   12SAPS  H12Y 1577   3.522   1.244   8.112 -0.2422 -1.0913 -0.0718
   12SAPS  C313 1578   3.643   1.342   8.263 -0.7961  0.0608 -0.2695
   12SAPS  H13X 1579   3.614   1.447   8.244  0.5504  0.3080 -1.0393
   12SAPS  H13Y 1580   3.743   1.349   8.311 -0.2631  1.0375 -1.4741
   12SAPS  C314 1581   3.561   1.286   8.384  0.5375 -0.3060  0.0162
   12SAPS  H14X 1582   3.464   1.252   8.343  1.0622 -0.9084 -0.7506
   12SAPS  H14Y 1583   3.549   1.359   8.467  0.5160  0.1629 -0.3988
   12SAPS  C315 1584   3.619   1.160   8.443 -0.4097  0.0835 -0.3585
   12SAPS  H15X 1585   3.605   1.079   8.368  0.0586 -0.1864 -0.1577
   12SAPS  H15Y 1586   3.555   1.124   8.527 -0.8406  1.8631  0.0910
   12SAPS  C316 1587   3.764   1.181   8.500 -1.0625  0.5148  0.5340
   12SAPS  H16X 1588   3.768   1.286   8.536 -3.9984  0.4672  1.0960
   12SAPS  H16Y 1589   3.836   1.149   8.422 -0.8084  0.4218  0.8060
   12SAPS  C317 1590   3.787   1.086   8.622 -0.5715  0.9829  0.3867
   12SAPS  H17X 1591   3.781   0.981   8.587 -1.6416  1.6283 -1.4421
   12SAPS  H17Y 1592   3.713   1.103   8.703 -1.4051  0.1810 -0.2115
   12SAPS  C318 1593   3.932   1.107   8.681 -0.6693 -0.7101  0.1708
   12SAPS  H18X 1594   3.949   1.031   8.761  0.6027  0.3440  0.9276
   12SAPS  H18Y 1595   3.961   1.205   8.725 -1.5014 -1.2732  2.0503
   12SAPS  H18Z 1596   4.007   1.096   8.600  0.2091 -0.9472  0.9945
   13SAPS     N 1597   4.936   4.226   6.162 -0.3808  0.7269  0.0778
   13SAPS   HN1 1598   4.880   4.263   6.083  0.7389  0.7544 -0.7114
   13SAPS   HN2 1599   4.920   4.124   6.179  0.5903  0.3023 -1.4081
   13SAPS   HN3 1600   4.924   4.264   6.258  1.6627 -1.2543  1.1726
   13SAPS   C12 1601   5.074   4.260   6.124 -0.1705  0.5607  0.4821
   13SAPS  H12A 1602   5.140   4.232   6.206  0.7465 -1.5832 -0.9379
   13SAPS   C13 1603   5.121   4.183   5.993 -0.5802 -0.0058  0.3136
   13SAPS  O13A 1604   5.040   4.114   5.931 -0.3333  0.0996 -0.1102
   13SAPS  O13B 1605   5.235   4.216   5.939 -0.0326  0.2399 -0.3389
   13SAPS   C11 1606   5.100   4.409   6.093  0.0193  0.1678  0.7978
   13SAPS  H11A 1607   5.058   4.428   5.992  1.6041 -0.1290  0.0682
   13SAPS  H11B 1608   5.208   4.430   6.079 -0.4887  1.1161 -1.9587
   13SAPS     P 1609   5.143   4.590   6.284 -0.2888 -0.0011 -0.2052
   13SAPS   O13 1610   5.198   4.694   6.193 -0.2521  0.4050  0.0261
   13SAPS   O14 1611   5.063   4.641   6.403 -0.5181 -0.6153 -0.8990
   13SAPS   O12 1612   5.049   4.494   6.194 -0.6515  0.3136  0.2955
   13SAPS   O11 1613   5.260   4.491   6.333  0.2150 -0.7163  0.3127
   13SAPS    C1 1614   5.258   4.444   6.471  1.0356  0.0100 -0.7910
   13SAPS    HA 1615   5.157   4.428   6.513  1.0080  2.3644  0.0848
   13SAPS    HB 1616   5.303   4.342   6.479 -1.3253 -0.9499  0.8881
   13SAPS    C2 1617   5.324   4.542   6.574  0.2143 -0.3672 -0.5531
   13SAPS    HS 1618   5.360   4.481   6.660  0.4203  1.3396  0.6190
   13SAPS   O21 1619   5.236   4.644   6.628  0.5665  0.1457  0.2624
   13SAPS   C21 1620   5.148   4.600   6.707  0.0999 -0.5627 -0.2605
   13SAPS   O22 1621   5.139   4.486   6.745  0.6719 -0.0682 -0.4118
   13SAPS   C22 1622   5.066   4.714   6.774 -0.2186 -0.1966 -0.3866
   13SAPS   H2R 1623   5.025   4.781   6.696  1.1922  0.7018 -0.3625
   13SAPS   H2S 1624   4.982   4.676   6.837 -0.8034  1.5359 -0.1061
   13SAPS    C3 1625   5.449   4.605   6.509 -0.1083  0.1086  0.1270
   13SAPS    HX 1626   5.410   4.687   6.443 -0.2226 -0.6498 -0.7590
   13SAPS    HY 1627   5.491   4.527   6.443  0.0265 -0.4633  0.8877
   13SAPS   O31 1628   5.537   4.663   6.602 -0.5912 -0.4155 -0.1019
   13SAPS   C31 1629   5.631   4.583   6.641 -0.0337 -0.9487 -0.1064
   13SAPS   O32 1630   5.657   4.473   6.601 -0.0051  0.2493  0.8905
   13SAPS   C32 1631   5.716   4.652   6.750  0.3337 -0.2681 -0.0042
   13SAPS   H2X 1632   5.764   4.734   6.692  0.4715 -0.3326  0.0188
   13SAPS   H2Y 1633   5.807   4.593   6.775  0.7453  0.0726 -0.6950
   13SAPS   C23 1634   5.168   4.787   6.861  0.0368 -0.4263  0.8502
   13SAPS   H3R 1635   5.259   4.820   6.807 -0.5302  0.9698  0.7303
   13SAPS   H3S 1636   5.213   4.726   6.942  1.2906 -1.6620 -0.7646
   13SAPS   C24 1637   5.097   4.907   6.922 -0.2024  0.0315  0.1090
   13SAPS   H4R 1638   4.997   4.882   6.964  0.1851 -0.0823  0.9950
   13SAPS   H4S 1639   5.055   4.972   6.842 -0.7443 -1.6313 -0.9752
   13SAPS   C25 1640   5.177   4.990   7.019 -1.2564 -0.0612 -0.9939
   13SAPS   H5R 1641   5.229   5.073   6.970 -1.2103  1.4274  1.4643
   13SAPS   C26 1642   5.170   4.986   7.152 -0.0091 -0.6595 -1.1002
   13SAPS   H6R 1643   5.238   5.047   7.212 -0.1786 -0.6179 -0.9481
   13SAPS   C27 1644   5.087   4.885   7.234  0.0925  0.2836 -0.1501
   13SAPS   H7R 1645   5.150   4.847   7.318  2.5332  0.5114 -1.8213
   13SAPS   H7S 1646   5.057   4.791   7.182  2.7391 -0.5346 -0.2771
   13SAPS   C28 1647   4.955   4.938   7.294  0.7438  0.0576  0.6271
   13SAPS   H8R 1648   4.871   4.909   7.229  1.4980 -0.2877 -0.2003
   13SAPS   C29 1649   4.936   5.004   7.410  0.7780 -0.1126 -0.2448
   13SAPS   H9R 1650   4.833   5.030   7.435  0.6108  0.3645 -1.3928
   13SAPS  C210 1651   5.031   5.042   7.514  0.1058 -0.1426 -0.0021
   13SAPS  H10R 1652   4.999   5.138   7.558 -5.1268 -1.3320 -0.8583
   13SAPS  H10S 1653   5.135   5.059   7.480  0.8468 -0.9003  1.7882
   13SAPS  C211 1654   5.055   4.930   7.618 -0.9141  1.1394  0.1483
   13SAPS  H11R 1655   5.082   4.844   7.556 -3.4031  1.2115 -1.0889
   13SAPS  C212 1656   5.035   4.930   7.751 -0.0416  0.4268  0.2075
   13SAPS  H12R 1657   5.058   4.840   7.811 -2.3894  1.1166  2.2132
   13SAPS  C213 1658   4.976   5.051   7.822  0.3261 -0.3282 -0.4868
   13SAPS  H13R 1659   4.917   5.101   7.742 -1.1384  0.8411  1.3083
   13SAPS  H13S 1660   5.063   5.116   7.844  0.7734 -0.0479 -2.9119
   13SAPS  C214 1661   4.885   5.023   7.940 -0.8752  0.5042 -0.5178
   13SAPS  H14R 1662   4.790   4.979   7.905 -2.1736  3.2527 -0.5043
   13SAPS  C215 1663   4.905   5.038   8.072  0.1261 -0.6981  0.1917
   13SAPS  H15R 1664   4.821   5.003   8.133  1.1925  0.1676  2.2005
   13SAPS  C216 1665   5.026   5.080   8.151  0.0830  0.2003 -0.0222
   13SAPS  H16R 1666   4.999   5.171   8.209  2.7772  1.4395 -0.6172
   13SAPS  H16S 1667   5.104   5.110   8.077  0.4525 -3.6106 -1.2516
   13SAPS  C217 1668   5.091   4.969   8.233 -0.0895 -0.6543  0.0887
   13SAPS  H17R 1669   5.133   4.891   8.166 -0.3329  0.7902 -1.7955
   13SAPS  H17S 1670   5.012   4.927   8.299  0.7575 -0.4551  1.2450
   13SAPS  C218 1671   5.202   5.008   8.334  0.1985  0.3735 -0.0123
   13SAPS  H18R 1672   5.161   5.087   8.400  0.3586  1.1894 -0.8845
   13SAPS  H18S 1673   5.278   5.054   8.268  2.3851  1.0143  2.8394
   13SAPS  C219 1674   5.255   4.878   8.401  1.1918 -0.3963 -0.1080
   13SAPS  H19R 1675   5.307   4.810   8.331  1.6244 -0.7816  0.5829
   13SAPS  H19S 1676   5.171   4.828   8.454  0.0682  1.3824 -0.1462
   13SAPS  C220 1677   5.359   4.915   8.498  1.0207 -0.3795 -0.7633
   13SAPS  H20R 1678   5.315   4.957   8.591  2.2452  1.0413 -0.7921
   13SAPS  H20S 1679   5.431   4.983   8.447 -1.3513  1.0633 -2.2559
   13SAPS  H20T 1680   5.419   4.833   8.543  1.2345  0.4734  0.5379
   13SAPS   C33 1681   5.648   4.716   6.878 -0.5035  0.6608  0.2300
   13SAPS   H3X 1682   5.570   4.790   6.849 -2.6491 -1.7094 -0.2058
   13SAPS   H3Y 1683   5.727   4.768   6.935 -1.0849  0.8752  0.8509
   13SAPS   C34 1684   5.567   4.626   6.965  0.2396 -0.9851  0.8620
   13SAPS   H4X 1685   5.616   4.536   7.008  1.4513 -0.5178  0.4814
   13SAPS   H4Y 1686   5.478   4.588   6.911 -1.7476  1.7037  2.1381
   13SAPS   C35 1687   5.519   4.713   7.085  0.1067  0.0785 -0.0224
   13SAPS   H5X 1688   5.459   4.802   7.057  0.3312  0.5958  1.0933
   13SAPS   H5Y 1689   5.615   4.744   7.132 -0.3928 -0.4089  1.3476
   13SAPS   C36 1690   5.448   4.640   7.200  0.5495 -0.3750  0.2612
   13SAPS   H6X 1691   5.466   4.531   7.187 -0.8778 -0.3732 -2.0875
   13SAPS   H6Y 1692   5.339   4.641   7.175  1.2391 -3.2003 -3.2084
   13SAPS   C37 1693   5.485   4.689   7.339  0.9797 -1.0950 -0.4128
   13SAPS   H7X 1694   5.489   4.800   7.326  0.4672 -0.9900  0.2759
   13SAPS   H7Y 1695   5.585   4.650   7.367  0.5753 -1.3350  0.7302
   13SAPS   C38 1696   5.379   4.642   7.437 -0.3159 -0.5384  0.2052
   13SAPS   H8X 1697   5.354   4.541   7.400  1.1637 -0.3413 -1.3894
   13SAPS   H8Y 1698   5.291   4.710   7.433  1.3829  1.8986  2.2847
   13SAPS   C39 1699   5.415   4.649   7.586  0.5110 -0.2067 -0.4649
   13SAPS   H9X 1700   5.449   4.753   7.610  0.9163 -0.3874 -0.2447
   13SAPS   H9Y 1701   5.496   4.579   7.616 -1.0611 -2.7491 -1.9879
   13SAPS  C310 1702   5.296   4.627   7.678 -0.2422 -0.1954 -0.3849
   13SAPS  H10X 1703   5.254   4.528   7.650  1.0731 -0.9121  0.1178
   13SAPS  H10Y 1704   5.227   4.712   7.666 -0.4316 -0.3391 -0.3009
   13SAPS  C311 1705   5.333   4.606   7.830  0.2086 -0.1214 -0.6797
   13SAPS  H11X 1706   5.403   4.520   7.844  0.7586  0.1332 -1.7895
   13SAPS  H11Y 1707   5.237   4.586   7.883 -0.0834  1.8251 -0.4531
   13SAPS  C312 1708   5.382   4.739   7.892  0.6472  0.0996  0.1545
   13SAPS  H12X 1709   5.300   4.811   7.872  0.8886  0.6834  1.1796
   13SAPS  H12Y 1710   5.475   4.780   7.847 -0.0581  1.2346 -0.2856
   13SAPS  C313 1711   5.394   4.729   8.042 -0.8249  0.3098 -0.7245
   13SAPS  H13X 1712   5.295   4.713   8.089 -0.2327  0.5946  0.6226
   13SAPS  H13Y 1713   5.429   4.825   8.087 -0.3228 -0.5896  0.8066
   13SAPS  C314 1714   5.482   4.611   8.091 -0.3479  0.4828  0.3691
   13SAPS  H14X 1715   5.584   4.615   8.047 -0.5726 -0.0919 -0.2162
   13SAPS  H14Y 1716   5.426   4.515   8.080  0.2430  0.1945 -0.1725
   13SAPS  C315 1717   5.502   4.613   8.242  0.3314  0.0909  0.4979
   13SAPS  H15X 1718   5.414   4.587   8.304 -0.4011 -1.4321 -1.1553
   13SAPS  H15Y 1719   5.521   4.719   8.269  1.3958 -0.6312  2.7026
   13SAPS  C316 1720   5.619   4.526   8.281  0.6005  0.2493  0.1025
   13SAPS  H16X 1721   5.639   4.544   8.388  0.3934  1.7213 -0.0940
   13SAPS  H16Y 1722   5.698   4.576   8.221 -0.3572  0.7525 -0.7738
   13SAPS  C317 1723   5.611   4.376   8.257 -0.7270 -0.4369  0.8705
   13SAPS  H17X 1724   5.716   4.345   8.272 -0.4459  0.9205  1.7932
   13SAPS  H17Y 1725   5.585   4.349   8.152  0.2552  0.9939  0.2407
   13SAPS  C318 1726   5.507   4.314   8.344 -0.4473 -0.1043  0.0564
   13SAPS  H18X 1727   5.403   4.349   8.326 -0.6909 -0.9638 -0.2232
   13SAPS  H18Y 1728   5.534   4.329   8.451 -0.8152  0.1386  0.1177
   13SAPS  H18Z 1729   5.495   4.204   8.334  0.1244 -0.0077 -1.8867
   14SAPS     N 1730   4.635   6.270   5.739 -0.8200 -0.2023 -0.0248
   14SAPS   HN1 1731   4.614   6.352   5.800 -3.0253 -1.5350  1.0684
   14SAPS   HN2 1732   4.633   6.191   5.806 -0.2252  0.4348  0.7457
   14SAPS   HN3 1733   4.728   6.279   5.693 -1.6365  1.3904 -1.4225
   14SAPS   C12 1734   4.523   6.265   5.642  0.1832 -0.2148 -0.1221
   14SAPS  H12A 1735   4.538   6.346   5.572  0.6098 -0.5258 -0.3985
   14SAPS   C13 1736   4.523   6.137   5.558  0.5060 -0.2396  0.6296
   14SAPS  O13A 1737   4.618   6.057   5.576 -0.5187  0.3110  0.0069
   14SAPS  O13B 1738   4.457   6.142   5.450  0.6971 -0.6904 -0.2339
   14SAPS   C11 1739   4.396   6.271   5.721  0.1196 -0.4534 -0.7274
   14SAPS  H11A 1740   4.400   6.205   5.810 -0.2934  0.1207 -0.2795
   14SAPS  H11B 1741   4.319   6.241   5.647  0.0726  0.0276 -0.8796
   14SAPS     P 1742   4.236   6.459   5.804 -0.3373 -0.1229 -0.0438
   14SAPS   O13 1743   4.214   6.576   5.713 -0.1513 -0.1571  1.1924
   14SAPS   O14 1744   4.139   6.348   5.798 -0.0071 -0.7194  0.4096
   14SAPS   O12 1745   4.380   6.404   5.763  0.1244 -0.8027  0.2352
   14SAPS   O11 1746   4.260   6.493   5.957 -0.3150  0.3463  0.0589
   14SAPS    C1 1747   4.345   6.403   6.024 -0.1093 -0.4771 -0.2959
   14SAPS    HA 1748   4.338   6.295   6.001 -2.7269 -0.4313  0.1879
   14SAPS    HB 1749   4.451   6.436   6.019 -0.4458  0.3352 -2.9793
   14SAPS    C2 1750   4.310   6.397   6.175  0.2347  0.0840  0.0302
   14SAPS    HS 1751   4.202   6.375   6.168  0.0630  1.2522 -1.3424
   14SAPS   O21 1752   4.344   6.521   6.242 -0.0009 -0.2038 -0.1062
   14SAPS   C21 1753   4.246   6.582   6.303  0.6668  0.1395 -0.3810
   14SAPS   O22 1754   4.130   6.541   6.307 -0.0278  0.4264 -0.0578
   14SAPS   C22 1755   4.302   6.713   6.363  0.2043 -0.2412  0.2621
   14SAPS   H2R 1756   4.386   6.680   6.427  0.1567 -1.1317 -0.1280
   14SAPS   H2S 1757   4.346   6.772   6.280  1.5354 -0.7484  0.5870
   14SAPS    C3 1758   4.388   6.279   6.250 -0.0285 -0.1832  0.2243
   14SAPS    HX 1759   4.495   6.306   6.241 -0.3261  0.3881 -1.8728
   14SAPS    HY 1760   4.383   6.185   6.190  2.7089  0.2504 -0.7387
   14SAPS   O31 1761   4.345   6.267   6.381  0.3770  0.2771 -0.3494
   14SAPS   C31 1762   4.228   6.198   6.398 -0.8108  0.2507  0.5389
   14SAPS   O32 1763   4.166   6.146   6.302 -0.0253 -0.0999  0.0907
   14SAPS   C32 1764   4.179   6.197   6.540  0.1257  0.6971 -0.2697
   14SAPS   H2X 1765   4.244   6.128   6.598  1.1885  1.6647 -0.2968
   14SAPS   H2Y 1766   4.073   6.164   6.534  0.4264 -0.7201  1.9687
   14SAPS   C23 1767   4.190   6.775   6.458  0.3838  0.3542  0.7092
   14SAPS   H3R 1768   4.135   6.695   6.512  0.2818 -1.6597 -2.2261
   14SAPS   H3S 1769   4.111   6.828   6.401 -0.9332 -0.7244  1.4866
   14SAPS   C24 1770   4.253   6.861   6.568  0.0184  0.3763 -0.3428
   14SAPS   H4R 1771   4.332   6.797   6.613  0.1506 -1.2720 -2.8748
   14SAPS   H4S 1772   4.168   6.887   6.635  1.3816  0.4484  1.4028
   14SAPS   C25 1773   4.312   6.984   6.516 -0.3249 -0.1292 -0.2829
   14SAPS   H5R 1774   4.316   6.990   6.407 -2.9551  0.7648 -0.3639
   14SAPS   C26 1775   4.365   7.072   6.602 -0.6784  0.3699 -0.0928
   14SAPS   H6R 1776   4.412   7.160   6.555 -0.1452 -0.7416 -1.6958
   14SAPS   C27 1777   4.377   7.069   6.750 -0.1148  0.6207  0.1516
   14SAPS   H7R 1778   4.483   7.085   6.777 -0.4628  0.4779  1.6239
   14SAPS   H7S 1779   4.361   6.967   6.793  0.7694 -0.3463 -1.7276
   14SAPS   C28 1780   4.282   7.161   6.823 -0.4596  0.1580 -0.3328
   14SAPS   H8R 1781   4.198   7.210   6.771 -0.7980  1.4255  1.3548
   14SAPS   C29 1782   4.285   7.199   6.959  0.6901  0.0749 -0.1149
   14SAPS   H9R 1783   4.203   7.254   7.007 -1.0923 -1.5772 -1.1684
   14SAPS  C210 1784   4.384   7.145   7.058  0.3980 -0.0185 -0.2314
   14SAPS  H10R 1785   4.468   7.213   7.083 -0.3366  0.9260 -0.2979
   14SAPS  H10S 1786   4.422   7.050   7.016 -1.6685 -0.4363 -1.2017
   14SAPS  C211 1787   4.310   7.107   7.184  0.3373  0.0540 -0.9100
   14SAPS  H11R 1788   4.204   7.081   7.168 -0.0432  2.0905 -1.8319
   14SAPS  C212 1789   4.360   7.098   7.311  0.1984  0.7352  0.2428
   14SAPS  H12R 1790   4.295   7.089   7.399 -0.1242  1.6749  0.1090
   14SAPS  C213 1791   4.497   7.121   7.355  0.3401 -0.8390  0.3409
   14SAPS  H13R 1792   4.504   7.205   7.428 -1.6128 -0.2480 -0.1312
   14SAPS  H13S 1793   4.565   7.162   7.277 -1.2668  0.0263 -0.6159
   14SAPS  C214 1794   4.563   6.996   7.397  0.5818  0.3862 -0.7871
   14SAPS  H14R 1795   4.561   6.918   7.319 -1.1838  0.4864 -0.8556
   14SAPS  C215 1796   4.644   7.000   7.497  0.5221  0.3934  0.4037
   14SAPS  H15R 1797   4.708   6.911   7.502  1.9475  1.3482 -0.4702
   14SAPS  C216 1798   4.677   7.113   7.590  0.5842  0.3474 -0.7356
   14SAPS  H16R 1799   4.688   7.212   7.541 -1.7007  1.3385  0.6903
   14SAPS  H16S 1800   4.766   7.094   7.654 -0.7614 -2.2326  0.4346
   14SAPS  C217 1801   4.575   7.117   7.712 -0.4113  0.0151  0.0082
   14SAPS  H17R 1802   4.599   7.034   7.782 -0.6413  1.4847  1.8452
   14SAPS  H17S 1803   4.474   7.092   7.672 -0.7408 -3.0534  2.5538
   14SAPS  C218 1804   4.583   7.256   7.791 -0.1891 -0.2729 -0.6150
   14SAPS  H18R 1805   4.546   7.349   7.743  0.3489  0.1489 -0.2336
   14SAPS  H18S 1806   4.693   7.267   7.801 -0.1910 -0.2198 -0.6528
   14SAPS  C219 1807   4.537   7.235   7.941 -0.4747 -0.0471 -0.0747
   14SAPS  H19R 1808   4.585   7.143   7.982 -2.6261 -0.0379  2.6344
   14SAPS  H19S 1809   4.427   7.231   7.924  0.0938  1.1875 -4.5034
   14SAPS  C220 1810   4.587   7.356   8.028  0.6883 -0.3783  0.2913
   14SAPS  H20R 1811   4.696   7.367   8.012  1.2009 -1.7204  2.5762
   14SAPS  H20S 1812   4.571   7.343   8.137  1.0707  0.5945  0.4601
   14SAPS  H20T 1813   4.543   7.450   7.988 -1.1894 -1.5396 -0.4750
   14SAPS   C33 1814   4.174   6.337   6.608  0.3537 -0.0664 -0.1991
   14SAPS   H3X 1815   4.101   6.339   6.692 -0.2610  2.0850 -0.7656
   14SAPS   H3Y 1816   4.145   6.414   6.533 -3.5728  0.4572  1.6876
   14SAPS   C34 1817   4.308   6.369   6.674 -0.0583 -1.1886 -0.5136
   14SAPS   H4X 1818   4.391   6.370   6.600 -0.7024  0.9433 -1.2399
   14SAPS   H4Y 1819   4.336   6.283   6.738  0.6782  0.4580  1.4440
   14SAPS   C35 1820   4.304   6.510   6.740 -0.5679 -0.1761  0.6776
   14SAPS   H5X 1821   4.248   6.510   6.836 -3.4883 -0.7708 -0.9383
   14SAPS   H5Y 1822   4.243   6.565   6.664  2.2319 -2.1970 -3.1839
   14SAPS   C36 1823   4.445   6.579   6.750  0.3221  0.4230 -0.1473
   14SAPS   H6X 1824   4.419   6.687   6.738 -1.3067  0.1129  0.5188
   14SAPS   H6Y 1825   4.503   6.536   6.666  0.2137 -2.0468  1.0008
   14SAPS   C37 1826   4.513   6.550   6.886  0.7469  0.5845  0.0531
   14SAPS   H7X 1827   4.622   6.564   6.869  1.1521 -1.1458  1.0736
   14SAPS   H7Y 1828   4.489   6.442   6.895  0.6794  0.4209 -1.8756
   14SAPS   C38 1829   4.459   6.624   7.014  0.1795  0.0598 -0.2925
   14SAPS   H8X 1830   4.349   6.631   6.998  0.5303  0.7671 -2.6874
   14SAPS   H8Y 1831   4.506   6.725   7.013  1.2726 -0.4035 -3.3700
   14SAPS   C39 1832   4.491   6.539   7.137  0.2614  0.0053  0.1215
   14SAPS   H9X 1833   4.594   6.501   7.126 -0.4629 -1.8228 -0.5874
   14SAPS   H9Y 1834   4.431   6.446   7.149 -0.2431  0.0725 -1.7854
   14SAPS  C310 1835   4.484   6.620   7.271 -0.3746  0.9600 -0.6244
   14SAPS  H10X 1836   4.376   6.633   7.294 -0.7631 -3.1799  0.1384
   14SAPS  H10Y 1837   4.532   6.719   7.258  3.0821 -0.3430  1.6077
   14SAPS  C311 1838   4.551   6.537   7.385 -0.1992 -0.4343  0.4511
   14SAPS  H11X 1839   4.662   6.535   7.374 -0.0293 -0.6581  2.0534
   14SAPS  H11Y 1840   4.531   6.428   7.390 -1.4426 -0.1309  3.5788
   14SAPS  C312 1841   4.519   6.590   7.528 -0.2542  0.6177  0.6308
   14SAPS  H12X 1842   4.410   6.584   7.545 -0.4951  0.2253 -0.9432
   14SAPS  H12Y 1843   4.562   6.692   7.533 -0.3255  0.8001 -1.7801
   14SAPS  C313 1844   4.581   6.518   7.650 -0.8346  0.1888  0.1853
   14SAPS  H13X 1845   4.691   6.529   7.648 -1.0954  3.5046  1.3071
   14SAPS  H13Y 1846   4.551   6.411   7.648  1.9886 -0.6562  0.4937
   14SAPS  C314 1847   4.534   6.579   7.780  0.3138 -0.5390 -0.4137
   14SAPS  H14X 1848   4.568   6.514   7.863  1.8258  1.1530  0.3469
   14SAPS  H14Y 1849   4.425   6.588   7.795  0.5425  0.9560  0.5206
   14SAPS  C315 1850   4.595   6.714   7.814  0.3789  0.1610 -0.2027
   14SAPS  H15X 1851   4.555   6.785   7.739  0.4772 -1.7792 -2.1557
   14SAPS  H15Y 1852   4.702   6.716   7.785  0.2686  0.4098 -0.6005
   14SAPS  C316 1853   4.570   6.767   7.953 -0.0732 -0.5930  0.0476
   14SAPS  H16X 1854   4.465   6.790   7.982  0.6495  0.3907  1.8895
   14SAPS  H16Y 1855   4.632   6.856   7.975  1.5772 -0.8456 -3.1961
   14SAPS  C317 1856   4.625   6.667   8.058 -0.6118  0.4461 -1.1768
   14SAPS  H17X 1857   4.736   6.664   8.049 -0.5161 -0.7937  0.1947
   14SAPS  H17Y 1858   4.579   6.566   8.051 -0.1134 -0.0099  1.7314
   14SAPS  C318 1859   4.578   6.705   8.202  0.0098 -1.1227  0.1933
   14SAPS  H18X 1860   4.601   6.633   8.284 -0.4220  1.5808  2.7833
   14SAPS  H18Y 1861   4.467   6.712   8.197  0.2758  3.3027 -1.4611
   14SAPS  H18Z 1862   4.617   6.806   8.227 -0.7904 -0.8733  0.4473
   15SAPS     N 1863   5.087   6.259   5.939  0.1574  0.0927  0.0300
   15SAPS   HN1 1864   5.080   6.230   5.839 -3.4269 -0.2206  0.3095
   15SAPS   HN2 1865   5.132   6.183   5.994 -1.1960 -0.4430  0.4111
   15SAPS   HN3 1866   4.986   6.271   5.958  0.1448 -0.2788  0.2031
   15SAPS   C12 1867   5.155   6.393   5.944 -0.1689  0.2987 -0.2484
   15SAPS  H12A 1868   5.155   6.424   6.047 -0.6167 -0.6140  0.0295
   15SAPS   C13 1869   5.304   6.398   5.885 -1.0303 -0.1813 -0.5766
   15SAPS  O13A 1870   5.361   6.289   5.851 -0.2421  0.1038 -0.1667
   15SAPS  O13B 1871   5.363   6.511   5.903  0.1187 -0.2404 -0.5450
   15SAPS   C11 1872   5.070   6.488   5.863  0.0184  0.0858  0.3391
   15SAPS  H11A 1873   5.056   6.448   5.760 -0.8772 -1.7784  1.1565
   15SAPS  H11B 1874   5.114   6.588   5.844  0.3456 -0.6691 -3.3372
   15SAPS     P 1875   4.830   6.595   5.873 -0.1152 -0.0780 -0.4930
   15SAPS   O13 1876   4.885   6.710   5.792 -0.3631  0.1837  0.1928
   15SAPS   O14 1877   4.714   6.521   5.820  0.2485  0.0133 -0.3185
   15SAPS   O12 1878   4.941   6.505   5.921 -0.1328  0.3176 -0.0541
   15SAPS   O11 1879   4.787   6.668   6.007 -0.3467 -0.2245  0.0145
   15SAPS    C1 1880   4.666   6.649   6.079 -0.8724 -0.0064 -0.5591
   15SAPS    HA 1881   4.613   6.746   6.071  0.7552  1.0473  0.8384
   15SAPS    HB 1882   4.612   6.566   6.028 -1.7346  2.0849 -3.1499
   15SAPS    C2 1883   4.697   6.611   6.231  0.0812 -0.3254  0.7172
   15SAPS    HS 1884   4.595   6.590   6.269 -1.5319 -1.7543 -4.0806
   15SAPS   O21 1885   4.757   6.724   6.295 -0.2781  0.0017 -1.0152
   15SAPS   C21 1886   4.692   6.831   6.310 -0.2753  0.8781  0.5549
   15SAPS   O22 1887   4.568   6.840   6.310  0.0567  0.0809 -0.0308
   15SAPS   C22 1888   4.776   6.957   6.322  0.0734 -0.0738  0.8059
   15SAPS   H2R 1889   4.854   6.948   6.243  0.0307  0.7670  0.6634
   15SAPS   H2S 1890   4.718   7.047   6.293 -2.5893 -1.1876  2.4837
   15SAPS    C3 1891   4.790   6.490   6.243 -0.1170  0.3716  0.4472
   15SAPS    HX 1892   4.878   6.496   6.175 -1.1776 -2.2450 -1.2387
   15SAPS    HY 1893   4.745   6.400   6.195  0.5427 -0.4113  1.2700
   15SAPS   O31 1894   4.823   6.453   6.375  0.1787 -0.8497  0.1728
   15SAPS   C31 1895   4.938   6.519   6.424  0.3448  0.7140 -0.3284
   15SAPS   O32 1896   5.005   6.594   6.361 -0.5525  0.3010 -0.0876
   15SAPS   C32 1897   4.957   6.462   6.565  0.6939  0.2898  0.4898
   15SAPS   H2X 1898   4.988   6.356   6.557 -1.4695 -0.1006 -4.5713
   15SAPS   H2Y 1899   4.860   6.466   6.620  0.3975  1.7913 -0.0987
   15SAPS   C23 1900   4.845   6.980   6.461  0.3244  0.3276  0.0297
   15SAPS   H3R 1901   4.911   7.069   6.457  0.6943  0.1044  0.9029
   15SAPS   H3S 1902   4.908   6.896   6.497 -0.2153  0.5840  1.6160
   15SAPS   C24 1903   4.734   7.012   6.572  0.6941  0.0641  0.6383
   15SAPS   H4R 1904   4.653   7.077   6.532  1.0290 -0.3216 -0.6900
   15SAPS   H4S 1905   4.775   7.077   6.652  1.6273 -0.7057  0.7847
   15SAPS   C25 1906   4.674   6.876   6.617  0.6197 -0.1773 -0.6199
   15SAPS   H5R 1907   4.588   6.835   6.561 -0.1244  0.4011  0.0725
   15SAPS   C26 1908   4.718   6.802   6.719  0.3037  0.2183 -0.5812
   15SAPS   H6R 1909   4.674   6.703   6.734  0.1163  0.1042 -1.8239
   15SAPS   C27 1910   4.833   6.832   6.813  0.2445  0.1662 -0.4401
   15SAPS   H7R 1911   4.916   6.868   6.750  0.0655  1.1738 -0.1020
   15SAPS   H7S 1912   4.863   6.732   6.851 -1.1191 -1.1091 -2.6419
   15SAPS   C28 1913   4.818   6.940   6.919  0.4521  0.4044  0.5489
   15SAPS   H8R 1914   4.781   7.035   6.878  0.1116  0.6025  1.3052
   15SAPS   C29 1915   4.807   6.919   7.048 -1.4530 -0.3879 -0.7233
   15SAPS   H9R 1916   4.786   7.003   7.116  0.0237  0.1552 -0.9223
   15SAPS  C210 1917   4.813   6.783   7.109  0.0656 -0.6238  0.1138
   15SAPS  H10R 1918   4.772   6.698   7.049  1.4750 -0.3324 -1.2899
   15SAPS  H10S 1919   4.734   6.786   7.188  1.1581  1.1776  1.1783
   15SAPS  C211 1920   4.948   6.744   7.169 -0.5033  0.0011 -0.3698
   15SAPS  H11R 1921   5.021   6.725   7.089 -1.0967 -0.1835 -0.8669
   15SAPS  C212 1922   4.992   6.730   7.297  0.5752 -0.1398  0.4159
   15SAPS  H12R 1923   5.095   6.690   7.304 -0.9926 -4.4579  0.3127
   15SAPS  C213 1924   4.907   6.751   7.422  0.2304  0.3770 -0.1414
   15SAPS  H13R 1925   4.806   6.704   7.415 -0.9400  3.0561 -1.7604
   15SAPS  H13S 1926   4.896   6.859   7.444  0.5441  0.2800  0.5035
   15SAPS  C214 1927   4.973   6.685   7.539 -0.2133  0.2021  0.1491
   15SAPS  H14R 1928   4.979   6.576   7.537  2.3834  0.2338  2.4550
   15SAPS  C215 1929   5.011   6.729   7.664 -0.1518 -0.0109 -0.7331
   15SAPS  H15R 1930   5.056   6.660   7.736  2.5102  1.9689 -0.4350
   15SAPS  C216 1931   4.989   6.867   7.708  0.4600 -0.3150 -0.5073
   15SAPS  H16R 1932   4.891   6.907   7.674 -1.1139 -2.2430  1.6145
   15SAPS  H16S 1933   5.071   6.938   7.681 -1.1146  2.0357  0.6638
   15SAPS  C217 1934   4.970   6.862   7.868 -0.8486  0.2108  0.7099
   15SAPS  H17R 1935   5.071   6.840   7.907 -0.1460  1.4721 -0.3587
   15SAPS  H17S 1936   4.899   6.781   7.894 -1.0657  0.3164  0.4450
   15SAPS  C218 1937   4.915   6.989   7.934  0.7933 -0.4337 -0.3943
   15SAPS  H18R 1938   4.807   6.993   7.905  0.9386  1.0288 -0.7830
   15SAPS  H18S 1939   4.960   7.083   7.896 -0.2040  0.1066 -0.2640
   15SAPS  C219 1940   4.938   6.994   8.085 -0.8777 -0.1205  0.0159
   15SAPS  H19R 1941   5.041   6.960   8.107  0.1431  1.7624 -1.6316
   15SAPS  H19S 1942   4.862   6.923   8.125 -1.4495  0.3251 -0.2686
   15SAPS  C220 1943   4.918   7.134   8.151 -0.7879  0.1917  0.3863
   15SAPS  H20R 1944   4.900   7.127   8.260 -0.9060 -0.7503  0.3066
   15SAPS  H20S 1945   4.826   7.175   8.103 -0.4506 -1.2782 -1.6075
   15SAPS  H20T 1946   5.008   7.195   8.126 -1.4318  0.3352 -1.6886
   15SAPS   C33 1947   5.052   6.545   6.655 -0.4186  0.1587  0.3513
   15SAPS   H3X 1948   4.997   6.639   6.679  0.6673  0.9965 -0.3941
   15SAPS   H3Y 1949   5.148   6.560   6.601  0.6282 -2.1714  1.4887
   15SAPS   C34 1950   5.087   6.478   6.794  0.5972 -0.2240 -0.2038
   15SAPS   H4X 1951   5.124   6.377   6.765 -1.5606 -0.9542 -0.5507
   15SAPS   H4Y 1952   4.984   6.461   6.833 -0.5591  2.9294 -1.7270
   15SAPS   C35 1953   5.184   6.535   6.887  0.6310  0.1044 -0.2411
   15SAPS   H5X 1954   5.158   6.642   6.902 -0.0847  0.1114 -1.4892
   15SAPS   H5Y 1955   5.282   6.548   6.837  0.8959  2.1785  0.7599
   15SAPS   C36 1956   5.194   6.463   7.025  0.3761 -0.5392  0.5716
   15SAPS   H6X 1957   5.215   6.356   7.000 -0.6946 -0.7730  0.6319
   15SAPS   H6Y 1958   5.093   6.454   7.071  0.3019  0.2299  0.5643
   15SAPS   C37 1959   5.287   6.539   7.127 -0.5813  0.3688 -0.3434
   15SAPS   H7X 1960   5.239   6.639   7.141  0.1505  0.7440 -0.4904
   15SAPS   H7Y 1961   5.386   6.556   7.080  0.5531  0.5723  2.0666
   15SAPS   C38 1962   5.305   6.470   7.260  0.3006 -0.2939 -0.2566
   15SAPS   H8X 1963   5.351   6.370   7.245 -1.2457 -0.8618 -1.4522
   15SAPS   H8Y 1964   5.202   6.451   7.297  1.0573 -1.4054  1.3166
   15SAPS   C39 1965   5.356   6.556   7.383  0.2946  1.1192  0.2764
   15SAPS   H9X 1966   5.287   6.642   7.397 -0.0558  0.5205  2.2870
   15SAPS   H9Y 1967   5.458   6.595   7.362  0.9880 -1.3337 -1.2167
   15SAPS  C310 1968   5.376   6.460   7.501  0.3068 -0.2869 -0.4539
   15SAPS  H10X 1969   5.442   6.383   7.455  1.6749  1.3087 -1.2172
   15SAPS  H10Y 1970   5.281   6.411   7.531  0.0676  1.0491  1.0216
   15SAPS  C311 1971   5.445   6.518   7.628  0.0023  0.9705 -0.0980
   15SAPS  H11X 1972   5.372   6.581   7.682 -0.6621  1.7313 -1.8541
   15SAPS  H11Y 1973   5.534   6.583   7.614 -0.5483  1.4978 -1.2676
   15SAPS  C312 1974   5.465   6.396   7.718 -0.2562 -0.2385 -0.0059
   15SAPS  H12X 1975   5.554   6.341   7.683  0.2100  0.9316 -0.7110
   15SAPS  H12Y 1976   5.381   6.323   7.710  0.1563 -0.6574 -0.5812
   15SAPS  C313 1977   5.467   6.426   7.868  0.1050  0.0816 -0.2755
   15SAPS  H13X 1978   5.387   6.498   7.897 -0.7929 -0.8444 -0.4263
   15SAPS  H13Y 1979   5.562   6.467   7.907 -0.4066  0.9743  0.0432
   15SAPS  C314 1980   5.431   6.301   7.947  0.3035 -0.2765 -0.4735
   15SAPS  H14X 1981   5.486   6.211   7.911 -0.4024 -1.6973  1.8340
   15SAPS  H14Y 1982   5.327   6.279   7.915  0.4092 -1.6979  0.0889
   15SAPS  C315 1983   5.447   6.328   8.097  0.0821  0.1596 -0.0686
   15SAPS  H15X 1984   5.384   6.414   8.128  1.5669  0.9411  0.8044
   15SAPS  H15Y 1985   5.553   6.353   8.117  0.8488  0.8289 -4.4359
   15SAPS  C316 1986   5.407   6.198   8.182  0.3618 -0.1954 -0.1101
   15SAPS  H16X 1987   5.487   6.125   8.160  0.2891 -0.4323  0.4065
   15SAPS  H16Y 1988   5.310   6.155   8.147  0.1832  0.1374 -0.0317
   15SAPS  C317 1989   5.391   6.228   8.329 -0.1223  0.4507  0.1860
   15SAPS  H17X 1990   5.300   6.289   8.349  0.1088  1.1839 -0.9192
   15SAPS  H17Y 1991   5.482   6.285   8.355  0.5636 -0.2868 -0.5748
   15SAPS  C318 1992   5.386   6.098   8.413  0.0502  0.1528 -0.3678
   15SAPS  H18X 1993   5.356   6.116   8.518  1.2312 -0.9496  0.1758
   15SAPS  H18Y 1994   5.491   6.064   8.426  0.4231  0.9405 -1.2445
   15SAPS  H18Z 1995   5.322   6.015   8.374 -0.1960  0.2118 -0.0865
   16SAPS     N 1996   6.158   1.351   6.229 -0.0788  1.0015  0.1126
   16SAPS   HN1 1997   6.120   1.259   6.261  1.8399  0.2340  0.2574
   16SAPS   HN2 1998   6.129   1.384   6.135 -1.1462 -1.1377 -0.3414
   16SAPS   HN3 1999   6.262   1.350   6.228 -0.0662  0.8341  0.9540
   16SAPS   C12 2000   6.108   1.453   6.322 -0.7089  0.2152  0.3853
   16SAPS  H12A 2001   6.157   1.546   6.299  1.5765 -0.3282  2.7592
   16SAPS   C13 2002   5.957   1.469   6.329  0.1679 -0.0774  0.3879
   16SAPS  O13A 2003   5.884   1.397   6.256  0.2348  0.4581  0.2210
   16SAPS  O13B 2004   5.913   1.563   6.401  0.8389  0.5447  0.3879
   16SAPS   C11 2005   6.166   1.426   6.462 -0.3705  0.1322 -0.2287
   16SAPS  H11A 2006   6.153   1.320   6.493  1.5313  0.2719  1.1217
   16SAPS  H11B 2007   6.108   1.490   6.531 -0.0555 -1.5646  1.6403
   16SAPS     P 2008   6.379   1.572   6.524  0.6513 -0.0036  0.0975
   16SAPS   O13 2009   6.526   1.571   6.504 -0.0460 -0.2786  0.2997
   16SAPS   O14 2010   6.310   1.701   6.495 -0.2997  0.6831  0.0931
   16SAPS   O12 2011   6.303   1.448   6.463  0.4848 -0.5053 -0.0638
   16SAPS   O11 2012   6.353   1.556   6.682  0.3380 -0.5191  0.5095
   16SAPS    C1 2013   6.338   1.426   6.741  0.2124 -0.3414  0.6774
   16SAPS    HA 2014   6.237   1.391   6.712 -0.0216 -1.3922  2.6828
   16SAPS    HB 2015   6.413   1.356   6.699  0.8231 -0.0358  1.2450
   16SAPS    C2 2016   6.341   1.437   6.894  0.0461  0.0414 -0.5695
   16SAPS    HS 2017   6.282   1.525   6.928  1.7559  1.3503 -0.9583
   16SAPS   O21 2018   6.480   1.434   6.933 -0.4095 -0.2226 -0.7620
   16SAPS   C21 2019   6.523   1.544   6.983 -0.3153  0.5062 -0.3123
   16SAPS   O22 2020   6.468   1.652   6.992 -0.2007  0.4163 -0.0359
   16SAPS   C22 2021   6.662   1.518   7.048  0.0994  0.7408  0.0398
   16SAPS   H2R 2022   6.658   1.421   7.102  0.0580 -0.2741 -1.7822
   16SAPS   H2S 2023   6.751   1.520   6.983  0.0922  2.7536  0.0520
   16SAPS    C3 2024   6.277   1.313   6.954  0.2190  0.5922 -0.3163
   16SAPS    HX 2025   6.321   1.219   6.914  0.5118  0.2521  0.7628
   16SAPS    HY 2026   6.172   1.297   6.922 -0.6220  1.8915  1.6591
   16SAPS   O31 2027   6.294   1.303   7.098  0.3006 -0.2414  0.2359
   16SAPS   C31 2028   6.188   1.352   7.169  0.3662  0.4391  0.1673
   16SAPS   O32 2029   6.083   1.391   7.121 -0.4009 -0.0047  1.0773
   16SAPS   C32 2030   6.227   1.341   7.318  0.3670 -0.2315  0.7485
   16SAPS   H2X 2031   6.205   1.237   7.348 -0.3356  0.2908  2.1120
   16SAPS   H2Y 2032   6.156   1.408   7.371 -0.3731 -0.0593 -0.4380
   16SAPS   C23 2033   6.687   1.631   7.149 -0.3540  0.4683 -0.4658
   16SAPS   H3R 2034   6.609   1.656   7.224 -0.2244  1.1899 -0.5635
   16SAPS   H3S 2035   6.711   1.723   7.091  0.2063  0.1249 -0.7826
   16SAPS   C24 2036   6.816   1.591   7.238 -0.5443 -0.4091 -0.7177
   16SAPS   H4R 2037   6.842   1.678   7.302 -0.5096  1.3039 -2.9815
   16SAPS   H4S 2038   6.907   1.595   7.175  0.6425  2.4513  1.0690
   16SAPS   C25 2039   6.822   1.458   7.309 -0.2052 -0.0801 -0.2834
   16SAPS   H5R 2040   6.844   1.369   7.247 -0.1646  0.2115 -0.6881
   16SAPS   C26 2041   6.804   1.434   7.439 -0.0401  0.0968  0.4902
   16SAPS   H6R 2042   6.812   1.332   7.481 -0.6342 -0.3702 -0.5082
   16SAPS   C27 2043   6.768   1.538   7.545 -0.3100  0.1369  0.4680
   16SAPS   H7R 2044   6.680   1.504   7.604 -2.2473  2.6000 -0.9209
   16SAPS   H7S 2045   6.732   1.629   7.493 -0.4023  0.3879  0.9734
   16SAPS   C28 2046   6.889   1.579   7.628 -0.2760 -0.2484  0.4436
   16SAPS   H8R 2047   6.952   1.651   7.573 -0.0768 -1.2255 -0.6257
   16SAPS   C29 2048   6.930   1.540   7.748  0.0336 -0.5426  0.4491
   16SAPS   H9R 2049   7.024   1.563   7.799 -0.6570  0.0408  1.4799
   16SAPS  C210 2050   6.862   1.431   7.829  0.5266 -0.4798 -0.4988
   16SAPS  H10R 2051   6.938   1.385   7.895 -1.4930 -1.7101  1.0490
   16SAPS  H10S 2052   6.823   1.344   7.773 -0.3814 -1.2495  1.2683
   16SAPS  C211 2053   6.733   1.470   7.910 -0.1876 -0.7310 -0.3335
   16SAPS  H11R 2054   6.664   1.542   7.864  0.2195 -0.5639 -0.6820
   16SAPS  C212 2055   6.688   1.426   8.028 -0.3703 -0.4456 -0.3442
   16SAPS  H12R 2056   6.590   1.459   8.065 -0.1128  0.0340 -0.0874
   16SAPS  C213 2057   6.769   1.335   8.116  0.9244  0.2844 -0.1336
   16SAPS  H13R 2058   6.809   1.257   8.048 -0.3093 -0.3172 -0.1945
   16SAPS  H13S 2059   6.701   1.289   8.191 -1.2241  3.7162  0.1543
   16SAPS  C214 2060   6.885   1.404   8.181  0.3254 -0.0804 -0.7343
   16SAPS  H14R 2061   6.905   1.505   8.142  0.2511  0.9719  1.8299
   16SAPS  C215 2062   6.965   1.348   8.275 -0.0369 -0.8082 -0.6417
   16SAPS  H15R 2063   7.059   1.398   8.303 -0.5777 -0.0806 -0.1057
   16SAPS  C216 2064   6.949   1.212   8.353 -0.7948  0.4511  0.4413
   16SAPS  H16R 2065   7.041   1.151   8.339 -0.9242  0.4281 -0.3274
   16SAPS  H16S 2066   6.869   1.153   8.302 -0.3171 -0.8208  1.1429
   16SAPS  C217 2067   6.923   1.205   8.507 -0.5708 -0.1542 -0.2523
   16SAPS  H17R 2068   6.991   1.270   8.566 -2.7663  0.6283  1.5181
   16SAPS  H17S 2069   6.953   1.101   8.532  3.2859  0.0845 -3.5392
   16SAPS  C218 2070   6.779   1.244   8.551 -0.3418 -0.0269 -0.1062
   16SAPS  H18R 2071   6.745   1.350   8.550  0.6331  0.2853 -0.1735
   16SAPS  H18S 2072   6.785   1.223   8.660 -0.1283 -2.1275 -0.5154
   16SAPS  C219 2073   6.657   1.163   8.491  0.2239 -0.1978 -0.1546
   16SAPS  H19R 2074   6.659   1.155   8.380 -1.2241 -0.5104 -0.1572
   16SAPS  H19S 2075   6.565   1.222   8.510  0.1193 -0.2891 -0.3710
   16SAPS  C220 2076   6.654   1.019   8.536  0.0117 -0.1753  0.1228
   16SAPS  H20R 2077   6.672   1.004   8.644  1.4489 -0.8501 -0.2019
   16SAPS  H20S 2078   6.736   0.960   8.489  0.9412 -0.8843  2.6028
   16SAPS  H20T 2079   6.554   0.972   8.517  0.4724 -0.2732 -2.2371
   16SAPS   C33 2080   6.371   1.387   7.340 -0.2089 -0.5332  0.1446
   16SAPS   H3X 2081   6.384   1.493   7.310 -0.4642  0.0374  1.9569
   16SAPS   H3Y 2082   6.450   1.332   7.285  0.7483  0.5788  0.3763
   16SAPS   C34 2083   6.409   1.386   7.485  0.4598  0.5177 -0.6321
   16SAPS   H4X 2084   6.346   1.458   7.542 -1.5002 -0.7704 -1.1276
   16SAPS   H4Y 2085   6.514   1.422   7.492  0.5228  0.3541 -0.7153
   16SAPS   C35 2086   6.395   1.251   7.559 -0.3676  0.4570  0.1315
   16SAPS   H5X 2087   6.457   1.172   7.512 -0.1997 -0.3023  1.6001
   16SAPS   H5Y 2088   6.290   1.222   7.539  0.0755 -2.2773  1.5554
   16SAPS   C36 2089   6.428   1.275   7.706 -0.0728  0.7094 -0.2245
   16SAPS   H6X 2090   6.374   1.368   7.735 -3.5925 -1.9240  2.0266
   16SAPS   H6Y 2091   6.537   1.296   7.708  0.1785 -0.3536 -1.6397
   16SAPS   C37 2092   6.387   1.164   7.803 -0.6389 -0.5631 -0.3349
   16SAPS   H7X 2093   6.418   1.063   7.769  0.9675  0.6786 -2.7220
   16SAPS   H7Y 2094   6.277   1.177   7.810 -0.3873  1.6904 -0.2351
   16SAPS   C38 2095   6.450   1.169   7.943 -0.4152  0.4720 -0.0121
   16SAPS   H8X 2096   6.552   1.212   7.936 -0.7732  1.3369  0.0071
   16SAPS   H8Y 2097   6.451   1.069   7.990 -4.6961  0.0048 -0.6441
   16SAPS   C39 2098   6.375   1.261   8.043 -0.1625  0.2667  0.2526
   16SAPS   H9X 2099   6.377   1.358   7.989 -2.8161  0.0667 -0.2834
   16SAPS   H9Y 2100   6.447   1.263   8.127  0.7738 -0.4103 -0.5327
   16SAPS  C310 2101   6.231   1.224   8.083  0.4493 -0.1684 -0.3926
   16SAPS  H10X 2102   6.236   1.120   8.122  1.8727 -0.1774 -0.5753
   16SAPS  H10Y 2103   6.167   1.224   7.992 -2.4138  0.4312  1.5606
   16SAPS  C311 2104   6.162   1.317   8.189  0.4349  0.5124 -0.2531
   16SAPS  H11X 2105   6.156   1.417   8.141 -0.0839  0.4636 -0.3007
   16SAPS  H11Y 2106   6.213   1.335   8.286 -2.4070  1.4362  1.1350
   16SAPS  C312 2107   6.023   1.256   8.226 -0.2540  0.5822  0.1609
   16SAPS  H12X 2108   6.025   1.150   8.259  0.2317  0.6060  0.2083
   16SAPS  H12Y 2109   5.966   1.251   8.131  2.1256  1.1488 -1.3382
   16SAPS  C313 2110   5.950   1.342   8.328 -0.1455 -0.5950  0.2332
   16SAPS  H13X 2111   5.921   1.442   8.287 -0.7552 -0.5044  0.8833
   16SAPS  H13Y 2112   6.001   1.360   8.425  0.5637 -1.0762 -0.0476
   16SAPS  C314 2113   5.816   1.267   8.375 -0.5906  0.0700 -0.7284
   16SAPS  H14X 2114   5.841   1.164   8.406 -0.0247  0.7147  0.9721
   16SAPS  H14Y 2115   5.748   1.250   8.289  0.2502 -0.4311 -1.3006
   16SAPS  C315 2116   5.747   1.346   8.493  0.7583  0.7546 -0.5539
   16SAPS  H15X 2117   5.703   1.444   8.465 -1.7893  0.1127  1.0276
   16SAPS  H15Y 2118   5.838   1.362   8.555  0.3640  1.1068 -0.0671
   16SAPS  C316 2119   5.632   1.276   8.563  0.4681 -0.3217 -0.4759
   16SAPS  H16X 2120   5.600   1.320   8.659 -1.1743  1.1480 -1.6731
   16SAPS  H16Y 2121   5.670   1.174   8.588  0.5876 -0.5538 -1.5790
   16SAPS  C317 2122   5.511   1.262   8.469 -1.0900  0.1593 -0.1803
   16SAPS  H17X 2123   5.559   1.233   8.373 -2.7831 -1.5773 -0.5400
   16SAPS  H17Y 2124   5.467   1.363   8.467  2.8103  1.9510 -0.8003
   16SAPS  C318 2125   5.410   1.156   8.511  0.4589 -0.0723 -0.0505
   16SAPS  H18X 2126   5.451   1.053   8.503 -0.2641 -0.4691  1.1873
   16SAPS  H18Y 2127   5.324   1.172   8.443 -1.3171  0.8875  2.3254
   16SAPS  H18Z 2128   5.394   1.169   8.620  2.4684  0.5724  0.1994
   17SAPC     N 2129   3.578   5.660  10.463  0.7090  0.5083  0.7792
   17SAPC   C12 2130   3.553   5.510  10.430 -0.5712 -0.2522  0.4654
   17SAPC  H12A 2131   3.461   5.507  10.373 -0.8091 -1.2063  0.8859
   17SAPC  H12B 2132   3.537   5.462  10.525  0.4403  0.4480  0.9949
   17SAPC   C13 2133   3.458   5.720  10.527 -0.1800 -0.6316 -0.3659
   17SAPC  H13A 2134   3.471   5.828  10.526  1.0203 -0.7684 -0.6400
   17SAPC  H13B 2135   3.381   5.694  10.456 -0.0587 -0.6435 -0.4953
   17SAPC  H13C 2136   3.441   5.678  10.625 -0.2655  0.1914 -0.0237
   17SAPC   C14 2137   3.706   5.674  10.540  0.2514 -0.8372  0.2837
   17SAPC  H14A 2138   3.751   5.771  10.525 -1.7424 -0.0782 -1.0449
   17SAPC  H14B 2139   3.676   5.654  10.642 -0.8272 -0.3270  0.0730
   17SAPC  H14C 2140   3.775   5.594  10.518  1.8333  1.0590 -1.7932
   17SAPC   C15 2141   3.598   5.741  10.332 -0.0743 -0.2745 -0.4984
   17SAPC  H15A 2142   3.666   5.688  10.266  0.4977  2.5725 -2.2927
   17SAPC  H15B 2143   3.503   5.742  10.280 -0.4820 -2.2247  0.1763
   17SAPC  H15C 2144   3.631   5.844  10.340 -2.8314  0.5881  0.1099
   17SAPC   C11 2145   3.661   5.439  10.338 -0.8427  0.1611  0.3342
   17SAPC  H11A 2146   3.657   5.489  10.239  3.9883 -1.0527 -0.6388
   17SAPC  H11B 2147   3.638   5.332  10.317  1.6217 -0.3901  0.2819
   17SAPC     P 2148   3.873   5.340  10.451 -0.3169 -0.1691 -0.1691
   17SAPC   O13 2149   4.015   5.384  10.473  0.0938  0.7516  0.3510
   17SAPC   O14 2150   3.793   5.327  10.575  0.3871  0.2402 -0.1147
   17SAPC   O12 2151   3.799   5.457  10.375 -0.1066 -0.3086 -0.3225
   17SAPC   O11 2152   3.859   5.209  10.368 -0.2410 -0.0528  0.3230
   17SAPC    C1 2153   3.960   5.158  10.284 -0.0748  0.1832  0.4141
   17SAPC    HA 2154   4.025   5.241  10.247  1.9576 -1.2985  0.6090
   17SAPC    HB 2155   4.027   5.091  10.341 -0.2724 -1.2249 -0.9639
   17SAPC    C2 2156   3.902   5.100  10.156  0.2759 -0.3214  0.1993
   17SAPC    HS 2157   3.894   4.991  10.173 -0.8016  0.1388  2.8891
   17SAPC   O21 2158   3.982   5.138  10.040  0.9851 -0.0945  0.7121
   17SAPC   C21 2159   4.096   5.067  10.034  0.6545  0.4592 -0.2410
   17SAPC   O22 2160   4.118   4.966  10.103 -0.1476 -0.5190 -0.4634
   17SAPC   C22 2161   4.193   5.139   9.926  0.3388 -0.1890  0.2083
   17SAPC   H2R 2162   4.130   5.173   9.840  1.1295  4.4694  1.3699
   17SAPC   H2S 2163   4.223   5.233   9.976  0.4223  0.6867 -1.4350
   17SAPC    C3 2164   3.754   5.133  10.125 -0.1705 -0.1786 -0.4261
   17SAPC    HX 2165   3.752   5.244  10.125 -0.8821 -0.1848  1.7955
   17SAPC    HY 2166   3.686   5.094  10.204 -1.0239  1.1491 -0.4932
   17SAPC   O31 2167   3.711   5.081   9.998  0.7246 -0.1767  0.8574
   17SAPC   C31 2168   3.653   4.964   9.995  0.3066  0.7162  0.8213
   17SAPC   O32 2169   3.619   4.892  10.090  0.1191 -0.3550 -0.0734
   17SAPC   C32 2170   3.644   4.925   9.850 -0.3782  0.3319  0.3735
   17SAPC   H2X 2171   3.545   4.952   9.808  0.2484  1.1446 -0.6141
   17SAPC   H2Y 2172   3.660   4.815   9.849 -0.1545  0.3641 -0.3600
   17SAPC   C23 2173   4.326   5.059   9.896  0.3765  0.1018 -0.1397
   17SAPC   H3R 2174   4.378   5.037   9.992 -0.8772  0.0514  0.5483
   17SAPC   H3S 2175   4.383   5.136   9.841 -1.0446  2.1389  1.1671
   17SAPC   C24 2176   4.312   4.932   9.819  0.7542 -0.4324 -0.6313
   17SAPC   H4R 2177   4.248   4.855   9.868  0.6511 -0.7015 -1.1876
   17SAPC   H4S 2178   4.411   4.881   9.812  1.4264  0.8228 -0.4213
   17SAPC   C25 2179   4.245   4.952   9.681 -0.5594 -0.0826 -0.1928
   17SAPC   H5R 2180   4.137   4.969   9.681 -0.4512  0.6722  1.4397
   17SAPC   C26 2181   4.304   4.944   9.558 -0.4731 -0.9071  0.0403
   17SAPC   H6R 2182   4.240   4.958   9.469 -1.7128 -1.6412  0.7968
   17SAPC   C27 2183   4.448   4.906   9.535 -0.5343 -0.0058  0.3889
   17SAPC   H7R 2184   4.515   4.927   9.621 -1.2897 -1.2361  1.2781
   17SAPC   H7S 2185   4.494   4.972   9.458  0.5544  1.2659  2.0766
   17SAPC   C28 2186   4.466   4.757   9.499  0.2373 -0.7971 -0.1445
   17SAPC   H8R 2187   4.480   4.685   9.581  3.9292 -1.6941 -1.4789
   17SAPC   C29 2188   4.479   4.704   9.377 -0.2207 -0.9916 -0.6081
   17SAPC   H9R 2189   4.491   4.594   9.381  4.7138 -0.5685 -0.6007
   17SAPC  C210 2190   4.474   4.769   9.244  0.4298  0.3611 -0.1605
   17SAPC  H10R 2191   4.577   4.783   9.204  1.2183  0.7122  1.9318
   17SAPC  H10S 2192   4.423   4.868   9.251 -0.8332 -0.2248 -0.8991
   17SAPC  C211 2193   4.385   4.678   9.156  0.1877 -0.2495  0.3332
   17SAPC  H11R 2194   4.283   4.718   9.153 -0.1418 -0.6515  3.8629
   17SAPC  C212 2195   4.425   4.572   9.077  0.1872 -0.6311 -0.3294
   17SAPC  H12R 2196   4.345   4.530   9.014  2.0753 -1.3862 -2.2740
   17SAPC  C213 2197   4.565   4.526   9.056 -0.1005 -0.4261  0.2906
   17SAPC  H13R 2198   4.642   4.580   9.116  1.0601 -1.3021 -0.3710
   17SAPC  H13S 2199   4.606   4.554   8.957  1.9103 -4.0842 -0.0373
   17SAPC  C214 2200   4.598   4.383   9.082  0.2619  0.2361  0.2685
   17SAPC  H14R 2201   4.523   4.322   9.135  1.8607 -0.9460  1.2456
   17SAPC  C215 2202   4.707   4.319   9.037 -0.2660 -0.0564  0.2155
   17SAPC  H15R 2203   4.718   4.210   9.048  1.3014  0.2471  2.0871
   17SAPC  C216 2204   4.824   4.376   8.952  0.3010  0.2134 -0.8260
   17SAPC  H16R 2205   4.804   4.469   8.895 -1.4302  0.2345 -0.1892
   17SAPC  H16S 2206   4.835   4.295   8.876 -0.9915  0.1470 -0.9523
   17SAPC  C217 2207   4.956   4.390   9.036 -0.0023  0.9205 -0.6268
   17SAPC  H17R 2208   4.968   4.298   9.098 -2.5557  0.2667 -1.0581
   17SAPC  H17S 2209   4.944   4.473   9.108  0.8797  0.5834 -0.0759
   17SAPC  C218 2210   5.084   4.395   8.966 -0.3296 -0.1881 -0.9153
   17SAPC  H18R 2211   5.087   4.301   8.908 -4.9064 -0.4290 -0.8797
   17SAPC  H18S 2212   5.167   4.392   9.041 -1.6273  1.0685  0.6242
   17SAPC  C219 2213   5.111   4.525   8.881  0.4266  0.2046 -0.2776
   17SAPC  H19R 2214   5.049   4.529   8.789  3.6942 -2.2903 -2.7245
   17SAPC  H19S 2215   5.217   4.526   8.850 -0.4916 -1.4143 -3.7275
   17SAPC  C220 2216   5.076   4.653   8.954  0.0281 -0.4435  0.8226
   17SAPC  H20R 2217   4.971   4.682   8.933 -0.3379  0.1477  3.2909
   17SAPC  H20S 2218   5.137   4.734   8.908  0.1034 -1.9111 -1.7507
   17SAPC  H20T 2219   5.091   4.642   9.064 -2.2037 -2.3876  0.9761
   17SAPC   C33 2220   3.739   5.003   9.757  0.1834  0.6328 -0.2485
   17SAPC   H3X 2221   3.846   4.989   9.784 -0.2873 -0.6423  1.0262
   17SAPC   H3Y 2222   3.731   5.114   9.762  0.8565  0.7415 -1.4418
   17SAPC   C34 2223   3.720   4.975   9.608 -1.4218 -0.2237 -0.0476
   17SAPC   H4X 2224   3.631   5.025   9.564  0.7649  2.3373 -1.6853
   17SAPC   H4Y 2225   3.705   4.865   9.602 -0.9985 -0.3440  0.9941
   17SAPC   C35 2226   3.841   5.029   9.524 -0.1523  0.4879  0.0897
   17SAPC   H5X 2227   3.932   4.987   9.572 -1.3706  0.1086  2.1370
   17SAPC   H5Y 2228   3.849   5.140   9.525 -2.8993  0.7019  1.2234
   17SAPC   C36 2229   3.833   4.986   9.383 -0.6989 -0.1512  0.0039
   17SAPC   H6X 2230   3.760   5.050   9.330 -1.2463 -0.9560 -0.2104
   17SAPC   H6Y 2231   3.795   4.882   9.381  0.4590 -0.5917  0.3952
   17SAPC   C37 2232   3.960   4.999   9.305 -0.2100  0.3111  0.3715
   17SAPC   H7X 2233   4.032   4.942   9.368  0.8751 -0.3500 -1.4292
   17SAPC   H7Y 2234   3.992   5.105   9.306  0.5248  0.0876  0.8495
   17SAPC   C38 2235   3.965   4.946   9.160 -0.5794 -0.0632 -0.0266
   17SAPC   H8X 2236   4.052   4.999   9.115 -0.5607 -0.9654 -1.0825
   17SAPC   H8Y 2237   3.877   4.980   9.102 -1.3795 -2.6264 -0.3751
   17SAPC   C39 2238   3.977   4.796   9.150 -0.0316 -0.6319 -0.3468
   17SAPC   H9X 2239   3.904   4.750   9.219 -0.4172  0.4391 -0.0387
   17SAPC   H9Y 2240   4.074   4.757   9.188 -1.2608 -0.9434  2.5667
   17SAPC  C310 2241   3.967   4.731   9.007 -0.1194  0.1247  0.0084
   17SAPC  H10X 2242   3.865   4.754   8.968 -1.0398 -1.8687  1.1516
   17SAPC  H10Y 2243   3.984   4.622   9.007 -2.7040 -0.3270 -1.7281
   17SAPC  C311 2244   4.072   4.783   8.910 -0.0746 -0.1584  0.2755
   17SAPC  H11X 2245   4.171   4.770   8.959  1.5893  2.8828 -2.1616
   17SAPC  H11Y 2246   4.071   4.894   8.901 -1.5740 -0.4329 -3.6580
   17SAPC  C312 2247   4.063   4.704   8.777 -0.5775 -0.2971 -0.3869
   17SAPC  H12X 2248   3.961   4.705   8.731  0.5638 -0.0675 -3.0228
   17SAPC  H12Y 2249   4.085   4.599   8.803 -0.5646 -0.0190  0.7406
   17SAPC  C313 2250   4.153   4.753   8.659 -0.5819  0.2041  0.1909
   17SAPC  H13X 2251   4.122   4.859   8.648  1.5655  0.8601  0.1237
   17SAPC  H13Y 2252   4.133   4.685   8.574  0.6381 -0.3316  0.3191
   17SAPC  C314 2253   4.306   4.749   8.695  0.5298 -0.0173  0.2337
   17SAPC  H14X 2254   4.333   4.650   8.738 -0.4694 -1.4752 -2.3742
   17SAPC  H14Y 2255   4.314   4.818   8.782 -2.1433  1.2083 -0.4240
   17SAPC  C315 2256   4.409   4.795   8.587 -0.0042 -0.3138  0.7470
   17SAPC  H15X 2257   4.407   4.906   8.584  1.0210 -0.2618  1.7101
   17SAPC  H15Y 2258   4.375   4.749   8.492 -1.9933  0.8285  0.8910
   17SAPC  C316 2259   4.551   4.742   8.632  0.0974 -0.0777 -1.0557
   17SAPC  H16X 2260   4.533   4.633   8.648  0.0545 -0.2533 -2.2252
   17SAPC  H16Y 2261   4.586   4.790   8.725  1.0073  1.8199 -2.3632
   17SAPC  C317 2262   4.654   4.767   8.521  0.5598 -0.1283 -0.4041
   17SAPC  H17X 2263   4.653   4.876   8.499  0.0494  0.0220  0.3594
   17SAPC  H17Y 2264   4.628   4.715   8.426 -0.7778  0.2020 -0.2336
   17SAPC  C318 2265   4.799   4.735   8.570 -0.3110  0.3600 -0.1122
   17SAPC  H18X 2266   4.873   4.740   8.487  1.1367  2.2816  1.2706
   17SAPC  H18Y 2267   4.829   4.814   8.642  0.3834 -0.7878  0.8873
   17SAPC  H18Z 2268   4.802   4.639   8.627 -0.1556 -0.7451 -1.9332
   18SAPC     N 2269   4.502   5.497  10.728  0.6481 -0.0507  0.6365
   18SAPC   C12 2270   4.645   5.456  10.739 -1.1456 -0.0576 -0.4644
   18SAPC  H12A 2271   4.685   5.501  10.829  0.8475 -1.5728 -0.5618
   18SAPC  H12B 2272   4.699   5.498  10.655  0.6603  0.7893  1.0861
   18SAPC   C13 2273   4.499   5.649  10.749 -0.6193  0.9248 -0.8588
   18SAPC  H13A 2274   4.574   5.696  10.686  1.9211 -1.8146 -0.0167
   18SAPC  H13B 2275   4.400   5.686  10.729 -2.1688 -2.1484  0.8112
   18SAPC  H13C 2276   4.507   5.671  10.855 -1.5232 -1.2490 -0.3168
   18SAPC   C14 2277   4.445   5.468  10.592 -0.4906 -0.5107  0.0377
   18SAPC  H14A 2278   4.344   5.506  10.590 -0.0807  0.6503  0.5787
   18SAPC  H14B 2279   4.499   5.522  10.515 -0.7937 -1.7070 -1.0377
   18SAPC  H14C 2280   4.462   5.364  10.567  3.4248 -0.3555  1.7758
   18SAPC   C15 2281   4.419   5.432  10.832  0.1614 -0.3373 -0.0385
   18SAPC  H15A 2282   4.323   5.480  10.844 -0.1728 -1.1193  0.4538
   18SAPC  H15B 2283   4.407   5.328  10.807 -2.4069 -0.1519  0.3455
   18SAPC  H15C 2284   4.456   5.445  10.932  0.9917  0.0060 -0.3855
   18SAPC   C11 2285   4.678   5.302  10.741  0.1106 -0.1562 -0.7612
   18SAPC  H11A 2286   4.622   5.243  10.817  2.5382 -0.7014  0.6860
   18SAPC  H11B 2287   4.783   5.291  10.776 -0.0883 -0.3542 -0.2117
   18SAPC     P 2288   4.767   5.241  10.509  0.0788 -0.1528 -0.4821
   18SAPC   O13 2289   4.718   5.160  10.394 -0.1385  0.0416 -0.6538
   18SAPC   O14 2290   4.821   5.376  10.482  0.0368  0.2810  0.4051
   18SAPC   O12 2291   4.651   5.242  10.614  0.3736 -0.5001 -0.1150
   18SAPC   O11 2292   4.871   5.150  10.582 -0.1785 -0.0754  0.2530
   18SAPC    C1 2293   5.008   5.152  10.544  0.3227  0.0998 -0.2751
   18SAPC    HA 2294   5.030   5.232  10.471  0.8540  0.4208  0.2290
   18SAPC    HB 2295   5.074   5.162  10.633  1.6852  2.4834 -1.5077
   18SAPC    C2 2296   5.062   5.019  10.474  0.5878  0.3039  0.1203
   18SAPC    HS 2297   5.167   5.048  10.453  0.8855  1.2571  2.7658
   18SAPC   O21 2298   4.989   4.989  10.357 -0.4789  0.0737 -0.3767
   18SAPC   C21 2299   5.021   5.058  10.248  0.2252  0.6782  0.3976
   18SAPC   O22 2300   5.122   5.129  10.241  0.0637 -0.3793  0.1847
   18SAPC   C22 2301   4.918   5.040  10.138 -0.8259  0.7536  0.5028
   18SAPC   H2R 2302   4.890   4.932  10.145 -2.4345  1.0172 -1.5044
   18SAPC   H2S 2303   4.829   5.102  10.162 -1.3546 -0.4162  1.6055
   18SAPC    C3 2304   5.054   4.889  10.561  0.5647 -0.0314  0.2366
   18SAPC    HX 2305   4.953   4.847  10.580  0.4510  0.5493  0.9371
   18SAPC    HY 2306   5.099   4.902  10.662 -0.3310  0.2486  0.6083
   18SAPC   O31 2307   5.139   4.778  10.512  0.4477  0.1786  0.0592
   18SAPC   C31 2308   5.080   4.707  10.410 -0.1020 -0.4470  0.3185
   18SAPC   O32 2309   4.961   4.705  10.386  0.0652  0.1544  0.0245
   18SAPC   C32 2310   5.178   4.612  10.338  0.5218  0.2001  0.3597
   18SAPC   H2X 2311   5.197   4.527  10.408  1.5046 -1.6581 -2.1023
   18SAPC   H2Y 2312   5.270   4.668  10.311 -1.2741  1.9701 -2.2335
   18SAPC   C23 2313   4.960   5.071   9.990 -0.2485 -0.7797 -0.3975
   18SAPC   H3R 2314   5.039   5.000   9.957  0.5981 -0.1194  0.2008
   18SAPC   H3S 2315   5.007   5.171   9.989  3.7776 -2.5379  1.3533
   18SAPC   C24 2316   4.847   5.072   9.883  0.6793  0.3435  0.6446
   18SAPC   H4R 2317   4.884   5.120   9.790  0.1280 -0.2106  0.1359
   18SAPC   H4S 2318   4.762   5.134   9.918 -0.2726 -1.0224  0.8201
   18SAPC   C25 2319   4.800   4.936   9.857  0.1933 -0.2840  0.5717
   18SAPC   H5R 2320   4.764   4.884   9.947  0.8018 -0.3556  0.7710
   18SAPC   C26 2321   4.799   4.879   9.732  0.7852  0.0513  0.3893
   18SAPC   H6R 2322   4.755   4.778   9.731  0.5434  0.1575 -1.6151
   18SAPC   C27 2323   4.830   4.948   9.599 -0.0000  0.0655  0.2715
   18SAPC   H7R 2324   4.794   5.052   9.590  1.2396  0.6410  1.8148
   18SAPC   H7S 2325   4.784   4.882   9.522  0.7410  0.8812 -0.8671
   18SAPC   C28 2326   4.978   4.965   9.582  0.2286  0.8611  0.2709
   18SAPC   H8R 2327   5.031   4.996   9.674 -1.4064  1.1722  1.1336
   18SAPC   C29 2328   5.033   4.971   9.460 -0.3614  0.2294  0.0062
   18SAPC   H9R 2329   5.143   4.976   9.455 -0.2643 -1.1651  0.4344
   18SAPC  C210 2330   4.959   4.954   9.329 -0.4570 -0.1211  0.0731
   18SAPC  H10R 2331   4.852   4.929   9.349 -0.0193 -1.9587  0.1630
   18SAPC  H10S 2332   4.995   4.871   9.264 -1.4274  1.9586 -3.2700
   18SAPC  C211 2333   4.959   5.086   9.264 -0.1169  0.3954  0.3381
   18SAPC  H11R 2334   4.905   5.164   9.319 -2.4258 -0.0822 -1.1980
   18SAPC  C212 2335   5.010   5.119   9.143  0.8567  0.1624  0.8960
   18SAPC  H12R 2336   4.998   5.222   9.105  2.7252  0.1620  0.2532
   18SAPC  C213 2337   5.086   5.020   9.055 -0.5232  1.3341  0.7599
   18SAPC  H13R 2338   5.022   4.954   8.993  0.2595  1.2341  0.0462
   18SAPC  H13S 2339   5.150   4.947   9.108 -0.1896  0.8677 -0.2794
   18SAPC  C214 2340   5.181   5.095   8.964 -0.3971  0.2431 -0.3245
   18SAPC  H14R 2341   5.259   5.151   9.018 -0.4379 -1.7324  1.8945
   18SAPC  C215 2342   5.179   5.127   8.832 -0.6831 -0.1317  0.2117
   18SAPC  H15R 2343   5.273   5.164   8.789 -1.3129  1.3253  0.0548
   18SAPC  C216 2344   5.076   5.100   8.735  0.1318 -0.5405 -0.4411
   18SAPC  H16R 2345   5.031   4.999   8.746 -3.1271  1.0114  1.2316
   18SAPC  H16S 2346   5.118   5.101   8.632  0.5537  3.1835 -0.3057
   18SAPC  C217 2347   4.961   5.201   8.727  0.7048  0.1765  0.5524
   18SAPC  H17R 2348   5.006   5.297   8.695 -0.8554  0.4496 -0.8975
   18SAPC  H17S 2349   4.910   5.204   8.825 -0.2281 -1.6884  0.1449
   18SAPC  C218 2350   4.847   5.162   8.625 -0.5965 -0.7678 -0.6301
   18SAPC  H18R 2351   4.837   5.052   8.639 -1.0123 -0.6030  0.4100
   18SAPC  H18S 2352   4.891   5.175   8.523 -1.0267  0.9102 -0.6224
   18SAPC  C219 2353   4.721   5.249   8.648  0.3481  0.8678 -0.2999
   18SAPC  H19R 2354   4.752   5.356   8.651  1.0404  0.6505  0.5138
   18SAPC  H19S 2355   4.684   5.225   8.750  1.1439  3.8581  0.7508
   18SAPC  C220 2356   4.614   5.234   8.538  0.0981  0.0304  0.0436
   18SAPC  H20R 2357   4.568   5.133   8.540 -2.0026  0.8519 -3.8756
   18SAPC  H20S 2358   4.655   5.264   8.439  0.6558 -3.1861 -0.7375
   18SAPC  H20T 2359   4.533   5.303   8.570  0.6245  0.9555 -0.5815
   18SAPC   C33 2360   5.132   4.562  10.194 -0.3898 -0.5465 -0.1767
   18SAPC   H3X 2361   5.024   4.537  10.201  0.5062 -4.2868  1.6985
   18SAPC   H3Y 2362   5.196   4.473  10.175 -1.0663 -1.2885  0.9892
   18SAPC   C34 2363   5.145   4.668  10.085  0.0341 -0.3114 -0.5038
   18SAPC   H4X 2364   5.247   4.710  10.077 -0.7935  1.5276 -1.8403
   18SAPC   H4Y 2365   5.081   4.756  10.109  0.4570  0.4729 -2.1701
   18SAPC   C35 2366   5.105   4.609   9.945 -0.2602 -0.7905 -0.7990
   18SAPC   H5X 2367   4.997   4.586   9.945 -0.0908 -1.6112 -0.5704
   18SAPC   H5Y 2368   5.169   4.520   9.927 -1.2780 -1.4193 -1.3129
   18SAPC   C36 2369   5.132   4.710   9.830 -0.1097  0.2018 -0.7093
   18SAPC   H6X 2370   5.230   4.760   9.846 -0.6977  0.2483  3.3697
   18SAPC   H6Y 2371   5.059   4.794   9.833  1.0910  1.2069  2.3452
   18SAPC   C37 2372   5.129   4.652   9.699 -0.0750  0.1043 -0.2246
   18SAPC   H7X 2373   5.216   4.583   9.691 -0.8471 -0.8392 -0.6305
   18SAPC   H7Y 2374   5.137   4.729   9.620 -0.2325 -0.7440 -1.0778
   18SAPC   C38 2375   4.995   4.587   9.653  0.6252  0.4640  0.5604
   18SAPC   H8X 2376   4.915   4.660   9.677  0.4774  0.5399 -0.1560
   18SAPC   H8Y 2377   4.982   4.497   9.717 -2.9954  1.1491  0.8917
   18SAPC   C39 2378   4.992   4.567   9.499 -0.0596 -0.6481 -0.8449
   18SAPC   H9X 2379   5.084   4.513   9.471  0.6946 -0.3952  1.0836
   18SAPC   H9Y 2380   4.989   4.666   9.449 -0.0021  0.9783  2.2346
   18SAPC  C310 2381   4.870   4.487   9.469 -0.0380  0.7544 -0.3886
   18SAPC  H10X 2382   4.849   4.508   9.361 -0.9182 -0.2582 -0.4219
   18SAPC  H10Y 2383   4.789   4.522   9.537 -0.1987  2.2031 -1.2946
   18SAPC  C311 2384   4.896   4.336   9.482  0.4395  0.0402  0.1547
   18SAPC  H11X 2385   4.948   4.309   9.577  1.2598  0.5212 -0.1577
   18SAPC  H11Y 2386   4.969   4.303   9.405  1.3633  0.5551  0.7932
   18SAPC  C312 2387   4.769   4.252   9.473 -0.2458 -0.2690  0.7480
   18SAPC  H12X 2388   4.741   4.261   9.365  1.3957 -1.1905  0.2255
   18SAPC  H12Y 2389   4.683   4.291   9.532 -0.6214 -0.7820  0.5505
   18SAPC  C313 2390   4.800   4.105   9.518  0.0784  0.5211  0.3792
   18SAPC  H13X 2391   4.841   4.108   9.621 -1.9136 -0.6121  1.2279
   18SAPC  H13Y 2392   4.884   4.068   9.456 -1.1435  0.9544 -1.5782
   18SAPC  C314 2393   4.686   3.998   9.512  0.3258  0.4458 -0.1683
   18SAPC  H14X 2394   4.604   4.039   9.574  1.7148  0.0100  2.0373
   18SAPC  H14Y 2395   4.708   3.900   9.561  1.6832  1.2287  0.8354
   18SAPC  C315 2396   4.625   3.964   9.373  0.2200  0.7830  0.0618
   18SAPC  H15X 2397   4.593   4.057   9.322  0.8439 -0.7167 -3.1500
   18SAPC  H15Y 2398   4.537   3.901   9.400 -0.2530  1.1028 -0.7231
   18SAPC  C316 2399   4.718   3.891   9.277 -0.2937  0.1545  0.5051
   18SAPC  H16X 2400   4.777   3.817   9.334 -2.3292 -1.5182  0.5221
   18SAPC  H16Y 2401   4.788   3.967   9.237  0.2655 -1.0140 -0.7759
   18SAPC  C317 2402   4.647   3.834   9.153  0.2439  0.7112  0.4566
   18SAPC  H17X 2403   4.584   3.749   9.184  1.4495  0.1236  1.3378
   18SAPC  H17Y 2404   4.727   3.792   9.088  1.3251  1.3613  1.3337
   18SAPC  C318 2405   4.560   3.930   9.070 -0.1723  0.2146 -0.5319
   18SAPC  H18X 2406   4.461   3.943   9.120  0.4115  1.4289  0.3369
   18SAPC  H18Y 2407   4.536   3.890   8.969  1.8636 -0.6733 -0.6782
   18SAPC  H18Z 2408   4.598   4.034   9.068 -0.3496  0.3541  1.6727
   19SAPC     N 2409   4.050   6.034  10.669 -0.0915 -0.2950 -0.0144
   19SAPC   C12 2410   4.012   6.082  10.520  0.6847  0.3530 -0.3091
   19SAPC  H12A 2411   3.967   5.996  10.472 -1.6999  1.3647  0.0435
   19SAPC  H12B 2412   4.098   6.121  10.468  1.0394  1.6358  1.2094
   19SAPC   C13 2413   4.158   5.935  10.655 -0.0824 -0.3865 -0.5565
   19SAPC  H13A 2414   4.192   5.907  10.753 -4.7558 -1.8991  0.7612
   19SAPC  H13B 2415   4.131   5.842  10.607 -1.1404  0.9845 -2.7163
   19SAPC  H13C 2416   4.225   5.981  10.583  0.4612  3.4963  2.2448
   19SAPC   C14 2417   4.089   6.153  10.752  0.2730  0.2964 -0.7927
   19SAPC  H14A 2418   4.148   6.225  10.697 -1.3262  2.4031  0.1492
   19SAPC  H14B 2419   4.006   6.207  10.796  0.1214 -0.3951 -0.2199
   19SAPC  H14C 2420   4.138   6.136  10.847 -0.5738 -0.2215 -0.4384
   19SAPC   C15 2421   3.934   5.963  10.734 -0.0235  0.8685 -0.0854
   19SAPC  H15A 2422   3.956   5.941  10.837 -2.4989 -0.3711  0.2096
   19SAPC  H15B 2423   3.837   6.007  10.714  0.1319  0.8694 -0.8659
   19SAPC  H15C 2424   3.923   5.869  10.681  2.1699  1.0655 -0.9574
   19SAPC   C11 2425   3.927   6.210  10.512 -0.1899 -0.0302  0.7888
   19SAPC  H11A 2426   3.922   6.244  10.407 -0.2436 -0.5364  0.6288
   19SAPC  H11B 2427   3.977   6.289  10.573 -0.3586  2.6212 -2.4037
   19SAPC     P 2428   3.666   6.126  10.503 -0.3210 -0.1130 -0.5633
   19SAPC   O13 2429   3.696   6.003  10.432  0.4271  0.4884  0.1082
   19SAPC   O14 2430   3.565   6.116  10.607  0.2761  0.7584 -0.0393
   19SAPC   O12 2431   3.797   6.188  10.571 -0.0218  1.0092 -0.1564
   19SAPC   O11 2432   3.612   6.227  10.392  0.2850 -0.2459 -0.8078
   19SAPC    C1 2433   3.578   6.357  10.445 -0.5895  0.3768 -0.8315
   19SAPC    HA 2434   3.472   6.365  10.477  0.2450 -0.1681  2.1684
   19SAPC    HB 2435   3.637   6.387  10.534 -0.0727 -1.5863 -0.5036
   19SAPC    C2 2436   3.590   6.466  10.325 -0.4960  0.3880 -0.2252
   19SAPC    HS 2437   3.584   6.568  10.370 -0.6283  0.5652 -0.6398
   19SAPC   O21 2438   3.485   6.450  10.229  0.7040 -0.0085  0.2360
   19SAPC   C21 2439   3.362   6.474  10.274 -0.3157 -0.0080 -0.2530
   19SAPC   O22 2440   3.333   6.536  10.372 -0.1697 -0.0306  0.4321
   19SAPC   C22 2441   3.264   6.425  10.174  0.3207 -0.1049 -0.0677
   19SAPC   H2R 2442   3.323   6.359  10.107  0.4338 -0.0650 -0.0074
   19SAPC   H2S 2443   3.194   6.361  10.232  1.1044 -2.0851 -1.2542
   19SAPC    C3 2444   3.726   6.455  10.261 -0.0646  0.4752  0.3588
   19SAPC    HX 2445   3.722   6.358  10.205 -1.5539  0.4533  0.4775
   19SAPC    HY 2446   3.803   6.452  10.341 -0.6196  1.6358  0.9384
   19SAPC   O31 2447   3.751   6.559  10.160 -0.0088 -0.1345 -0.1330
   19SAPC   C31 2448   3.870   6.533  10.090  0.8720 -0.2228 -0.2280
   19SAPC   O32 2449   3.941   6.440  10.112  0.4597 -0.5177 -0.4999
   19SAPC   C32 2450   3.885   6.640   9.981  0.2012 -0.4200 -0.0336
   19SAPC   H2X 2451   3.921   6.737  10.021 -1.8403  0.4712 -0.3005
   19SAPC   H2Y 2452   3.780   6.659   9.951 -0.2214 -2.1945  0.2877
   19SAPC   C23 2453   3.202   6.548  10.104 -0.5674 -0.4469 -0.4664
   19SAPC   H3R 2454   3.131   6.594  10.176  0.5054  1.3353 -0.5464
   19SAPC   H3S 2455   3.137   6.515  10.019 -0.1093  1.0808 -1.4202
   19SAPC   C24 2456   3.309   6.642  10.046 -0.9613 -0.0678  0.1598
   19SAPC   H4R 2457   3.374   6.668  10.131 -0.6570  3.4500 -1.0765
   19SAPC   H4S 2458   3.261   6.737  10.015  1.1968  1.4997  1.5669
   19SAPC   C25 2459   3.387   6.591   9.928 -0.4966 -0.4065 -0.0012
   19SAPC   H5R 2460   3.445   6.502   9.956 -0.9320 -0.0241  2.1824
   19SAPC   C26 2461   3.386   6.635   9.794 -0.8368  0.1377  0.0605
   19SAPC   H6R 2462   3.435   6.578   9.713 -0.7303  0.9577 -0.4570
   19SAPC   C27 2463   3.314   6.740   9.723 -0.8344 -0.2079  0.6965
   19SAPC   H7R 2464   3.383   6.822   9.695 -0.4517 -0.8553 -0.2558
   19SAPC   H7S 2465   3.250   6.776   9.807  1.4939  2.7733  1.2812
   19SAPC   C28 2466   3.231   6.712   9.599  0.0621  0.2377 -0.0122
   19SAPC   H8R 2467   3.140   6.653   9.617  0.4367  0.2307  2.0325
   19SAPC   C29 2468   3.251   6.743   9.466 -0.9093 -0.5220 -0.1477
   19SAPC   H9R 2469   3.170   6.716   9.397  0.5030 -1.1998 -1.5635
   19SAPC  C210 2470   3.381   6.802   9.400 -0.2524  0.0809 -0.4889
   19SAPC  H10R 2471   3.438   6.881   9.455  1.8920 -1.3596 -0.5856
   19SAPC  H10S 2472   3.350   6.863   9.312  0.3342  0.9137 -0.1301
   19SAPC  C211 2473   3.492   6.697   9.362 -0.0706  0.6128 -0.1198
   19SAPC  H11R 2474   3.558   6.663   9.443  1.6805 -0.8772 -2.1084
   19SAPC  C212 2475   3.520   6.645   9.246 -0.0832 -0.2005 -0.1688
   19SAPC  H12R 2476   3.610   6.581   9.238 -1.3644 -2.0932  0.2115
   19SAPC  C213 2477   3.453   6.678   9.111 -0.2815  0.2386 -0.6217
   19SAPC  H13R 2478   3.344   6.659   9.117 -0.3735  0.4352 -1.5810
   19SAPC  H13S 2479   3.490   6.595   9.047  2.2296 -1.8637  3.3356
   19SAPC  C214 2480   3.491   6.811   9.053 -0.5465 -0.1984  0.1417
   19SAPC  H14R 2481   3.527   6.882   9.128  3.5647 -3.5991  1.5443
   19SAPC  C215 2482   3.491   6.854   8.921  0.5707  0.2269 -0.8989
   19SAPC  H15R 2483   3.541   6.948   8.895 -0.7302  0.8059 -1.3107
   19SAPC  C216 2484   3.447   6.768   8.806 -0.0911  0.2309  0.9300
   19SAPC  H16R 2485   3.426   6.824   8.713  0.9158  2.3884  1.9610
   19SAPC  H16S 2486   3.348   6.719   8.819 -0.3271  0.4390 -0.0891
   19SAPC  C217 2487   3.544   6.650   8.773  0.5452 -0.3366  0.1575
   19SAPC  H17R 2488   3.537   6.567   8.847  3.4781  0.1104  1.0072
   19SAPC  H17S 2489   3.649   6.684   8.763  1.3202 -2.1258  1.9604
   19SAPC  C218 2490   3.508   6.585   8.634  0.0014 -0.0651 -0.0265
   19SAPC  H18R 2491   3.480   6.665   8.562 -0.9425 -0.2063  0.1846
   19SAPC  H18S 2492   3.418   6.524   8.656 -0.1386  0.4813  0.9516
   19SAPC  C219 2493   3.602   6.482   8.569  0.2740 -0.6084  0.2928
   19SAPC  H19R 2494   3.710   6.506   8.580 -0.1538  3.4160 -3.2661
   19SAPC  H19S 2495   3.589   6.476   8.459  1.4170  0.0230  0.1183
   19SAPC  C220 2496   3.568   6.342   8.623  0.1472  0.0565 -0.7973
   19SAPC  H20R 2497   3.564   6.330   8.733 -2.2217 -1.7937 -1.0627
   19SAPC  H20S 2498   3.633   6.264   8.578  0.0815  0.2994 -1.3182
   19SAPC  H20T 2499   3.460   6.327   8.603  0.2240 -4.2574  1.5001
   19SAPC   C33 2500   3.975   6.600   9.863  0.2098 -0.1556 -0.0675
   19SAPC   H3X 2501   3.940   6.500   9.831  2.0115 -0.6931 -0.3846
   19SAPC   H3Y 2502   4.079   6.600   9.903 -0.0888  2.7903  0.8547
   19SAPC   C34 2503   3.960   6.704   9.750  0.3292 -0.1757  0.6731
   19SAPC   H4X 2504   4.049   6.698   9.683 -1.0723  0.0150 -1.2703
   19SAPC   H4Y 2505   3.985   6.792   9.812  2.7705 -1.3251  1.3898
   19SAPC   C35 2506   3.824   6.702   9.678 -0.7468 -0.6717  0.0170
   19SAPC   H5X 2507   3.744   6.732   9.748 -0.7861 -1.9657  0.5333
   19SAPC   H5Y 2508   3.801   6.606   9.628  0.5839 -0.3081 -1.3555
   19SAPC   C36 2509   3.818   6.799   9.557  0.7977 -0.2154 -0.3156
   19SAPC   H6X 2510   3.850   6.900   9.593 -0.5283  0.1868 -0.2463
   19SAPC   H6Y 2511   3.712   6.810   9.527  0.5768 -1.1481  0.1230
   19SAPC   C37 2512   3.910   6.763   9.446  0.2015  0.4399  0.2786
   19SAPC   H7X 2513   3.858   6.678   9.396  4.1021 -2.0178  0.1763
   19SAPC   H7Y 2514   4.005   6.718   9.482 -0.2287  0.2138  1.1405
   19SAPC   C38 2515   3.945   6.884   9.357 -0.0188 -0.1864  0.3351
   19SAPC   H8X 2516   4.015   6.843   9.281  0.1986 -0.3760  0.6344
   19SAPC   H8Y 2517   4.003   6.961   9.413  0.3396 -0.4380  0.3103
   19SAPC   C39 2518   3.816   6.944   9.295  0.4984 -0.6074 -0.3677
   19SAPC   H9X 2519   3.765   7.003   9.374  1.9113 -0.9079  0.8017
   19SAPC   H9Y 2520   3.756   6.853   9.272  0.9658 -0.8903 -0.4640
   19SAPC  C310 2521   3.837   7.035   9.177  0.5317 -0.1958 -0.8258
   19SAPC  H10X 2522   3.900   7.118   9.215  2.9892 -1.1782 -2.6005
   19SAPC  H10Y 2523   3.737   7.079   9.156  0.3188  0.1255  0.8330
   19SAPC  C311 2524   3.894   6.957   9.060 -0.2105  0.7696 -0.1847
   19SAPC  H11X 2525   3.832   6.865   9.051  1.1959 -0.0038 -2.2316
   19SAPC  H11Y 2526   4.002   6.940   9.080 -0.8046 -2.0465  0.9083
   19SAPC  C312 2527   3.882   7.041   8.930  0.1429  0.1383 -0.8869
   19SAPC  H12X 2528   3.923   7.139   8.962 -2.3987  0.8391  0.4055
   19SAPC  H12Y 2529   3.774   7.056   8.910 -0.1715  1.0729  1.3533
   19SAPC  C313 2530   3.954   6.991   8.809 -0.2586 -0.5447  0.6163
   19SAPC  H13X 2531   3.909   6.893   8.784  0.7586 -0.8911  0.1113
   19SAPC  H13Y 2532   4.063   6.975   8.822  0.0092  0.0637 -0.8046
   19SAPC  C314 2533   3.929   7.088   8.688  0.1051 -0.3368 -0.1470
   19SAPC  H14X 2534   3.950   7.191   8.725  2.4135  0.3052 -3.0644
   19SAPC  H14Y 2535   3.823   7.104   8.661 -0.4512 -2.1543  0.8852
   19SAPC  C315 2536   4.009   7.054   8.564 -0.5454  0.2610  0.6714
   19SAPC  H15X 2537   4.115   7.047   8.596 -1.2460 -1.0116  2.8262
   19SAPC  H15Y 2538   3.999   7.148   8.505  0.5202 -0.1305 -0.1424
   19SAPC  C316 2539   3.968   6.924   8.495  0.1801 -0.3415 -0.1274
   19SAPC  H16X 2540   3.942   6.852   8.575  0.3146 -1.5397 -1.1473
   19SAPC  H16Y 2541   4.054   6.887   8.434 -1.9604 -2.4715 -1.9315
   19SAPC  C317 2542   3.845   6.942   8.407 -0.2368  0.6406 -0.0732
   19SAPC  H17X 2543   3.761   6.977   8.471 -1.0850 -0.6500 -0.4318
   19SAPC  H17Y 2544   3.809   6.839   8.381  0.2365 -0.2348  2.6151
   19SAPC  C318 2545   3.849   7.017   8.278  0.2936  0.0967 -0.0808
   19SAPC  H18X 2546   3.741   7.028   8.252 -0.6576 -2.0819  2.6232
   19SAPC  H18Y 2547   3.923   6.974   8.207 -0.5461  0.0180 -0.9285
   19SAPC  H18Z 2548   3.889   7.120   8.287 -1.7687  0.7965  1.5172
   20SAPC     N 2549   3.477   2.546  11.106  0.8741  0.7389 -0.1203
   20SAPC   C12 2550   3.532   2.619  10.985 -0.1210 -0.1193 -0.3367
   20SAPC  H12A 2551   3.496   2.562  10.901  0.8379  2.1451 -2.3202
   20SAPC  H12B 2552   3.639   2.610  10.986 -0.1605 -1.0652 -2.5558
   20SAPC   C13 2553   3.332   2.549  11.096  0.5903  0.8614  0.2882
   20SAPC  H13A 2554   3.295   2.497  11.008  0.0012 -1.6466  1.9831
   20SAPC  H13B 2555   3.294   2.509  11.189 -0.9071  0.5114 -0.4509
   20SAPC  H13C 2556   3.303   2.654  11.096 -2.1280  0.1835  2.2272
   20SAPC   C14 2557   3.531   2.409  11.122 -0.5093 -0.3822  0.0360
   20SAPC  H14A 2558   3.489   2.355  11.206  2.3055 -2.5308  0.1518
   20SAPC  H14B 2559   3.508   2.344  11.039  0.1856  0.3962 -0.7660
   20SAPC  H14C 2560   3.638   2.409  11.133 -0.5454  0.6209  0.4105
   20SAPC   C15 2561   3.507   2.635  11.227 -0.3479 -0.1001 -0.3499
   20SAPC  H15A 2562   3.462   2.732  11.215  2.4204  1.3769  0.6068
   20SAPC  H15B 2563   3.481   2.585  11.319 -2.1635 -1.3618 -1.5135
   20SAPC  H15C 2564   3.614   2.650  11.225 -0.2458 -0.9479 -2.2794
   20SAPC   C11 2565   3.513   2.771  10.967 -0.6203 -0.1816 -0.0071
   20SAPC  H11A 2566   3.406   2.795  10.980 -0.7686 -2.2651  3.1200
   20SAPC  H11B 2567   3.532   2.800  10.861 -0.0051 -1.4160 -0.2527
   20SAPC     P 2568   3.714   2.930  11.034 -0.3759 -0.3010 -0.2288
   20SAPC   O13 2569   3.710   3.039  11.134  0.3673 -0.2575  0.4165
   20SAPC   O14 2570   3.830   2.836  11.023  0.0416 -0.0678 -0.0870
   20SAPC   O12 2571   3.588   2.841  11.068 -0.9352 -0.5810  0.3348
   20SAPC   O11 2572   3.684   3.005  10.891  0.5878  0.6342 -0.3924
   20SAPC    C1 2573   3.587   3.114  10.891  0.0034  0.5426  0.4711
   20SAPC    HA 2574   3.495   3.087  10.948 -0.2468  1.5362  0.5476
   20SAPC    HB 2575   3.621   3.207  10.940 -0.9525  0.5976  1.0454
   20SAPC    C2 2576   3.534   3.147  10.750  0.8228 -0.5775  0.9971
   20SAPC    HS 2577   3.500   3.053  10.699 -0.8638  0.6993 -0.3233
   20SAPC   O21 2578   3.641   3.212  10.675 -0.2911  0.2064 -0.4815
   20SAPC   C21 2579   3.634   3.185  10.547 -0.1565 -0.3125 -0.1339
   20SAPC   O22 2580   3.564   3.106  10.485 -0.1152  0.5019  0.4149
   20SAPC   C22 2581   3.770   3.244  10.491  0.1770 -0.1133 -0.4613
   20SAPC   H2R 2582   3.812   3.316  10.565  0.3230 -1.0329  0.3689
   20SAPC   H2S 2583   3.849   3.166  10.489 -0.5533 -0.8941  0.6147
   20SAPC    C3 2584   3.408   3.231  10.753 -0.3293  0.2512 -0.0380
   20SAPC    HX 2585   3.439   3.323  10.808  0.4873  1.1695 -1.9829
   20SAPC    HY 2586   3.333   3.180  10.818 -0.4045 -0.3646 -0.6119
   20SAPC   O31 2587   3.363   3.268  10.626 -0.0191  0.4006 -0.1769
   20SAPC   C31 2588   3.277   3.181  10.566  0.1340 -0.0806 -0.0909
   20SAPC   O32 2589   3.254   3.068  10.597 -0.1322  0.3846  0.3116
   20SAPC   C32 2590   3.215   3.248  10.447 -0.6021  0.3275  0.3393
   20SAPC   H2X 2591   3.300   3.281  10.384 -1.6037  0.2989 -1.0467
   20SAPC   H2Y 2592   3.139   3.324  10.476 -0.3433  1.0839 -0.8920
   20SAPC   C23 2593   3.750   3.278  10.345  0.4199  0.2645  0.1242
   20SAPC   H3R 2594   3.714   3.204  10.271  1.1210 -0.3435  0.3794
   20SAPC   H3S 2595   3.858   3.290  10.319  1.1804 -0.2710  2.8692
   20SAPC   C24 2596   3.682   3.411  10.318  0.1327 -0.1034 -0.4413
   20SAPC   H4R 2597   3.581   3.412  10.364  0.3584  0.1277  0.0541
   20SAPC   H4S 2598   3.655   3.409  10.210 -0.0869 -1.0629 -0.3791
   20SAPC   C25 2599   3.757   3.539  10.359  0.3973 -0.3164 -0.5488
   20SAPC   H5R 2600   3.837   3.517  10.432  1.4785  0.6765 -1.4121
   20SAPC   C26 2601   3.738   3.659  10.305  0.2272 -0.1222  0.1824
   20SAPC   H6R 2602   3.809   3.736  10.336  0.4635 -1.0877  2.1260
   20SAPC   C27 2603   3.642   3.691  10.191  0.4719  0.0557 -0.2044
   20SAPC   H7R 2604   3.621   3.597  10.136 -1.9716  0.4129  0.0537
   20SAPC   H7S 2605   3.686   3.762  10.118 -1.1008  1.5352  0.2495
   20SAPC   C28 2606   3.516   3.745  10.254  0.2459  0.4698  0.7219
   20SAPC   H8R 2607   3.525   3.849  10.290 -1.9077  0.2214  2.0973
   20SAPC   C29 2608   3.396   3.689  10.266 -0.5154  0.0617  0.0483
   20SAPC   H9R 2609   3.314   3.742  10.316  0.3471  0.5548  0.9535
   20SAPC  C210 2610   3.357   3.548  10.241  0.4286  0.5567  0.3286
   20SAPC  H10R 2611   3.396   3.480  10.320  1.1124 -1.4701 -1.6960
   20SAPC  H10S 2612   3.412   3.503  10.156 -2.9579 -2.8901 -0.1624
   20SAPC  C211 2613   3.206   3.523  10.230 -0.1193  0.3089  0.6271
   20SAPC  H11R 2614   3.150   3.550  10.320 -1.1868 -0.9364  0.3548
   20SAPC  C212 2615   3.137   3.491  10.119 -0.4543 -0.0051 -0.5210
   20SAPC  H12R 2616   3.030   3.473  10.134 -0.3281  0.8608  1.6769
   20SAPC  C213 2617   3.206   3.473   9.984 -0.1860  0.3997  0.5309
   20SAPC  H13R 2618   3.272   3.383   9.983 -0.7361 -0.0024  0.5978
   20SAPC  H13S 2619   3.277   3.557   9.968  1.0789 -0.9527 -1.2126
   20SAPC  C214 2620   3.124   3.466   9.860  0.2558  0.4755 -0.0796
   20SAPC  H14R 2621   3.086   3.561   9.820 -4.9006 -1.3275  0.2618
   20SAPC  C215 2622   3.069   3.359   9.802 -0.6015 -0.0543 -0.3127
   20SAPC  H15R 2623   3.003   3.365   9.715  1.4819  2.1246 -1.8183
   20SAPC  C216 2624   3.079   3.213   9.848 -0.8807 -0.1245 -0.1271
   20SAPC  H16R 2625   2.982   3.178   9.888 -0.2095 -1.3322  0.4785
   20SAPC  H16S 2626   3.142   3.198   9.939  1.0852 -1.9417 -1.7383
   20SAPC  C217 2627   3.132   3.117   9.736 -0.4593  0.5557  0.2656
   20SAPC  H17R 2628   3.144   3.016   9.782  1.5508  0.6326 -0.0635
   20SAPC  H17S 2629   3.235   3.138   9.700 -0.5090  1.0013  0.3847
   20SAPC  C218 2630   3.047   3.126   9.609  0.2885  0.0578  0.6029
   20SAPC  H18R 2631   3.064   3.217   9.547 -1.1769 -0.7255 -0.9810
   20SAPC  H18S 2632   2.938   3.135   9.628 -0.1583 -3.7883  0.1796
   20SAPC  C219 2633   3.069   3.006   9.521  0.3873  0.4141  1.0943
   20SAPC  H19R 2634   3.028   2.916   9.571  0.7588  0.2643  1.1278
   20SAPC  H19S 2635   3.177   2.991   9.501 -0.0191 -0.2663 -0.6516
   20SAPC  C220 2636   3.017   3.041   9.378  0.2949  0.3548  0.0445
   20SAPC  H20R 2637   2.914   3.080   9.383  1.3125  2.9234  2.1990
   20SAPC  H20S 2638   3.024   2.951   9.313  0.7271  0.4176 -0.0001
   20SAPC  H20T 2639   3.084   3.114   9.327  0.9994  0.0701  0.5448
   20SAPC   C33 2640   3.150   3.134  10.363 -0.7287  0.1052 -1.4013
   20SAPC   H3X 2641   3.111   3.184  10.271 -1.1458  2.0582 -0.1971
   20SAPC   H3Y 2642   3.079   3.081  10.429  0.1530  2.7032  1.7610
   20SAPC   C34 2643   3.236   3.023  10.306 -0.7670  0.5327  0.6564
   20SAPC   H4X 2644   3.171   2.953  10.250  2.6517 -1.0749 -1.4796
   20SAPC   H4Y 2645   3.280   2.958  10.385 -0.1660 -1.2682 -1.1000
   20SAPC   C35 2646   3.355   3.078  10.222 -1.1950  0.1384  0.1129
   20SAPC   H5X 2647   3.431   3.137  10.276 -1.8841  0.2071  1.0245
   20SAPC   H5Y 2648   3.310   3.133  10.137 -0.0899 -0.6402 -0.9858
   20SAPC   C36 2649   3.428   2.973  10.146 -0.9685 -0.0644  0.4903
   20SAPC   H6X 2650   3.358   2.920  10.077  2.1400 -1.9677 -1.2904
   20SAPC   H6Y 2651   3.478   2.904  10.216 -1.5325  1.0494  2.0146
   20SAPC   C37 2652   3.530   3.045  10.058  0.0968  0.0427 -0.4794
   20SAPC   H7X 2653   3.582   2.960  10.007 -0.6624 -1.1365  0.6710
   20SAPC   H7Y 2654   3.604   3.094  10.126 -1.0077  0.6007  0.3309
   20SAPC   C38 2655   3.482   3.139   9.945 -0.6914  0.1212 -0.4794
   20SAPC   H8X 2656   3.438   3.233   9.983 -0.2953 -0.0004  0.2942
   20SAPC   H8Y 2657   3.401   3.088   9.889 -0.7615  0.1431 -0.3975
   20SAPC   C39 2658   3.610   3.174   9.868 -0.1650 -0.5904  0.1459
   20SAPC   H9X 2659   3.679   3.087   9.862 -0.3585 -0.6203 -2.6003
   20SAPC   H9Y 2660   3.662   3.240   9.941 -1.3853  0.3654  0.1539
   20SAPC  C310 2661   3.588   3.230   9.732 -0.2644 -0.1392  0.5228
   20SAPC  H10X 2662   3.685   3.274   9.700 -0.5981 -0.2925 -0.7123
   20SAPC  H10Y 2663   3.520   3.317   9.743  0.7820  0.6613  0.7589
   20SAPC  C311 2664   3.554   3.126   9.622 -0.4601 -0.2765  0.7498
   20SAPC  H11X 2665   3.466   3.069   9.660  0.0929 -1.5706  0.1235
   20SAPC  H11Y 2666   3.637   3.053   9.612 -1.0648 -0.7878 -0.7040
   20SAPC  C312 2667   3.504   3.180   9.484 -0.7470 -0.2685 -0.3954
   20SAPC  H12X 2668   3.545   3.281   9.463 -0.2172 -0.5871 -0.8959
   20SAPC  H12Y 2669   3.393   3.189   9.484 -0.7286 -0.0363 -0.2202
   20SAPC  C313 2670   3.552   3.097   9.366  0.4537  0.4386  0.1249
   20SAPC  H13X 2671   3.531   2.990   9.388 -1.6919  0.4515 -1.6108
   20SAPC  H13Y 2672   3.662   3.110   9.356  0.6342 -0.3363  1.0450
   20SAPC  C314 2673   3.479   3.135   9.235 -0.7779 -0.0352  0.0547
   20SAPC  H14X 2674   3.517   3.237   9.210  1.1204 -0.6913  0.1836
   20SAPC  H14Y 2675   3.370   3.123   9.250 -0.4078 -0.3862  2.7915
   20SAPC  C315 2676   3.543   3.067   9.109  0.2886 -0.5512  0.0138
   20SAPC  H15X 2677   3.516   2.959   9.108  1.7455 -0.9137 -0.8372
   20SAPC  H15Y 2678   3.653   3.077   9.115  0.2498  1.8729 -2.3147
   20SAPC  C316 2679   3.504   3.132   8.976  0.0857 -0.0830  0.1132
   20SAPC  H16X 2680   3.508   3.241   8.991  0.3744  0.1342 -1.4133
   20SAPC  H16Y 2681   3.395   3.108   8.968 -0.1463  0.2820  2.1387
   20SAPC  C317 2682   3.577   3.084   8.857  0.4774 -0.3975  0.3092
   20SAPC  H17X 2683   3.677   3.131   8.861  1.3324 -1.6621 -3.6821
   20SAPC  H17Y 2684   3.526   3.129   8.769  0.7393  0.6904  0.6996
   20SAPC  C318 2685   3.576   2.931   8.842 -0.8102  0.0626 -0.4366
   20SAPC  H18X 2686   3.620   2.878   8.930 -2.6343 -1.6904 -0.5381
   20SAPC  H18Y 2687   3.623   2.886   8.752 -1.8151 -0.5826 -0.6536
   20SAPC  H18Z 2688   3.470   2.898   8.838 -0.0448 -2.2232 -3.8694
   21SAPC     N 2689   3.730   2.331  10.564 -0.2224 -0.2143  0.1323
   21SAPC   C12 2690   3.733   2.463  10.630  0.4297  0.5743  0.3407
   21SAPC  H12A 2691   3.784   2.532  10.564  1.9938 -1.9148 -1.0972
   21SAPC  H12B 2692   3.802   2.459  10.714 -0.7532  0.7118  1.3348
   21SAPC   C13 2693   3.854   2.276  10.505  0.2226 -0.2635 -0.2127
   21SAPC  H13A 2694   3.927   2.237  10.574 -0.9425 -1.5584  0.2937
   21SAPC  H13B 2695   3.830   2.197  10.436  1.3968 -1.6701  0.9627
   21SAPC  H13C 2696   3.904   2.354  10.448  0.1959  0.7758  1.1726
   21SAPC   C14 2697   3.695   2.226  10.672  0.7354 -0.1006 -0.4161
   21SAPC  H14A 2698   3.762   2.223  10.757 -0.6246 -3.2676  0.6089
   21SAPC  H14B 2699   3.598   2.245  10.717  0.3273 -2.0635 -0.4139
   21SAPC  H14C 2700   3.682   2.129  10.628 -1.1855  0.7057 -1.7098
   21SAPC   C15 2701   3.616   2.331  10.460  0.0750 -0.1543  0.8976
   21SAPC  H15A 2702   3.526   2.365  10.510  0.2635  3.0067 -0.7778
   21SAPC  H15B 2703   3.645   2.390  10.375 -0.1398 -0.6771  0.4557
   21SAPC  H15C 2704   3.604   2.228  10.430  0.9230  0.1100 -0.4010
   21SAPC   C11 2705   3.605   2.529  10.661 -0.5321  0.2320  0.4016
   21SAPC  H11A 2706   3.544   2.553  10.571  0.9830  2.5966 -0.0436
   21SAPC  H11B 2707   3.617   2.629  10.708 -1.5950  0.1067  0.9635
   21SAPC     P 2708   3.381   2.411  10.732  0.4095 -0.4161  0.2220
   21SAPC   O13 2709   3.366   2.269  10.770  0.0808  0.2885 -0.4128
   21SAPC   O14 2710   3.289   2.495  10.808 -0.3570 -0.1016  1.1583
   21SAPC   O12 2711   3.529   2.457  10.753 -0.5174  0.2155 -0.0196
   21SAPC   O11 2712   3.366   2.420  10.580  0.8351  0.4633 -0.0348
   21SAPC    C1 2713   3.248   2.467  10.519 -0.7656  0.5866  0.5399
   21SAPC    HA 2714   3.163   2.403  10.552  1.2053 -3.6292 -2.0863
   21SAPC    HB 2715   3.224   2.570  10.554  2.1519  1.0907  1.2069
   21SAPC    C2 2716   3.266   2.476  10.365 -0.6991 -0.2991  0.0418
   21SAPC    HS 2717   3.163   2.495  10.326 -0.1664  1.6066 -0.4879
   21SAPC   O21 2718   3.318   2.350  10.310  0.2990  0.0993 -0.2759
   21SAPC   C21 2719   3.230   2.255  10.301 -0.5003  0.6913 -0.1030
   21SAPC   O22 2720   3.115   2.252  10.336  0.3972  0.4115  0.4579
   21SAPC   C22 2721   3.288   2.137  10.218 -0.2292  0.5830  0.0450
   21SAPC   H2R 2722   3.390   2.170  10.188 -0.4218 -0.4016 -1.7281
   21SAPC   H2S 2723   3.296   2.048  10.285  2.1518 -0.6545 -1.7974
   21SAPC    C3 2724   3.352   2.601  10.322  0.4282  1.1903  0.0798
   21SAPC    HX 2725   3.445   2.602  10.382  1.1167  0.3705 -0.9525
   21SAPC    HY 2726   3.292   2.694  10.338 -2.0399 -0.6437  1.7940
   21SAPC   O31 2727   3.375   2.604  10.177  0.0242  0.4840  0.1131
   21SAPC   C31 2728   3.486   2.534  10.144 -0.0746  0.1752 -0.5315
   21SAPC   O32 2729   3.585   2.514  10.209  0.0832  0.2914 -0.3297
   21SAPC   C32 2730   3.466   2.475  10.003 -0.5734  0.0656  0.5997
   21SAPC   H2X 2731   3.443   2.559   9.934 -1.6531 -1.3794 -0.8435
   21SAPC   H2Y 2732   3.380   2.405  10.011 -0.0291 -0.8842 -1.5721
   21SAPC   C23 2733   3.207   2.102  10.089 -0.2842  0.1889  0.5194
   21SAPC   H3R 2734   3.189   2.188  10.021  1.1781 -0.1189 -0.2673
   21SAPC   H3S 2735   3.113   2.058  10.128 -0.1327 -0.4838  0.1207
   21SAPC   C24 2736   3.284   2.005   9.997 -0.2203 -0.7188  0.4918
   21SAPC   H4R 2737   3.318   1.919  10.058  2.2688  0.5117  0.8936
   21SAPC   H4S 2738   3.373   2.060   9.961 -1.1462  1.1910  1.0292
   21SAPC   C25 2739   3.199   1.945   9.884 -0.8222 -0.3957  0.4658
   21SAPC   H5R 2740   3.110   1.896   9.925  0.6780 -0.7347  3.5058
   21SAPC   C26 2741   3.220   1.947   9.751  0.3596 -0.6570 -0.9089
   21SAPC   H6R 2742   3.156   1.891   9.682 -0.7807 -0.4049 -0.0650
   21SAPC   C27 2743   3.335   2.015   9.684 -0.2277 -0.1650  0.5543
   21SAPC   H7R 2744   3.421   2.040   9.752  1.0139 -0.8645 -0.7351
   21SAPC   H7S 2745   3.302   2.112   9.641 -0.0306 -0.4231 -0.1762
   21SAPC   C28 2746   3.388   1.917   9.583 -0.8855 -0.2411 -0.3404
   21SAPC   H8R 2747   3.469   1.850   9.613 -0.4374  0.4893  0.0780
   21SAPC   C29 2748   3.335   1.897   9.462 -0.3687 -0.0006  0.4433
   21SAPC   H9R 2749   3.377   1.814   9.403  1.7761  0.3955  1.3634
   21SAPC  C210 2750   3.220   1.963   9.394 -0.1309 -0.8792 -0.0590
   21SAPC  H10R 2751   3.143   1.969   9.474  0.9252 -0.6438  0.9459
   21SAPC  H10S 2752   3.184   1.884   9.325  0.5888 -1.3445  0.0990
   21SAPC  C211 2753   3.246   2.103   9.336 -0.4484 -0.2334  0.2187
   21SAPC  H11R 2754   3.320   2.160   9.394  0.2749  3.2419 -3.9081
   21SAPC  C212 2755   3.199   2.148   9.221 -0.3008  0.4084  0.1114
   21SAPC  H12R 2756   3.230   2.250   9.193 -0.1305  0.8555  1.8715
   21SAPC  C213 2757   3.095   2.084   9.125  0.6246 -0.5641  0.0396
   21SAPC  H13R 2758   3.012   2.158   9.123  1.0858 -0.0382  0.2575
   21SAPC  H13S 2759   3.065   1.982   9.159 -2.1680 -0.0201 -0.6818
   21SAPC  C214 2760   3.155   2.069   8.990 -0.2525 -0.1116  0.3201
   21SAPC  H14R 2761   3.240   2.136   8.969 -0.3501  0.2513  1.0630
   21SAPC  C215 2762   3.102   1.993   8.888 -0.1459  0.1155 -0.5069
   21SAPC  H15R 2763   3.163   1.981   8.798 -0.9339 -0.9342 -0.9048
   21SAPC  C216 2764   2.981   1.906   8.890 -0.3824 -0.2618 -1.2925
   21SAPC  H16R 2765   2.928   1.907   8.988 -0.6166 -0.0265 -1.4231
   21SAPC  H16S 2766   3.014   1.802   8.872 -1.1851 -0.8368  0.4710
   21SAPC  C217 2767   2.897   1.962   8.774 -0.9728 -0.1298 -0.0965
   21SAPC  H17R 2768   2.950   1.960   8.677 -0.0479  1.3306  0.3660
   21SAPC  H17S 2769   2.859   2.061   8.808 -1.7399 -1.0657  1.8860
   21SAPC  C218 2770   2.768   1.880   8.755 -0.4409 -0.2463  0.4494
   21SAPC  H18R 2771   2.719   1.843   8.848 -3.1737 -3.6078 -2.1547
   21SAPC  H18S 2772   2.785   1.792   8.690 -0.1697 -0.8308  1.3089
   21SAPC  C219 2773   2.660   1.964   8.688  0.0008 -0.4507  0.2769
   21SAPC  H19R 2774   2.711   2.022   8.608 -2.3475  2.3091  0.6722
   21SAPC  H19S 2775   2.614   2.046   8.748 -0.3339 -1.7086  1.7663
   21SAPC  C220 2776   2.543   1.884   8.621  0.1320  0.1912  0.1419
   21SAPC  H20R 2777   2.447   1.929   8.655 -0.4015 -0.4081 -0.5409
   21SAPC  H20S 2778   2.545   1.775   8.643 -0.7170  0.0379 -0.5142
   21SAPC  H20T 2779   2.556   1.904   8.512  0.4938 -1.0647 -0.0542
   21SAPC   C33 2780   3.584   2.387   9.953  0.0115 -0.4975 -0.0469
   21SAPC   H3X 2781   3.600   2.297  10.016 -1.8748 -0.6646  0.2009
   21SAPC   H3Y 2782   3.683   2.437   9.969  0.7690 -2.0722  0.2744
   21SAPC   C34 2783   3.560   2.324   9.815 -0.8071 -0.4185  0.9186
   21SAPC   H4X 2784   3.540   2.414   9.753 -0.9227 -1.2432 -0.2800
   21SAPC   H4Y 2785   3.467   2.263   9.802 -1.6167  1.2041 -1.3157
   21SAPC   C35 2786   3.676   2.242   9.755  0.5373 -0.0344 -0.7613
   21SAPC   H5X 2787   3.687   2.157   9.825 -0.3065 -0.7008 -1.4290
   21SAPC   H5Y 2788   3.767   2.306   9.764  1.1863 -1.2844  2.1199
   21SAPC   C36 2789   3.651   2.197   9.615  0.0036 -0.4825 -0.7048
   21SAPC   H6X 2790   3.544   2.167   9.613  0.3934 -1.9949  0.5267
   21SAPC   H6Y 2791   3.714   2.110   9.584  2.0120  1.2612 -1.6631
   21SAPC   C37 2792   3.683   2.307   9.507  0.5380  0.0450 -0.3817
   21SAPC   H7X 2793   3.793   2.322   9.508  0.3916  1.1308  0.7384
   21SAPC   H7Y 2794   3.634   2.401   9.539 -0.6450 -0.7701  0.2176
   21SAPC   C38 2795   3.616   2.275   9.365 -0.0242  0.9373  0.7636
   21SAPC   H8X 2796   3.517   2.225   9.370 -0.2591  1.4191  0.9080
   21SAPC   H8Y 2797   3.679   2.204   9.308 -1.1256  0.6303 -0.0800
   21SAPC   C39 2798   3.615   2.399   9.282  0.3609  0.1421  0.3968
   21SAPC   H9X 2799   3.717   2.442   9.284 -0.1446  1.4340 -0.8399
   21SAPC   H9Y 2800   3.551   2.478   9.325  1.7597  0.9121  1.1063
   21SAPC  C310 2801   3.574   2.370   9.137  0.1992 -0.4185  0.6262
   21SAPC  H10X 2802   3.479   2.423   9.112  0.3677 -1.2016 -1.7515
   21SAPC  H10Y 2803   3.559   2.261   9.128 -2.3683  0.0559 -1.7116
   21SAPC  C311 2804   3.682   2.427   9.040 -0.2426  0.2406  0.2863
   21SAPC  H11X 2805   3.780   2.377   9.059 -0.6453 -0.7118 -0.1167
   21SAPC  H11Y 2806   3.672   2.535   9.064  1.2496  0.4706 -0.0550
   21SAPC  C312 2807   3.641   2.405   8.896 -0.2132 -0.4677 -0.3143
   21SAPC  H12X 2808   3.651   2.294   8.888  0.5267 -0.2270 -3.3235
   21SAPC  H12Y 2809   3.718   2.453   8.833 -1.3561  0.0082 -1.3531
   21SAPC  C313 2810   3.516   2.476   8.852 -0.4721  0.5827  0.1290
   21SAPC  H13X 2811   3.527   2.584   8.874 -0.8653  0.3702  1.4627
   21SAPC  H13Y 2812   3.423   2.446   8.906  0.6474 -1.6956  0.8932
   21SAPC  C314 2813   3.492   2.465   8.699 -0.5132  0.7052 -0.2872
   21SAPC  H14X 2814   3.397   2.519   8.679 -0.7345  0.3270 -0.2578
   21SAPC  H14Y 2815   3.491   2.358   8.667  1.8342  0.4812  0.2871
   21SAPC  C315 2816   3.604   2.528   8.604 -0.2859 -0.5082 -0.0391
   21SAPC  H15X 2817   3.699   2.472   8.617 -0.3087 -1.4093 -3.3311
   21SAPC  H15Y 2818   3.620   2.634   8.634  0.3965 -0.4498 -0.5794
   21SAPC  C316 2819   3.584   2.519   8.455  0.0527  0.0531 -0.8796
   21SAPC  H16X 2820   3.669   2.554   8.393 -0.2760  0.1940 -1.2510
   21SAPC  H16Y 2821   3.508   2.594   8.425 -0.9548 -1.6825 -2.8145
   21SAPC  C317 2822   3.511   2.391   8.411  0.0118  0.3934 -0.5482
   21SAPC  H17X 2823   3.413   2.374   8.461  0.2565 -0.0711 -0.2200
   21SAPC  H17Y 2824   3.578   2.305   8.432  0.7246  0.6634 -1.6519
   21SAPC  C318 2825   3.473   2.388   8.269  0.7106 -0.1480 -0.0693
   21SAPC  H18X 2826   3.434   2.291   8.230 -3.3153  1.1062  0.5843
   21SAPC  H18Y 2827   3.555   2.408   8.197  1.5973  0.7932  1.1710
   21SAPC  H18Z 2828   3.388   2.458   8.258  0.5960 -0.4037 -0.7890
   22SAPC     N 2829   2.649   6.809  10.750 -0.6818  0.2003  0.0753
   22SAPC   C12 2830   2.766   6.751  10.676  0.5245 -0.3439  0.1269
   22SAPC  H12A 2831   2.854   6.796  10.721  1.1579 -1.3461 -0.0868
   22SAPC  H12B 2832   2.766   6.786  10.573 -3.5917  1.3821  0.6289
   22SAPC   C13 2833   2.520   6.771  10.682 -0.5332  0.0150  0.0895
   22SAPC  H13A 2834   2.518   6.664  10.669  0.5784  0.1701 -1.5091
   22SAPC  H13B 2835   2.439   6.815  10.739  0.5564 -0.8442  2.3629
   22SAPC  H13C 2836   2.528   6.815  10.584  1.6422  0.8806  0.6202
   22SAPC   C14 2837   2.646   6.750  10.889 -0.6054  0.3836  0.0961
   22SAPC  H14A 2838   2.559   6.785  10.943  0.0188 -1.6276  2.5497
   22SAPC  H14B 2839   2.634   6.643  10.887  2.2735  0.0302 -0.1021
   22SAPC  H14C 2840   2.731   6.777  10.950 -0.1587 -1.0829  0.1540
   22SAPC   C15 2841   2.666   6.955  10.763  0.2490 -0.0522  0.3579
   22SAPC  H15A 2842   2.584   7.023  10.784 -0.3325 -0.9266  0.9338
   22SAPC  H15B 2843   2.740   6.975  10.839 -0.5834  2.1586  0.6551
   22SAPC  H15C 2844   2.692   6.992  10.665  0.4346  1.3801  0.9353
   22SAPC   C11 2845   2.785   6.598  10.688  0.0736  0.2863  0.3099
   22SAPC  H11A 2846   2.806   6.568  10.793 -2.9747 -2.8163  0.1536
   22SAPC  H11B 2847   2.878   6.568  10.634 -0.1402 -0.9463  0.5998
   22SAPC     P 2848   2.618   6.400  10.687  0.1032 -0.2369 -0.3243
   22SAPC   O13 2849   2.703   6.347  10.799 -0.1123 -0.6127  0.3928
   22SAPC   O14 2850   2.475   6.417  10.724 -0.5729  0.4843  0.0245
   22SAPC   O12 2851   2.670   6.534  10.628  0.2695  0.5040  0.1775
   22SAPC   O11 2852   2.638   6.295  10.574  0.0628 -0.4560 -0.0627
   22SAPC    C1 2853   2.741   6.309  10.476  0.1134  0.8290 -0.3506
   22SAPC    HA 2854   2.834   6.335  10.530 -0.6998  0.4522  1.2658
   22SAPC    HB 2855   2.778   6.211  10.439  1.9472  1.3719  0.0218
   22SAPC    C2 2856   2.706   6.392  10.355  0.2242 -0.2442  0.2615
   22SAPC    HS 2857   2.721   6.498  10.383  1.3495  0.3458 -2.3860
   22SAPC   O21 2858   2.566   6.369  10.326  0.7164  0.0587 -0.1179
   22SAPC   C21 2859   2.510   6.464  10.263 -0.4341 -0.3153  0.1706
   22SAPC   O22 2860   2.554   6.577  10.246  0.2249 -0.1775 -0.2968
   22SAPC   C22 2861   2.376   6.415  10.216 -0.8066 -0.5352  0.6320
   22SAPC   H2R 2862   2.390   6.312  10.174  1.9330  1.1653 -2.8963
   22SAPC   H2S 2863   2.317   6.401  10.309 -2.2887 -1.2545 -0.3924
   22SAPC    C3 2864   2.789   6.357  10.233 -0.3715  0.1288 -0.4349
   22SAPC    HX 2865   2.791   6.246  10.234  0.3085  0.1508  2.1983
   22SAPC    HY 2866   2.895   6.389  10.244 -0.1404 -0.7473 -0.0163
   22SAPC   O31 2867   2.748   6.412  10.107  0.3988  0.1833 -0.5123
   22SAPC   C31 2868   2.810   6.519  10.068  0.7373 -0.5399  0.0575
   22SAPC   O32 2869   2.890   6.579  10.138  0.2696 -0.5374 -0.5931
   22SAPC   C32 2870   2.771   6.569   9.928 -0.1184 -1.1586 -0.1574
   22SAPC   H2X 2871   2.829   6.501   9.861  0.1789 -0.2550 -0.8326
   22SAPC   H2Y 2872   2.797   6.677   9.929 -0.6245 -1.0253 -1.0441
   22SAPC   C23 2873   2.319   6.503  10.106 -0.0269  0.5150  0.3109
   22SAPC   H3R 2874   2.375   6.501  10.010 -2.9192 -0.1635 -1.4358
   22SAPC   H3S 2875   2.317   6.607  10.145 -0.8262  0.6428 -0.0650
   22SAPC   C24 2876   2.174   6.454  10.064 -0.2011 -0.0322 -0.0667
   22SAPC   H4R 2877   2.106   6.448  10.151  0.9160 -0.8748  0.7649
   22SAPC   H4S 2878   2.176   6.352  10.021 -2.8071  0.4096 -1.3276
   22SAPC   C25 2879   2.119   6.550   9.962 -0.2967  0.1098 -0.2017
   22SAPC   H5R 2880   2.083   6.645  10.003  1.0982  0.6501 -0.2148
   22SAPC   C26 2881   2.095   6.522   9.835  0.0152  0.2501 -0.1833
   22SAPC   H6R 2882   2.062   6.600   9.765 -0.5940 -0.6567 -0.9148
   22SAPC   C27 2883   2.124   6.402   9.752  0.2162  0.2090 -0.2847
   22SAPC   H7R 2884   2.098   6.422   9.646  0.8401  0.2294 -0.4304
   22SAPC   H7S 2885   2.058   6.315   9.775  1.0642 -0.8148 -1.6715
   22SAPC   C28 2886   2.267   6.356   9.757 -0.0735  0.3567 -0.0271
   22SAPC   H8R 2887   2.343   6.386   9.830  1.2360  0.5644 -1.4402
   22SAPC   C29 2888   2.314   6.276   9.662 -0.1515 -1.3452  0.0235
   22SAPC   H9R 2889   2.422   6.260   9.672 -0.0912 -0.0970  1.5299
   22SAPC  C210 2890   2.239   6.221   9.541 -0.5698 -0.2151 -0.9984
   22SAPC  H10R 2891   2.236   6.300   9.463 -0.1726  2.3430  1.4895
   22SAPC  H10S 2892   2.134   6.187   9.557 -0.3601 -0.8410 -0.9245
   22SAPC  C211 2893   2.315   6.100   9.487  0.4659  0.0904 -0.0228
   22SAPC  H11R 2894   2.339   6.027   9.565  0.5312 -0.5912 -0.6723
   22SAPC  C212 2895   2.356   6.078   9.359 -0.2518 -0.4779 -0.2415
   22SAPC  H12R 2896   2.423   5.993   9.343  2.2440  0.9461  2.1725
   22SAPC  C213 2897   2.344   6.159   9.231  0.3501  0.0500  0.0032
   22SAPC  H13R 2898   2.446   6.165   9.189 -0.9299 -1.1238 -3.4430
   22SAPC  H13S 2899   2.312   6.265   9.241  1.6169  0.3838  0.6782
   22SAPC  C214 2900   2.261   6.086   9.126 -0.3077 -0.4661 -1.1078
   22SAPC  H14R 2901   2.176   6.032   9.171 -0.1428 -0.2775 -0.5673
   22SAPC  C215 2902   2.280   6.084   8.995 -0.8486  0.4660  0.0132
   22SAPC  H15R 2903   2.207   6.046   8.922 -1.0256  3.3708 -1.3799
   22SAPC  C216 2904   2.405   6.142   8.929 -0.0270 -0.5860  0.1043
   22SAPC  H16R 2905   2.497   6.106   8.981  0.7102 -1.0703 -1.4805
   22SAPC  H16S 2906   2.418   6.252   8.926  0.2753 -0.6478 -1.2793
   22SAPC  C217 2907   2.443   6.079   8.788 -0.1092 -0.0294  0.7420
   22SAPC  H17R 2908   2.471   5.972   8.793  0.6741  0.1486  0.2382
   22SAPC  H17S 2909   2.528   6.143   8.755  0.5204 -0.8367  0.7800
   22SAPC  C218 2910   2.331   6.076   8.687 -0.8635  0.1549 -0.2980
   22SAPC  H18R 2911   2.285   6.177   8.692 -0.9949  0.1711 -1.7959
   22SAPC  H18S 2912   2.265   5.992   8.719  1.7079 -1.3724  1.2150
   22SAPC  C219 2913   2.371   6.054   8.543  0.5607  0.1721 -0.4540
   22SAPC  H19R 2914   2.433   5.964   8.530  0.4001 -0.3818  2.3479
   22SAPC  H19S 2915   2.426   6.146   8.515  1.7958 -0.7402 -1.0538
   22SAPC  C220 2916   2.254   6.053   8.448  0.1919 -0.4783  0.0229
   22SAPC  H20R 2917   2.194   6.147   8.457 -2.1039 -1.5829 -2.7733
   22SAPC  H20S 2918   2.192   5.963   8.472 -1.7545  0.6607 -0.5785
   22SAPC  H20T 2919   2.290   6.055   8.343  0.9146  1.6538  0.2859
   22SAPC   C33 2920   2.622   6.557   9.890 -0.8411 -0.5041  0.0273
   22SAPC   H3X 2921   2.570   6.617   9.968  2.2697  1.9606  0.2816
   22SAPC   H3Y 2922   2.587   6.454   9.915 -0.6646 -0.4227  0.6322
   22SAPC   C34 2923   2.581   6.589   9.748 -0.7224  1.1060  0.3096
   22SAPC   H4X 2924   2.616   6.690   9.718  1.5733 -0.0754 -1.1371
   22SAPC   H4Y 2925   2.472   6.571   9.737 -0.5755 -0.4003  1.1639
   22SAPC   C35 2926   2.633   6.488   9.641  0.2183  0.6242  1.1078
   22SAPC   H5X 2927   2.604   6.383   9.665 -1.0784  0.8911  0.7279
   22SAPC   H5Y 2928   2.744   6.498   9.640  0.3073  0.1012 -2.6927
   22SAPC   C36 2929   2.579   6.531   9.503  0.3181  0.4298 -0.1115
   22SAPC   H6X 2930   2.603   6.637   9.480 -0.5386  0.9489  1.3322
   22SAPC   H6Y 2931   2.470   6.511   9.505  0.1320  1.2342 -1.8008
   22SAPC   C37 2932   2.646   6.451   9.385  0.1523 -0.3673 -0.1330
   22SAPC   H7X 2933   2.634   6.341   9.398  0.1084 -0.1755  1.5075
   22SAPC   H7Y 2934   2.752   6.484   9.382 -0.3587  1.7231  2.7723
   22SAPC   C38 2935   2.588   6.491   9.257 -0.3528  0.0465 -0.4857
   22SAPC   H8X 2936   2.546   6.593   9.273 -2.3808 -1.1318  2.0523
   22SAPC   H8Y 2937   2.497   6.429   9.241 -0.4095 -0.0050  0.0415
   22SAPC   C39 2938   2.678   6.474   9.132 -0.3895  0.0140 -0.4458
   22SAPC   H9X 2939   2.698   6.365   9.118 -0.3534  0.3474 -3.3923
   22SAPC   H9Y 2940   2.780   6.513   9.153  0.0915 -0.9810 -0.8635
   22SAPC  C310 2941   2.619   6.528   8.999  0.2354  0.1664 -0.3947
   22SAPC  H10X 2942   2.628   6.639   9.006 -0.2384  0.2591 -1.1975
   22SAPC  H10Y 2943   2.510   6.505   8.997  0.2222  0.2994 -2.5572
   22SAPC  C311 2944   2.690   6.499   8.863 -0.6809  0.8362  0.9072
   22SAPC  H11X 2945   2.706   6.391   8.841 -0.3743  0.7902  1.3272
   22SAPC  H11Y 2946   2.793   6.540   8.871 -1.0927  2.0326  0.1367
   22SAPC  C312 2947   2.616   6.568   8.747 -0.1697  0.3231 -1.0957
   22SAPC  H12X 2948   2.609   6.678   8.762  2.6072  0.5340 -1.1167
   22SAPC  H12Y 2949   2.512   6.530   8.758  0.6197 -1.7810 -0.7157
   22SAPC  C313 2950   2.678   6.556   8.606  0.6529  0.1561 -0.4501
   22SAPC  H13X 2951   2.788   6.554   8.617  0.7384 -1.9198 -1.5329
   22SAPC  H13Y 2952   2.663   6.645   8.541  3.1177 -0.2415 -1.6122
   22SAPC  C314 2953   2.629   6.423   8.539 -0.0416  0.2526  0.0716
   22SAPC  H14X 2954   2.519   6.413   8.556 -0.0101  0.8657  0.6393
   22SAPC  H14Y 2955   2.678   6.330   8.577 -0.7334  0.4083  1.3919
   22SAPC  C315 2956   2.666   6.418   8.388 -0.1159  0.4691  0.2542
   22SAPC  H15X 2957   2.776   6.412   8.378 -0.4064 -0.4500 -3.1451
   22SAPC  H15Y 2958   2.632   6.505   8.329  0.2786  0.3521 -0.1519
   22SAPC  C316 2959   2.607   6.285   8.326  0.1514  0.4778 -0.1586
   22SAPC  H16X 2960   2.496   6.278   8.323  0.0396  1.5390  0.9775
   22SAPC  H16Y 2961   2.637   6.198   8.389  1.8566 -0.3964 -2.1135
   22SAPC  C317 2962   2.648   6.253   8.181  1.0572 -0.5980  0.0699
   22SAPC  H17X 2963   2.755   6.221   8.178  1.0837 -0.4147 -1.2044
   22SAPC  H17Y 2964   2.645   6.342   8.114  0.9440 -0.7055 -0.0683
   22SAPC  C318 2965   2.571   6.139   8.109 -0.3937  0.0458  0.3027
   22SAPC  H18X 2966   2.470   6.175   8.078  0.5109  1.9911 -0.4654
   22SAPC  H18Y 2967   2.569   6.042   8.163  0.8526  0.6609  1.4677
   22SAPC  H18Z 2968   2.627   6.109   8.018 -0.4938  0.3835  0.1276
   23SAPC     N 2969   4.696   1.952  11.077 -0.2882  0.0062 -0.1981
   23SAPC   C12 2970   4.761   1.944  10.936  0.1198 -0.0589 -0.3006
   23SAPC  H12A 2971   4.782   1.840  10.914 -3.1375 -1.0336  1.0008
   23SAPC  H12B 2972   4.860   1.986  10.948 -0.1332  0.5131 -0.1994
   23SAPC   C13 2973   4.690   2.096  11.114 -0.0817 -0.6255 -0.3107
   23SAPC  H13A 2974   4.640   2.103  11.209 -1.5481  1.2058 -1.1622
   23SAPC  H13B 2975   4.786   2.144  11.128 -0.4973  0.4294 -0.9783
   23SAPC  H13C 2976   4.640   2.155  11.038  0.0730  2.2332  1.6899
   23SAPC   C14 2977   4.558   1.893  11.075 -0.3366  0.2120 -0.9696
   23SAPC  H14A 2978   4.486   1.957  11.026 -0.5459  1.9749  1.5188
   23SAPC  H14B 2979   4.561   1.798  11.023 -2.4462 -0.1064 -0.5834
   23SAPC  H14C 2980   4.530   1.875  11.178  1.1037 -1.5610 -0.8679
   23SAPC   C15 2981   4.781   1.873  11.182 -0.4325 -0.1525  0.1658
   23SAPC  H15A 2982   4.716   1.879  11.268 -1.9985 -1.5068 -0.8853
   23SAPC  H15B 2983   4.799   1.770  11.155  2.3491  0.7626 -1.6771
   23SAPC  H15C 2984   4.875   1.925  11.191  1.3950 -3.2715 -0.4300
   23SAPC   C11 2985   4.689   2.006  10.809  0.0560  0.9265  0.5056
   23SAPC  H11A 2986   4.760   1.987  10.726 -1.5719 -4.4927  0.1390
   23SAPC  H11B 2987   4.681   2.116  10.824 -1.3488  0.7486  1.0817
   23SAPC     P 2988   4.531   1.809  10.718  0.0559  0.1768 -0.1079
   23SAPC   O13 2989   4.560   1.707  10.820 -0.6052 -0.3064 -0.0673
   23SAPC   O14 2990   4.395   1.802  10.665  0.0970 -0.5423 -0.2910
   23SAPC   O12 2991   4.560   1.948  10.789 -0.2792 -0.1927  0.6964
   23SAPC   O11 2992   4.637   1.789  10.602 -0.0200 -0.5284 -0.2711
   23SAPC    C1 2993   4.667   1.879  10.496 -0.1296 -0.4118  0.3621
   23SAPC    HA 2994   4.613   1.976  10.506  1.1350  0.3621 -0.2227
   23SAPC    HB 2995   4.776   1.898  10.492 -0.1543 -0.6447 -2.5099
   23SAPC    C2 2996   4.629   1.825  10.353 -0.3683 -0.0544  0.2410
   23SAPC    HS 2997   4.598   1.914  10.294 -1.1213 -1.2126 -1.1429
   23SAPC   O21 2998   4.523   1.727  10.349 -0.2485  0.2427  0.0584
   23SAPC   C21 2999   4.397   1.775  10.354  0.8497 -0.3158  0.7120
   23SAPC   O22 3000   4.368   1.894  10.344  0.3851  0.2196  0.3968
   23SAPC   C22 3001   4.304   1.653  10.355  0.0497 -0.4778  0.6607
   23SAPC   H2R 3002   4.334   1.578  10.430  1.3919 -0.3281  0.2823
   23SAPC   H2S 3003   4.203   1.689  10.387  0.2124  2.2035 -1.5877
   23SAPC    C3 3004   4.748   1.756  10.296 -0.3176  0.1907  0.1481
   23SAPC    HX 3005   4.773   1.665  10.355  2.8967  0.2996 -0.9672
   23SAPC    HY 3006   4.828   1.832  10.311  1.3042 -1.6461  1.0843
   23SAPC   O31 3007   4.730   1.720  10.157  0.2872 -0.4302  0.8254
   23SAPC   C31 3008   4.743   1.587  10.129 -0.4078 -0.0639 -0.4759
   23SAPC   O32 3009   4.777   1.498  10.205  0.2863 -0.3314 -1.1713
   23SAPC   C32 3010   4.707   1.553   9.976  0.2927  0.1299  0.0604
   23SAPC   H2X 3011   4.623   1.619   9.947 -1.0632 -0.6130  2.1437
   23SAPC   H2Y 3012   4.663   1.452   9.969 -0.6790  0.5751 -0.3064
   23SAPC   C23 3013   4.283   1.582  10.223 -0.2210  0.4250 -0.4365
   23SAPC   H3R 3014   4.243   1.480  10.241  0.7629 -0.1706 -1.4742
   23SAPC   H3S 3015   4.380   1.562  10.172  0.3567 -1.1558  1.2185
   23SAPC   C24 3016   4.190   1.657  10.130  0.0071  0.2984  0.0308
   23SAPC   H4R 3017   4.261   1.729  10.082  3.8544 -3.4679 -0.1958
   23SAPC   H4S 3018   4.100   1.698  10.181 -0.5493 -0.4099 -0.3815
   23SAPC   C25 3019   4.122   1.561  10.030  0.2238 -0.4624  0.1627
   23SAPC   H5R 3020   4.046   1.498  10.079  0.4908 -1.3927 -0.6078
   23SAPC   C26 3021   4.151   1.551   9.894 -0.1458  1.1279  0.1781
   23SAPC   H6R 3022   4.090   1.480   9.836  1.6694 -1.6222  1.5488
   23SAPC   C27 3023   4.261   1.621   9.824 -0.3766 -0.1774  0.3078
   23SAPC   H7R 3024   4.345   1.657   9.888  0.4083 -1.9082  0.2876
   23SAPC   H7S 3025   4.218   1.722   9.805 -0.8612 -0.5812 -0.7411
   23SAPC   C28 3026   4.307   1.564   9.695 -0.1498 -0.3021  0.9322
   23SAPC   H8R 3027   4.333   1.458   9.704 -1.6667 -0.5617  2.4818
   23SAPC   C29 3028   4.314   1.617   9.574  0.6422  0.2443  0.0377
   23SAPC   H9R 3029   4.339   1.547   9.494 -1.4389 -0.4695 -0.0009
   23SAPC  C210 3030   4.262   1.754   9.540 -0.3431  0.4083  0.6379
   23SAPC  H10R 3031   4.350   1.807   9.498  0.0147 -1.3370 -0.8782
   23SAPC  H10S 3032   4.226   1.815   9.626 -1.1748  1.7371 -0.6242
   23SAPC  C211 3033   4.162   1.747   9.428 -0.2252 -0.3082 -0.0706
   23SAPC  H11R 3034   4.058   1.745   9.463 -0.0356 -0.0578  0.5077
   23SAPC  C212 3035   4.173   1.725   9.299 -0.6527 -0.3050  0.7627
   23SAPC  H12R 3036   4.084   1.712   9.235 -1.5625  2.0959  1.4998
   23SAPC  C213 3037   4.306   1.694   9.229  0.7206  0.0539  0.6382
   23SAPC  H13R 3038   4.296   1.602   9.167  0.4664 -0.0851  0.8837
   23SAPC  H13S 3039   4.376   1.666   9.311 -2.4676 -2.7210  2.5187
   23SAPC  C214 3040   4.355   1.808   9.142 -0.0293  0.5437  0.8255
   23SAPC  H14R 3041   4.324   1.908   9.176 -0.5802  0.5849  0.2037
   23SAPC  C215 3042   4.440   1.792   9.034  0.8980 -0.8740 -0.3604
   23SAPC  H15R 3043   4.464   1.877   8.969 -1.8932 -0.4733 -0.9077
   23SAPC  C216 3044   4.506   1.668   8.983  0.3802  0.1502  0.6636
   23SAPC  H16R 3045   4.523   1.590   9.060 -0.7771  1.2519  2.0535
   23SAPC  H16S 3046   4.604   1.697   8.939 -0.5335  0.6179 -1.1079
   23SAPC  C217 3047   4.416   1.603   8.867 -0.4530 -0.2575  0.3318
   23SAPC  H17R 3048   4.399   1.674   8.783 -0.1581 -1.3136 -0.6340
   23SAPC  H17S 3049   4.316   1.589   8.913 -0.1900  1.0354  1.3207
   23SAPC  C218 3050   4.479   1.473   8.827 -1.0199  0.3650 -0.6145
   23SAPC  H18R 3051   4.524   1.415   8.911  0.1983  1.8319 -0.2395
   23SAPC  H18S 3052   4.561   1.482   8.754  2.9894 -2.1327  3.2871
   23SAPC  C219 3053   4.373   1.384   8.761 -0.7937  0.4286  0.5915
   23SAPC  H19R 3054   4.429   1.310   8.700 -0.4614  0.2712  1.0827
   23SAPC  H19S 3055   4.311   1.444   8.691  1.0102  0.1221 -1.3074
   23SAPC  C220 3056   4.290   1.302   8.858  0.1145 -0.4242  0.2658
   23SAPC  H20R 3057   4.352   1.240   8.927 -1.9553 -1.4638  1.2229
   23SAPC  H20S 3058   4.240   1.226   8.794  0.9848 -0.5554 -0.2622
   23SAPC  H20T 3059   4.215   1.362   8.914  0.0577  1.1719 -1.4843
   23SAPC   C33 3060   4.826   1.580   9.889 -0.0119  0.2404 -0.2210
   23SAPC   H3X 3061   4.918   1.534   9.931  0.0148  0.5356  0.0425
   23SAPC   H3Y 3062   4.835   1.690   9.882  4.4856 -0.0981 -1.4226
   23SAPC   C34 3063   4.821   1.509   9.751  0.3911  0.3552 -0.7707
   23SAPC   H4X 3064   4.819   1.400   9.773  0.9202  0.8401  1.9151
   23SAPC   H4Y 3065   4.912   1.536   9.695  0.4426 -1.4827 -1.6058
   23SAPC   C35 3066   4.701   1.553   9.675 -0.2558 -0.7503 -0.4512
   23SAPC   H5X 3067   4.720   1.651   9.627 -1.3170 -0.0121  0.6457
   23SAPC   H5Y 3068   4.607   1.564   9.733  0.4508  0.0104  0.5583
   23SAPC   C36 3069   4.676   1.459   9.558  0.0760  0.0605  0.4406
   23SAPC   H6X 3070   4.572   1.474   9.521  0.9923  1.1170 -1.7665
   23SAPC   H6Y 3071   4.684   1.353   9.591  1.3446 -0.1276 -0.4565
   23SAPC   C37 3072   4.765   1.490   9.441  0.5156  0.2585 -0.6977
   23SAPC   H7X 3073   4.872   1.474   9.463  0.4295 -0.1369 -0.5713
   23SAPC   H7Y 3074   4.759   1.599   9.422  0.8775  0.5344  0.7079
   23SAPC   C38 3075   4.721   1.431   9.306 -0.2762  0.5774 -0.4881
   23SAPC   H8X 3076   4.763   1.502   9.232 -0.5873  1.0380 -0.2210
   23SAPC   H8Y 3077   4.612   1.431   9.286 -0.0016  3.5703 -2.3448
   23SAPC   C39 3078   4.773   1.286   9.297  0.6814 -0.1351 -0.3640
   23SAPC   H9X 3079   4.728   1.223   9.377  0.5423 -0.6221 -0.8191
   23SAPC   H9Y 3080   4.883   1.282   9.309  0.5503  1.4215  1.5903
   23SAPC  C310 3081   4.742   1.217   9.163 -0.3451 -0.7248 -0.0540
   23SAPC  H10X 3082   4.804   1.277   9.093 -2.8393  1.1119 -0.7477
   23SAPC  H10Y 3083   4.637   1.239   9.136  0.0231  1.2927  0.1115
   23SAPC  C311 3084   4.762   1.068   9.158 -0.2389  0.0328  0.2214
   23SAPC  H11X 3085   4.694   1.012   9.225  0.0100  0.9808  1.2733
   23SAPC  H11Y 3086   4.867   1.045   9.183 -0.2824 -1.3076 -0.7691
   23SAPC  C312 3087   4.760   1.016   9.012  0.0147 -0.3402 -0.0215
   23SAPC  H12X 3088   4.826   0.927   9.001 -1.5470 -1.2215 -2.5089
   23SAPC  H12Y 3089   4.816   1.083   8.943  0.6151  1.2296  1.9343
   23SAPC  C313 3090   4.623   0.993   8.949 -0.2464 -0.3194  0.0609
   23SAPC  H13X 3091   4.572   1.090   8.964 -1.3970 -0.7981 -0.7010
   23SAPC  H13Y 3092   4.573   0.912   9.006 -1.3230 -0.6054 -1.2548
   23SAPC  C314 3093   4.628   0.957   8.801  0.4269  0.1601 -0.1638
   23SAPC  H14X 3094   4.685   0.864   8.781 -0.0762 -0.4530  1.2818
   23SAPC  H14Y 3095   4.677   1.040   8.744 -0.6415 -0.6207 -2.2889
   23SAPC  C315 3096   4.483   0.933   8.754  0.0834 -0.3394 -0.2644
   23SAPC  H15X 3097   4.422   1.012   8.802 -0.3710 -2.5319  2.9341
   23SAPC  H15Y 3098   4.450   0.840   8.804  3.1863 -1.4150 -0.0801
   23SAPC  C316 3099   4.457   0.941   8.603  0.4080  0.3595  0.3749
   23SAPC  H16X 3100   4.508   1.026   8.552  0.7703  0.0604  0.2381
   23SAPC  H16Y 3101   4.346   0.952   8.603  0.4638  0.8976  1.4539
   23SAPC  C317 3102   4.494   0.823   8.503  0.2916 -0.0623 -0.1004
   23SAPC  H17X 3103   4.443   0.730   8.534  1.2386 -1.1823 -1.8391
   23SAPC  H17Y 3104   4.603   0.804   8.518  0.0285  0.9319  3.6527
   23SAPC  C318 3105   4.468   0.846   8.353 -0.0220  0.2728 -0.0661
   23SAPC  H18X 3106   4.526   0.922   8.297 -0.0487 -0.8413 -1.6435
   23SAPC  H18Y 3107   4.361   0.864   8.329 -0.3745  0.7638  1.8144
   23SAPC  H18Z 3108   4.509   0.754   8.306  1.1681  0.4449  0.6205
   24SAPC     N 3109   0.765   0.698  11.211 -0.7906 -0.2926  0.0575
   24SAPC   C12 3110   0.888   0.758  11.278 -0.3128  0.0996  0.3752
   24SAPC  H12A 3111   0.945   0.679  11.324  2.0591 -0.6220 -3.5073
   24SAPC  H12B 3112   0.864   0.834  11.350 -0.8288  0.6071 -0.3244
   24SAPC   C13 3113   0.679   0.801  11.154  0.7964 -0.2459  0.2580
   24SAPC  H13A 3114   0.724   0.833  11.061  0.1796 -0.7194 -0.2079
   24SAPC  H13B 3115   0.580   0.764  11.130  0.3967  1.2605 -0.4954
   24SAPC  H13C 3116   0.665   0.884  11.222  3.8607  0.1964  0.4192
   24SAPC   C14 3117   0.808   0.603  11.106  0.3951 -0.4290 -0.0843
   24SAPC  H14A 3118   0.855   0.519  11.155  2.8301  0.9250 -0.0123
   24SAPC  H14B 3119   0.721   0.582  11.045  1.2965  0.1981 -1.6359
   24SAPC  H14C 3120   0.883   0.630  11.033  0.2650  1.3377  0.4298
   24SAPC   C15 3121   0.688   0.617  11.307 -0.1393  0.3352 -0.4444
   24SAPC  H15A 3122   0.754   0.549  11.357 -0.7706 -0.9208 -1.3012
   24SAPC  H15B 3123   0.667   0.677  11.394 -3.7614 -0.9655 -0.3601
   24SAPC  H15C 3124   0.593   0.581  11.269  1.5463 -2.0346 -2.5827
   24SAPC   C11 3125   0.991   0.835  11.188 -0.0903  0.0448 -0.0503
   24SAPC  H11A 3126   1.055   0.760  11.138  1.2923 -0.4780  2.4186
   24SAPC  H11B 3127   1.055   0.890  11.260  1.7465 -1.9547 -0.1061
   24SAPC     P 3128   0.911   1.068  11.112  0.1510 -0.4720 -0.1569
   24SAPC   O13 3129   0.767   1.081  11.099 -0.3757  0.0268 -0.0475
   24SAPC   O14 3130   0.970   1.129  11.233 -0.5568  0.0232 -0.4466
   24SAPC   O12 3131   0.945   0.918  11.080  0.2811  0.3616 -0.5984
   24SAPC   O11 3132   0.980   1.138  10.983 -0.0267  0.3145  0.7824
   24SAPC    C1 3133   0.934   1.081  10.854 -0.5794  0.2012  0.0381
   24SAPC    HA 3134   0.994   0.994  10.818  0.9345  0.6609  1.4244
   24SAPC    HB 3135   0.828   1.046  10.863 -1.2101  1.3650 -2.3197
   24SAPC    C2 3136   0.915   1.190  10.743  0.0903 -0.3392  0.2213
   24SAPC    HS 3137   0.886   1.135  10.650 -1.7345 -1.3457  1.3436
   24SAPC   O21 3138   1.044   1.249  10.726  0.5757  0.0060 -0.7709
   24SAPC   C21 3139   1.128   1.167  10.648  0.6221  0.6091  0.4164
   24SAPC   O22 3140   1.090   1.062  10.598  0.3912 -0.5674 -0.2410
   24SAPC   C22 3141   1.267   1.225  10.630  0.5210  0.2618 -0.1309
   24SAPC   H2R 3142   1.335   1.164  10.694  1.0964  0.6903 -0.3354
   24SAPC   H2S 3143   1.285   1.209  10.521 -0.1410  3.9998 -0.8431
   24SAPC    C3 3144   0.806   1.291  10.779  0.2306 -0.1919  0.4776
   24SAPC    HX 3145   0.818   1.334  10.881  0.3443  1.6415 -0.2957
   24SAPC    HY 3146   0.708   1.240  10.777 -0.1702  0.5883 -0.1036
   24SAPC   O31 3147   0.807   1.397  10.686  0.0050 -0.4030  0.1353
   24SAPC   C31 3148   0.726   1.381  10.585 -0.1910 -1.2596 -0.2985
   24SAPC   O32 3149   0.657   1.283  10.570 -0.0458  0.0287  0.5508
   24SAPC   C32 3150   0.720   1.516  10.514  0.4336 -0.0182 -0.0803
   24SAPC   H2X 3151   0.815   1.574  10.507  0.1037  0.3806 -1.3040
   24SAPC   H2Y 3152   0.660   1.593  10.567  0.1824 -0.6233  0.5344
   24SAPC   C23 3153   1.288   1.372  10.677  0.5514  1.1107 -0.6837
   24SAPC   H3R 3154   1.397   1.389  10.665  0.9643 -0.2141  0.9246
   24SAPC   H3S 3155   1.255   1.394  10.781  2.1779  3.8214 -0.7050
   24SAPC   C24 3156   1.209   1.473  10.597 -0.4165  0.5029  0.0554
   24SAPC   H4R 3157   1.237   1.573  10.637 -0.5706  0.9182 -0.8530
   24SAPC   H4S 3158   1.099   1.469  10.615 -0.8660  0.5134 -2.4741
   24SAPC   C25 3159   1.242   1.463  10.453 -0.8188  0.4032 -0.5057
   24SAPC   H5R 3160   1.347   1.485  10.429 -0.4200 -0.3325  0.5287
   24SAPC   C26 3161   1.166   1.408  10.354  0.2462 -0.6154 -0.3601
   24SAPC   H6R 3162   1.200   1.430  10.252 -2.0996  1.5506 -0.7221
   24SAPC   C27 3163   1.024   1.358  10.366  0.3252 -0.5533 -0.0741
   24SAPC   H7R 3164   0.958   1.435  10.321 -2.7603 -2.7121  0.6189
   24SAPC   H7S 3165   0.991   1.352  10.471  2.5563 -2.8052  0.5657
   24SAPC   C28 3166   1.005   1.225  10.292  0.2746  0.4169 -0.0296
   24SAPC   H8R 3167   1.032   1.132  10.343 -0.9652 -0.5408 -1.0863
   24SAPC   C29 3168   0.983   1.202  10.161  0.1387 -0.0129  0.5640
   24SAPC   H9R 3169   0.971   1.101  10.120 -0.1473  0.6777 -1.1305
   24SAPC  C210 3170   0.973   1.314  10.064  0.0394 -0.0156 -0.3371
   24SAPC  H10R 3171   1.038   1.395  10.103  0.5198 -1.5996  2.2615
   24SAPC  H10S 3172   0.868   1.352  10.056  0.3997  0.6399 -2.2255
   24SAPC  C211 3173   1.030   1.282   9.932 -0.0135  0.3439  0.0634
   24SAPC  H11R 3174   1.039   1.174   9.912 -0.5406  0.0626  1.2745
   24SAPC  C212 3175   1.044   1.360   9.830 -0.2803  0.3605 -0.5993
   24SAPC  H12R 3176   1.081   1.320   9.735  0.0037  3.4769 -1.8562
   24SAPC  C213 3177   1.026   1.507   9.835  0.6637  0.4242 -0.7968
   24SAPC  H13R 3178   1.118   1.558   9.799  0.3978  1.8036  0.4645
   24SAPC  H13S 3179   1.018   1.544   9.939  1.5648 -1.3761 -0.0618
   24SAPC  C214 3180   0.896   1.540   9.759  0.4035  0.7718  0.3249
   24SAPC  H14R 3181   0.805   1.543   9.820  0.3010 -0.9516  0.2865
   24SAPC  C215 3182   0.882   1.578   9.632  0.1131 -0.5684  0.5072
   24SAPC  H15R 3183   0.779   1.596   9.596  0.2231  1.1217  0.9966
   24SAPC  C216 3184   0.990   1.599   9.535 -0.1975 -0.0160 -0.8732
   24SAPC  H16R 3185   1.093   1.577   9.568  0.1250  0.5562 -1.4799
   24SAPC  H16S 3186   0.989   1.706   9.503 -0.5566  0.0844 -0.5221
   24SAPC  C217 3187   0.955   1.511   9.411  0.3149  0.3818 -0.4646
   24SAPC  H17R 3188   0.848   1.521   9.381  0.1445 -1.3914 -0.5463
   24SAPC  H17S 3189   0.973   1.403   9.433 -0.0972  0.5711  0.8664
   24SAPC  C218 3190   1.049   1.547   9.290  0.4358  0.2078 -0.7048
   24SAPC  H18R 3191   1.148   1.500   9.308 -0.8712 -2.0219  0.8830
   24SAPC  H18S 3192   1.053   1.657   9.275 -0.8461  0.5914  1.6392
   24SAPC  C219 3193   0.998   1.487   9.154 -0.2793  0.6441  0.0411
   24SAPC  H19R 3194   0.984   1.377   9.161  3.1103  0.2046  0.9071
   24SAPC  H19S 3195   1.074   1.502   9.074 -1.0767  1.2813 -0.6078
   24SAPC  C220 3196   0.868   1.545   9.097  0.8836  0.0951  0.1152
   24SAPC  H20R 3197   0.873   1.641   9.041  0.5379 -1.9784 -3.6696
   24SAPC  H20S 3198   0.777   1.565   9.158  0.1813  0.1845 -0.9278
   24SAPC  H20T 3199   0.832   1.476   9.017  1.7561  0.6489 -0.7680
   24SAPC   C33 3200   0.667   1.493  10.362 -0.1555 -0.4537 -0.0753
   24SAPC   H3X 3201   0.561   1.462  10.366 -0.4556  0.6984  1.4059
   24SAPC   H3Y 3202   0.722   1.405  10.323 -0.1473  0.1438 -1.4377
   24SAPC   C34 3203   0.674   1.623  10.279 -0.4133 -0.1567  0.4943
   24SAPC   H4X 3204   0.780   1.656  10.274 -0.5781  0.3983  0.6819
   24SAPC   H4Y 3205   0.614   1.693  10.341 -1.5966 -0.2300 -0.5705
   24SAPC   C35 3206   0.615   1.617  10.136 -0.0548  0.0229  0.7506
   24SAPC   H5X 3207   0.516   1.566  10.141 -1.1895  2.2160  1.4688
   24SAPC   H5Y 3208   0.692   1.556  10.084  0.9426  0.4520  1.7063
   24SAPC   C36 3209   0.605   1.752  10.065 -0.0518 -0.3175  0.2421
   24SAPC   H6X 3210   0.697   1.809  10.092  0.3878 -1.0713  0.3453
   24SAPC   H6Y 3211   0.520   1.806  10.113 -1.3895 -2.0878 -0.0672
   24SAPC   C37 3212   0.589   1.758   9.913  0.4235 -0.3109 -0.1124
   24SAPC   H7X 3213   0.676   1.708   9.866  0.8612 -2.7810  3.1207
   24SAPC   H7Y 3214   0.587   1.863   9.879  1.4992  0.0448  0.8997
   24SAPC   C38 3215   0.477   1.672   9.856  1.1021  0.1403  0.5725
   24SAPC   H8X 3216   0.376   1.686   9.901  0.2987 -0.9783 -0.8090
   24SAPC   H8Y 3217   0.506   1.569   9.885  1.1027 -0.1121 -0.2990
   24SAPC   C39 3218   0.467   1.681   9.704  0.5318 -0.4008  0.0750
   24SAPC   H9X 3219   0.556   1.654   9.643 -0.2652 -1.5698 -0.6035
   24SAPC   H9Y 3220   0.446   1.783   9.668  0.9993 -0.7888 -1.3349
   24SAPC  C310 3221   0.347   1.594   9.654 -0.0007  0.2095 -0.1984
   24SAPC  H10X 3222   0.258   1.661   9.658 -0.4226 -0.4354  1.2687
   24SAPC  H10Y 3223   0.322   1.508   9.719 -0.7563 -0.3914 -1.2651
   24SAPC  C311 3224   0.357   1.537   9.510 -0.9492 -0.3311  0.1601
   24SAPC  H11X 3225   0.253   1.499   9.493 -1.1312 -0.5876  1.7206
   24SAPC  H11Y 3226   0.433   1.456   9.507 -1.0780 -0.4589  0.3475
   24SAPC  C312 3227   0.400   1.644   9.414 -0.6841 -0.1534 -0.0309
   24SAPC  H12X 3228   0.501   1.682   9.441 -0.6545  0.3285 -0.7922
   24SAPC  H12Y 3229   0.338   1.736   9.410 -2.0968 -1.1491 -1.8011
   24SAPC  C313 3230   0.400   1.597   9.268 -1.3210 -0.3122 -0.4469
   24SAPC  H13X 3231   0.296   1.567   9.243 -2.4679  2.1029  1.2525
   24SAPC  H13Y 3232   0.456   1.502   9.253  1.1888  1.0693 -0.1891
   24SAPC  C314 3233   0.442   1.715   9.176  0.9998 -0.5783  0.4246
   24SAPC  H14X 3234   0.548   1.740   9.193  0.8415  1.1800 -1.0875
   24SAPC  H14Y 3235   0.385   1.807   9.201  0.5993 -1.1854  1.7977
   24SAPC  C315 3236   0.426   1.692   9.028  0.2837  0.4437  0.3682
   24SAPC  H15X 3237   0.321   1.688   8.993  0.7203 -0.5412 -0.8790
   24SAPC  H15Y 3238   0.468   1.592   9.003 -1.1116 -0.0173 -0.1971
   24SAPC  C316 3239   0.487   1.814   8.955  0.2724  0.2164 -0.8639
   24SAPC  H16X 3240   0.598   1.809   8.946  0.1542  0.7750 -2.8811
   24SAPC  H16Y 3241   0.457   1.908   9.006  0.2635  0.5564 -1.4839
   24SAPC  C317 3242   0.449   1.815   8.806 -0.4333 -0.3390 -0.1761
   24SAPC  H17X 3243   0.469   1.714   8.764  0.6464  0.5194 -1.7643
   24SAPC  H17Y 3244   0.510   1.888   8.749 -0.3010 -1.2027 -1.1491
   24SAPC  C318 3245   0.307   1.870   8.781  0.0542  0.4197 -0.1021
   24SAPC  H18X 3246   0.277   1.866   8.674 -1.5907  1.8844  0.2709
   24SAPC  H18Y 3247   0.298   1.978   8.809 -0.2897  0.3841 -0.0776
   24SAPC  H18Z 3248   0.226   1.819   8.838 -1.2040 -1.0354 -3.1197
   25SAPC     N 3249   3.407   5.941   6.155  0.2892  0.3227  0.5221
   25SAPC   C12 3250   3.372   5.815   6.225 -0.3511 -0.1181  0.8113
   25SAPC  H12A 3251   3.330   5.737   6.164 -0.7657  0.8128 -0.1166
   25SAPC  H12B 3252   3.294   5.840   6.295 -0.5433 -2.7462  1.5967
   25SAPC   C13 3253   3.521   5.919   6.064  0.0249 -0.0635  0.6302
   25SAPC  H13A 3254   3.502   5.856   5.978  0.6397  0.1934  0.3055
   25SAPC  H13B 3255   3.565   6.005   6.018  0.5069 -1.1566 -0.9975
   25SAPC  H13C 3256   3.601   5.860   6.108  1.5928 -0.5555 -2.7685
   25SAPC   C14 3257   3.294   5.990   6.078 -0.9496  0.3714 -0.4355
   25SAPC  H14A 3258   3.210   6.011   6.143 -0.5442  0.6569  0.0020
   25SAPC  H14B 3259   3.325   6.078   6.024 -2.2569 -0.5628 -2.7883
   25SAPC  H14C 3260   3.259   5.927   5.998  0.9268 -2.4023  0.8069
   25SAPC   C15 3261   3.442   6.053   6.247 -0.3596 -0.0116  0.3110
   25SAPC  H15A 3262   3.451   6.146   6.194 -0.9374 -0.1012  0.0544
   25SAPC  H15B 3263   3.370   6.070   6.325 -1.0946 -0.1944 -0.3218
   25SAPC  H15C 3264   3.531   6.028   6.303  1.3257 -0.5399 -2.5196
   25SAPC   C11 3265   3.487   5.745   6.300  0.3814 -0.3676 -0.0840
   25SAPC  H11A 3266   3.434   5.672   6.365  1.1370 -0.8287  0.0255
   25SAPC  H11B 3267   3.550   5.804   6.371 -0.1428  0.6569 -0.4719
   25SAPC     P 3268   3.573   5.528   6.177 -0.2452 -0.4472  0.0568
   25SAPC   O13 3269   3.435   5.483   6.147  0.3318  0.1375  0.5954
   25SAPC   O14 3270   3.672   5.496   6.074 -0.6924 -0.3590 -0.2097
   25SAPC   O12 3271   3.582   5.679   6.215 -0.4801  0.0413 -0.2001
   25SAPC   O11 3272   3.630   5.455   6.310 -0.7179  0.0890 -0.0016
   25SAPC    C1 3273   3.672   5.514   6.430  0.2568  0.7385  0.0306
   25SAPC    HA 3274   3.734   5.604   6.406  1.7271 -0.3962 -0.5117
   25SAPC    HB 3275   3.584   5.539   6.492 -1.1995  0.8852 -2.0534
   25SAPC    C2 3276   3.757   5.416   6.515  0.2781 -0.3302 -0.4848
   25SAPC    HS 3277   3.840   5.384   6.449 -1.0202 -1.9986 -1.3468
   25SAPC   O21 3278   3.673   5.302   6.548 -0.1323 -0.2924 -0.0636
   25SAPC   C21 3279   3.743   5.217   6.619  0.3890  0.8058 -0.6519
   25SAPC   O22 3280   3.859   5.207   6.640 -0.6946  0.0360 -0.0733
   25SAPC   C22 3281   3.645   5.115   6.682  0.3975  0.9250 -0.2835
   25SAPC   H2R 3282   3.562   5.095   6.610  0.0700  0.4547  0.2215
   25SAPC   H2S 3283   3.699   5.019   6.691 -1.3185 -0.0542 -0.1603
   25SAPC    C3 3284   3.832   5.492   6.626  0.9218 -0.0439  0.3919
   25SAPC    HX 3285   3.869   5.586   6.581  1.9865 -0.8543 -0.4529
   25SAPC    HY 3286   3.921   5.437   6.662 -0.6983 -2.6429  0.5820
   25SAPC   O31 3287   3.756   5.515   6.745 -0.2384  0.2863  0.3441
   25SAPC   C31 3288   3.688   5.636   6.757 -1.2202 -0.3574 -0.0838
   25SAPC   O32 3289   3.687   5.728   6.678 -0.5657  0.0113  0.1043
   25SAPC   C32 3290   3.617   5.626   6.894 -0.2745 -0.1055  0.2374
   25SAPC   H2X 3291   3.630   5.524   6.937 -0.0001  0.0922  0.6174
   25SAPC   H2Y 3292   3.513   5.635   6.855 -0.5579 -0.4158  0.9128
   25SAPC   C23 3293   3.587   5.182   6.811  0.1984  0.2040 -0.0276
   25SAPC   H3R 3294   3.523   5.103   6.857 -1.4619 -0.3148 -3.0819
   25SAPC   H3S 3295   3.515   5.264   6.788  0.9806  0.6850 -0.7983
   25SAPC   C24 3296   3.689   5.222   6.926  0.3692 -0.0011  0.0382
   25SAPC   H4R 3297   3.623   5.260   7.007  1.9750  0.7839  1.0104
   25SAPC   H4S 3298   3.764   5.297   6.891  0.6539 -0.9869 -1.5040
   25SAPC   C25 3299   3.765   5.104   6.982  0.3362 -0.5809  0.6611
   25SAPC   H5R 3300   3.832   5.051   6.912  0.5697  0.8377 -0.1951
   25SAPC   C26 3301   3.748   5.056   7.110 -0.7825 -0.7065 -0.0521
   25SAPC   H6R 3302   3.815   4.980   7.153  1.2825  1.0439 -0.1008
   25SAPC   C27 3303   3.650   5.106   7.207  0.1067 -0.1534 -0.3069
   25SAPC   H7R 3304   3.553   5.145   7.169 -1.7833 -3.0187  1.3758
   25SAPC   H7S 3305   3.704   5.187   7.260 -2.5511  2.5551 -1.5803
   25SAPC   C28 3306   3.606   5.005   7.306  0.3804 -0.3011 -0.4251
   25SAPC   H8R 3307   3.507   4.959   7.290  0.0831  0.6674 -1.4419
   25SAPC   C29 3308   3.677   4.964   7.415  0.9168  0.1084  0.5638
   25SAPC   H9R 3309   3.630   4.887   7.479  2.2695 -0.9469  0.3133
   25SAPC  C210 3310   3.812   5.012   7.460  0.2604 -0.4166 -0.6533
   25SAPC  H10R 3311   3.796   5.075   7.551  1.1686 -0.8980 -0.1570
   25SAPC  H10S 3312   3.857   5.086   7.391  2.4319 -0.3582  0.7685
   25SAPC  C211 3313   3.913   4.897   7.476  0.5070  0.7191 -0.8249
   25SAPC  H11R 3314   3.933   4.850   7.378  1.9931  2.5129 -1.4084
   25SAPC  C212 3315   3.981   4.856   7.586  0.3286  0.3989  0.4094
   25SAPC  H12R 3316   4.043   4.765   7.581 -0.1848 -0.1668  3.5992
   25SAPC  C213 3317   3.966   4.912   7.723 -0.4137  0.4312 -0.1490
   25SAPC  H13R 3318   3.930   5.017   7.727 -2.4798 -0.2966  1.7966
   25SAPC  H13S 3319   4.072   4.925   7.754 -0.1812 -0.9963 -0.3028
   25SAPC  C214 3320   3.894   4.820   7.817  0.3262 -0.8970 -0.3237
   25SAPC  H14R 3321   3.825   4.744   7.779 -1.9036  0.8212  0.1915
   25SAPC  C215 3322   3.918   4.809   7.949  0.1652 -0.1891  0.6939
   25SAPC  H15R 3323   3.858   4.735   8.003 -2.9181  1.1222 -0.8548
   25SAPC  C216 3324   4.020   4.887   8.027 -0.3486 -0.0994 -0.6726
   25SAPC  H16R 3325   4.085   4.950   7.963  0.3168 -1.1587 -1.0706
   25SAPC  H16S 3326   4.078   4.817   8.091  0.0571 -0.2640 -1.2135
   25SAPC  C217 3327   3.953   4.976   8.132  0.4222 -0.4688 -0.2581
   25SAPC  H17R 3328   3.874   5.038   8.086  2.7585  1.4455 -1.7679
   25SAPC  H17S 3329   4.027   5.050   8.168 -0.1423  0.0387 -0.1289
   25SAPC  C218 3330   3.900   4.902   8.265 -0.3346 -0.2850  0.0206
   25SAPC  H18R 3331   3.986   4.837   8.294  0.0988 -1.7369 -4.2226
   25SAPC  H18S 3332   3.809   4.846   8.239 -0.4424 -1.2576  2.3489
   25SAPC  C219 3333   3.873   4.982   8.388  0.6777  0.1178 -0.1755
   25SAPC  H19R 3334   3.961   5.047   8.407  0.8213  0.2846 -1.4006
   25SAPC  H19S 3335   3.859   4.918   8.478  0.3793  3.5970  2.3544
   25SAPC  C220 3336   3.734   5.058   8.353  0.6113  0.5289 -0.5302
   25SAPC  H20R 3337   3.655   4.981   8.347  1.2548 -0.4545  2.4799
   25SAPC  H20S 3338   3.739   5.109   8.254  1.1469 -0.6449 -1.1121
   25SAPC  H20T 3339   3.705   5.131   8.432  1.5457  0.9253 -0.5376
   25SAPC   C33 3340   3.661   5.738   6.993 -0.0657 -1.1640  0.8623
   25SAPC   H3X 3341   3.586   5.737   7.075 -0.3526 -0.7510  0.6076
   25SAPC   H3Y 3342   3.663   5.840   6.947 -0.6499 -1.3411  0.4388
   25SAPC   C34 3343   3.795   5.703   7.052  0.0350 -0.1344  0.1610
   25SAPC   H4X 3344   3.882   5.717   6.984  0.9000  3.0577  1.8463
   25SAPC   H4Y 3345   3.790   5.596   7.082  1.7024  0.5503  3.0442
   25SAPC   C35 3346   3.843   5.785   7.174 -0.3853 -0.3644 -0.2832
   25SAPC   H5X 3347   3.836   5.896   7.163  0.8983  0.0108  2.3667
   25SAPC   H5Y 3348   3.951   5.763   7.190 -0.4830  0.7155  2.0586
   25SAPC   C36 3349   3.776   5.746   7.305  0.2711 -0.1616  0.6959
   25SAPC   H6X 3350   3.786   5.636   7.313  2.4722 -0.2580 -2.1778
   25SAPC   H6Y 3351   3.668   5.768   7.301  0.4786  0.6394 -1.7304
   25SAPC   C37 3352   3.845   5.817   7.430  0.2761  0.8602  0.4179
   25SAPC   H7X 3353   3.820   5.924   7.446  0.1175  0.8804  0.0276
   25SAPC   H7Y 3354   3.955   5.825   7.411  0.2336  1.5940  0.4732
   25SAPC   C38 3355   3.806   5.748   7.569 -0.1752 -0.2754 -0.3057
   25SAPC   H8X 3356   3.832   5.640   7.563 -0.1265 -0.3183  0.6642
   25SAPC   H8Y 3357   3.696   5.747   7.583 -0.3090 -1.4999 -1.3381
   25SAPC   C39 3358   3.866   5.825   7.687  0.1291  0.2652 -0.1786
   25SAPC   H9X 3359   3.819   5.925   7.677  1.3288  0.9644  0.9663
   25SAPC   H9Y 3360   3.976   5.838   7.680  0.3569 -1.1404  0.4668
   25SAPC  C310 3361   3.823   5.770   7.827 -0.6092  0.5469  0.2019
   25SAPC  H10X 3362   3.874   5.673   7.848  0.8683  1.3792  0.4941
   25SAPC  H10Y 3363   3.714   5.748   7.827 -0.3240 -1.0829 -2.3322
   25SAPC  C311 3364   3.859   5.859   7.949  0.5064  0.6829 -0.0449
   25SAPC  H11X 3365   3.805   5.956   7.943 -1.8745 -0.6485 -1.0024
   25SAPC  H11Y 3366   3.961   5.898   7.931  0.2059  1.2823 -0.4881
   25SAPC  C312 3367   3.832   5.804   8.086  0.0403 -1.2014 -0.0953
   25SAPC  H12X 3368   3.855   5.696   8.093  1.5263 -1.0086 -1.6911
   25SAPC  H12Y 3369   3.724   5.821   8.109  0.4220  0.0058  0.8559
   25SAPC  C313 3370   3.910   5.880   8.196 -0.2252 -1.0121  0.4393
   25SAPC  H13X 3371   3.887   5.989   8.202  1.5095 -0.7408  2.6246
   25SAPC  H13Y 3372   4.015   5.869   8.160 -0.1365 -0.3647  0.4804
   25SAPC  C314 3373   3.892   5.825   8.343  0.4881  0.2061  0.3331
   25SAPC  H14X 3374   3.827   5.735   8.338 -0.0193  0.3516  3.2992
   25SAPC  H14Y 3375   3.830   5.899   8.396  0.2622  0.3692 -0.1556
   25SAPC  C315 3376   4.017   5.798   8.423 -0.2880 -0.1722 -0.2632
   25SAPC  H15X 3377   4.069   5.895   8.437  1.2274 -1.0644  0.3392
   25SAPC  H15Y 3378   4.084   5.730   8.366  0.5275  1.4529 -1.2649
   25SAPC  C316 3379   3.995   5.746   8.570  0.4386 -0.1285 -0.4330
   25SAPC  H16X 3380   4.094   5.747   8.621 -0.8643  2.2579  2.1564
   25SAPC  H16Y 3381   3.951   5.645   8.561 -1.3818  0.6792 -0.8201
   25SAPC  C317 3382   3.902   5.828   8.664 -0.3174  0.8435 -0.3246
   25SAPC  H17X 3383   3.797   5.816   8.630 -0.4747  2.0821 -0.2962
   25SAPC  H17Y 3384   3.930   5.935   8.677 -0.8444  0.8039  1.3743
   25SAPC  C318 3385   3.902   5.776   8.810  0.1253 -0.4929 -0.0343
   25SAPC  H18X 3386   3.982   5.822   8.871 -0.9837 -0.5126  1.4555
   25SAPC  H18Y 3387   3.931   5.669   8.811 -0.4889 -0.6828 -0.9844
   25SAPC  H18Z 3388   3.814   5.796   8.875  0.1592 -0.8626  0.1220
   26SAPC     N 3389   3.275   0.824   6.458 -0.1708 -0.3218 -0.7672
   26SAPC   C12 3390   3.137   0.786   6.518  0.0551  0.8551  0.0735
   26SAPC  H12A 3391   3.103   0.866   6.582  1.6789  1.1740  0.5603
   26SAPC  H12B 3392   3.150   0.705   6.587  0.1499  1.4101  0.7084
   26SAPC   C13 3393   3.373   0.847   6.567  0.1448  0.8136  0.7331
   26SAPC  H13A 3394   3.469   0.870   6.522 -0.1190 -0.4327 -0.4982
   26SAPC  H13B 3395   3.349   0.930   6.632  0.9410  1.0462  0.7337
   26SAPC  H13C 3396   3.391   0.760   6.627 -1.1210  0.2632  0.3367
   26SAPC   C14 3397   3.324   0.723   6.362  0.3181  0.0183 -0.1318
   26SAPC  H14A 3398   3.323   0.626   6.411  1.2929  1.2517  2.4610
   26SAPC  H14B 3399   3.250   0.716   6.285  2.4575 -1.3083 -2.1385
   26SAPC  H14C 3400   3.422   0.740   6.319  0.0519  0.0830 -0.7105
   26SAPC   C15 3401   3.262   0.953   6.387  0.3698 -0.6626  0.2558
   26SAPC  H15A 3402   3.174   0.952   6.325 -0.5047  1.7262  1.4115
   26SAPC  H15B 3403   3.246   1.041   6.446  0.6966 -1.2698  1.2513
   26SAPC  H15C 3404   3.347   0.973   6.322  0.7764  2.0481  1.5466
   26SAPC   C11 3405   3.022   0.743   6.425 -0.2338 -0.5946  0.5160
   26SAPC  H11A 3406   2.936   0.714   6.490 -1.1668  0.1627 -0.3584
   26SAPC  H11B 3407   3.051   0.661   6.356 -1.0289 -0.5172  0.0895
   26SAPC     P 3408   2.840   0.931   6.340 -0.0896  0.2439  0.0012
   26SAPC   O13 3409   2.838   1.037   6.243 -0.0745  0.5096 -0.2845
   26SAPC   O14 3410   2.721   0.842   6.345  0.6363  0.2648 -0.4393
   26SAPC   O12 3411   2.978   0.850   6.336 -0.2901 -0.1186  0.1633
   26SAPC   O11 3412   2.854   0.998   6.475 -0.2973 -0.4391  0.1428
   26SAPC    C1 3413   2.850   1.138   6.495  0.1003 -0.1581 -0.0395
   26SAPC    HA 3414   2.838   1.207   6.409  0.1917  0.8545  0.7401
   26SAPC    HB 3415   2.756   1.170   6.546 -0.2796 -0.2832 -0.6652
   26SAPC    C2 3416   2.968   1.179   6.587  0.1493 -0.3631 -0.4173
   26SAPC    HS 3417   3.060   1.147   6.534 -0.5028 -0.8794 -1.2519
   26SAPC   O21 3418   2.960   1.129   6.716 -0.1354  0.1792  0.3223
   26SAPC   C21 3419   3.067   1.073   6.774  0.4565 -0.6898  0.4070
   26SAPC   O22 3420   3.177   1.055   6.728 -0.1021 -0.5389 -0.0993
   26SAPC   C22 3421   3.038   1.028   6.920 -0.0248  0.6970  0.6129
   26SAPC   H2R 3422   3.129   0.974   6.957 -0.8070 -0.6652  0.5862
   26SAPC   H2S 3423   3.036   1.123   6.976 -1.3453 -0.4352  2.5424
   26SAPC    C3 3424   2.968   1.333   6.588  0.4536 -0.1286 -0.1207
   26SAPC    HX 3425   2.974   1.372   6.484  2.9094  0.4624  0.2045
   26SAPC    HY 3426   3.066   1.364   6.630 -0.1679  0.8771  0.6143
   26SAPC   O31 3427   2.861   1.400   6.655  0.4270  0.0745  0.5636
   26SAPC   C31 3428   2.877   1.397   6.794  0.0051  0.5322  0.3376
   26SAPC   O32 3429   2.976   1.377   6.858 -0.2870 -0.5825  0.0712
   26SAPC   C32 3430   2.737   1.424   6.856 -0.3505 -0.7267  0.4787
   26SAPC   H2X 3431   2.645   1.390   6.803  0.3402  1.1192 -2.0431
   26SAPC   H2Y 3432   2.729   1.534   6.839 -2.0894 -0.9738 -0.4853
   26SAPC   C23 3433   2.910   0.934   6.937 -0.2652 -0.3045 -0.2389
   26SAPC   H3R 3434   2.930   0.855   6.861 -1.0070 -0.4854 -0.2522
   26SAPC   H3S 3435   2.815   0.987   6.915  0.2164  0.3172 -0.8533
   26SAPC   C24 3436   2.905   0.869   7.076  0.2991 -0.8570  0.1360
   26SAPC   H4R 3437   2.997   0.810   7.095  1.0171  0.6256  1.3383
   26SAPC   H4S 3438   2.820   0.797   7.070 -1.3766  1.2272 -1.4349
   26SAPC   C25 3439   2.875   0.963   7.188  0.2913  0.3522 -0.5529
   26SAPC   H5R 3440   2.772   1.002   7.182 -0.9074 -2.4962  0.7666
   26SAPC   C26 3441   2.966   1.003   7.283 -0.5486  0.0498  0.1797
   26SAPC   H6R 3442   2.922   1.068   7.359  0.8113  0.7642  0.3524
   26SAPC   C27 3443   3.106   0.951   7.294 -1.4195 -0.4815  0.3853
   26SAPC   H7R 3444   3.147   0.880   7.220 -0.8933  2.6872 -2.4704
   26SAPC   H7S 3445   3.119   0.905   7.395  2.1395  3.8415  2.1120
   26SAPC   C28 3446   3.206   1.062   7.277 -0.2748 -0.1523  0.0982
   26SAPC   H8R 3447   3.213   1.108   7.178 -0.4014  0.4124  0.3508
   26SAPC   C29 3448   3.262   1.133   7.376 -0.5182  0.2184 -0.4160
   26SAPC   H9R 3449   3.335   1.208   7.342  0.4981 -1.9407 -3.1256
   26SAPC  C210 3450   3.262   1.105   7.526  0.0842  0.1020  0.6108
   26SAPC  H10R 3451   3.367   1.104   7.564  0.6865 -0.5758 -1.0439
   26SAPC  H10S 3452   3.229   1.004   7.558 -0.0538  0.1192  0.5190
   26SAPC  C211 3453   3.186   1.212   7.610 -0.2677  0.2430 -0.4180
   26SAPC  H11R 3454   3.076   1.206   7.606 -0.3464  1.5367 -0.3670
   26SAPC  C212 3455   3.245   1.315   7.679 -0.8445 -1.0762  0.9395
   26SAPC  H12R 3456   3.178   1.373   7.744  0.8822 -1.3711  3.0173
   26SAPC  C213 3457   3.387   1.349   7.665 -0.2389 -0.1603 -0.4398
   26SAPC  H13R 3458   3.430   1.295   7.578 -1.9511 -3.6921  0.8056
   26SAPC  H13S 3459   3.442   1.308   7.753  0.7049 -0.3196 -1.0911
   26SAPC  C214 3460   3.402   1.499   7.659  0.2009  0.4153  0.1550
   26SAPC  H14R 3461   3.391   1.542   7.558 -1.2273 -0.3553 -0.0365
   26SAPC  C215 3462   3.429   1.580   7.764 -0.5871  0.1667 -0.0666
   26SAPC  H15R 3463   3.439   1.689   7.751 -1.3359  0.5807  2.4901
   26SAPC  C216 3464   3.442   1.536   7.906  0.0982  0.7622 -0.5060
   26SAPC  H16R 3465   3.541   1.569   7.944  0.5284 -0.0593 -0.9020
   26SAPC  H16S 3466   3.438   1.425   7.905  0.2406  0.7564 -0.4816
   26SAPC  C217 3467   3.326   1.596   7.991  0.3987 -0.4302 -0.1545
   26SAPC  H17R 3468   3.230   1.586   7.937  0.3173  0.9820 -0.2799
   26SAPC  H17S 3469   3.343   1.706   7.995  0.7314 -0.2924 -3.7995
   26SAPC  C218 3470   3.311   1.535   8.132 -0.3053  0.1743  0.1463
   26SAPC  H18R 3471   3.408   1.529   8.185 -0.2161  1.8695  0.1929
   26SAPC  H18S 3472   3.271   1.433   8.111 -1.8462  0.5068  1.4003
   26SAPC  C219 3473   3.220   1.597   8.234  0.1474  0.5318  0.1741
   26SAPC  H19R 3474   3.124   1.601   8.179  0.2427  0.8925  0.0367
   26SAPC  H19S 3475   3.260   1.698   8.257  1.5601 -0.4386  2.2023
   26SAPC  C220 3476   3.224   1.523   8.373 -0.2616 -0.5171  0.3520
   26SAPC  H20R 3477   3.128   1.469   8.383 -0.2916 -0.6426 -0.5706
   26SAPC  H20S 3478   3.234   1.597   8.456  1.4542  2.2627 -2.1902
   26SAPC  H20T 3479   3.308   1.451   8.363  0.8523  0.8528 -0.3994
   26SAPC   C33 3480   2.732   1.378   7.006 -0.1016 -0.7506 -0.1605
   26SAPC   H3X 3481   2.774   1.276   7.016  1.2029 -0.3382 -1.2825
   26SAPC   H3Y 3482   2.623   1.372   7.029 -0.0919  1.0873  0.4287
   26SAPC   C34 3483   2.802   1.467   7.112  0.2715 -0.1053 -1.5864
   26SAPC   H4X 3484   2.749   1.562   7.133 -0.9095 -0.8262 -1.2736
   26SAPC   H4Y 3485   2.898   1.489   7.060  1.3179  3.0644  1.5067
   26SAPC   C35 3486   2.818   1.397   7.249  0.5081  0.1689 -0.0707
   26SAPC   H5X 3487   2.876   1.302   7.246  0.0358 -0.2109  2.0032
   26SAPC   H5Y 3488   2.716   1.361   7.278  0.5320  0.5668  0.5215
   26SAPC   C36 3489   2.869   1.470   7.372  0.5627 -0.0220  0.2113
   26SAPC   H6X 3490   2.822   1.570   7.382  1.6505  0.7650 -2.0345
   26SAPC   H6Y 3491   2.976   1.497   7.354 -0.3647  2.7792 -1.5003
   26SAPC   C37 3492   2.841   1.402   7.503  0.1832  0.2201  0.5937
   26SAPC   H7X 3493   2.893   1.305   7.518 -0.4915 -0.4365 -1.1582
   26SAPC   H7Y 3494   2.733   1.393   7.527 -0.2430 -3.3738 -2.2308
   26SAPC   C38 3495   2.890   1.507   7.609  0.7403  0.5805  0.0169
   26SAPC   H8X 3496   2.850   1.609   7.589  0.0470  0.4449  0.6786
   26SAPC   H8Y 3497   3.001   1.509   7.617  0.9228  0.1223 -2.0883
   26SAPC   C39 3498   2.837   1.463   7.753 -0.0900  0.0031  0.0243
   26SAPC   H9X 3499   2.864   1.362   7.790 -0.8014 -0.2395 -0.1207
   26SAPC   H9Y 3500   2.726   1.464   7.754 -0.0825  0.3473  0.9076
   26SAPC  C310 3501   2.880   1.559   7.855  0.1074  0.4840 -0.7614
   26SAPC  H10X 3502   2.872   1.663   7.817  2.0904 -0.2716 -3.3513
   26SAPC  H10Y 3503   2.989   1.545   7.870 -0.0850 -0.0296  0.2920
   26SAPC  C311 3504   2.800   1.559   7.990 -0.5938  0.0346 -0.2467
   26SAPC  H11X 3505   2.692   1.568   7.966 -1.1396  3.7007  3.0231
   26SAPC  H11Y 3506   2.836   1.648   8.046  2.0110 -0.4997 -1.0364
   26SAPC  C312 3507   2.825   1.437   8.081  0.2552 -0.2587  0.0353
   26SAPC  H12X 3508   2.933   1.444   8.108  0.6908  0.4588 -1.8399
   26SAPC  H12Y 3509   2.805   1.339   8.034  0.5860 -0.6982  0.7986
   26SAPC  C313 3510   2.740   1.435   8.212  0.3585 -0.0171  0.3031
   26SAPC  H13X 3511   2.634   1.410   8.190 -0.0002  0.6492  1.2461
   26SAPC  H13Y 3512   2.753   1.533   8.262  1.4694 -0.1543  0.2910
   26SAPC  C314 3513   2.796   1.320   8.303 -0.0223 -0.3695  0.0546
   26SAPC  H14X 3514   2.739   1.327   8.398  1.6625 -0.8284  1.1268
   26SAPC  H14Y 3515   2.894   1.355   8.341 -1.9511  3.8834  1.3333
   26SAPC  C315 3516   2.799   1.176   8.240 -0.5811  0.5666 -0.3387
   26SAPC  H15X 3517   2.872   1.183   8.157  0.2491 -0.2964  0.2968
   26SAPC  H15Y 3518   2.700   1.161   8.191  0.6010 -2.7369 -1.8650
   26SAPC  C316 3519   2.824   1.066   8.340  0.0252  0.0383  0.8807
   26SAPC  H16X 3520   2.800   0.969   8.292  1.9336 -0.2683  0.5252
   26SAPC  H16Y 3521   2.767   1.090   8.433 -0.7014 -0.3519  0.5413
   26SAPC  C317 3522   2.972   1.047   8.373 -0.6095  0.1836 -0.5030
   26SAPC  H17X 3523   3.021   1.146   8.390  0.8830 -0.7374  0.6941
   26SAPC  H17Y 3524   3.034   1.004   8.291  0.8153 -0.1454  0.7216
   26SAPC  C318 3525   2.996   0.957   8.495  0.7422 -0.5336 -0.9671
   26SAPC  H18X 3526   2.950   1.006   8.583  0.7595  1.7363 -2.1891
   26SAPC  H18Y 3527   3.104   0.941   8.515  0.7162  1.3088  0.7640
   26SAPC  H18Z 3528   2.941   0.860   8.489  0.6792 -0.4501 -1.8500
   27SAPC     N 3529   0.392   1.738   6.572 -0.4295  0.4552  0.1613
   27SAPC   C12 3530   0.457   1.610   6.529  0.2118 -0.4924  0.4433
   27SAPC  H12A 3531   0.563   1.630   6.526  0.0365  0.4070  0.3773
   27SAPC  H12B 3532   0.434   1.582   6.427  0.9270 -0.9393  0.3998
   27SAPC   C13 3533   0.422   1.842   6.466 -0.7122  0.4602  0.2878
   27SAPC  H13A 3534   0.381   1.799   6.376 -2.4517  1.3719  0.6149
   27SAPC  H13B 3535   0.368   1.936   6.472  0.0662  0.9150  0.2120
   27SAPC  H13C 3536   0.527   1.852   6.446 -0.4498 -1.0061  0.8638
   27SAPC   C14 3537   0.240   1.717   6.574 -0.1632  0.0211  0.5651
   27SAPC  H14A 3538   0.198   1.816   6.574  0.8920  0.4725  0.6213
   27SAPC  H14B 3539   0.206   1.662   6.487 -0.4504  1.9002 -0.5406
   27SAPC  H14C 3540   0.207   1.677   6.668 -3.0062 -1.6554 -1.0572
   27SAPC   C15 3541   0.420   1.788   6.718 -0.5846 -0.2187  0.1711
   27SAPC  H15A 3542   0.521   1.812   6.746 -0.1533  0.4126 -1.7968
   27SAPC  H15B 3543   0.364   1.880   6.731  3.2969  2.1809  0.5866
   27SAPC  H15C 3544   0.379   1.725   6.795  1.4716  0.1478  1.5828
   27SAPC   C11 3545   0.428   1.479   6.609 -0.0384 -0.4470  0.3112
   27SAPC  H11A 3546   0.465   1.389   6.554 -2.0468 -0.1799 -1.5269
   27SAPC  H11B 3547   0.321   1.459   6.589  0.4020 -4.7403  1.6257
   27SAPC     P 3548   0.618   1.468   6.776  0.3849  0.0724 -0.4569
   27SAPC   O13 3549   0.705   1.474   6.657 -0.0807 -0.3702 -0.4947
   27SAPC   O14 3550   0.637   1.572   6.884 -0.4900  0.3741  0.4703
   27SAPC   O12 3551   0.458   1.480   6.744 -0.3117  0.3946  0.8873
   27SAPC   O11 3552   0.629   1.330   6.839 -0.2691  0.0721  0.1486
   27SAPC    C1 3553   0.528   1.236   6.842 -0.3060  0.2876  0.6267
   27SAPC    HA 3554   0.437   1.283   6.883  0.0640  0.7105  0.9748
   27SAPC    HB 3555   0.503   1.198   6.740 -2.9795  2.2248  0.5209
   27SAPC    C2 3556   0.576   1.111   6.918 -0.2382 -0.1770  0.0411
   27SAPC    HS 3557   0.494   1.038   6.908 -0.0653 -0.3319 -0.2474
   27SAPC   O21 3558   0.599   1.138   7.062 -0.2558 -0.2277  0.0025
   27SAPC   C21 3559   0.494   1.165   7.126  0.3834 -0.1930 -0.2497
   27SAPC   O22 3560   0.379   1.178   7.085 -0.1203  0.0031  0.0490
   27SAPC   C22 3561   0.538   1.194   7.278  1.3504 -0.1092 -0.2048
   27SAPC   H2R 3562   0.617   1.116   7.287  0.6402 -0.9312 -1.0031
   27SAPC   H2S 3563   0.584   1.295   7.280 -0.5298  0.8101 -1.7202
   27SAPC    C3 3564   0.697   1.054   6.846  0.1540  0.4559 -0.3195
   27SAPC    HX 3565   0.769   1.138   6.854  1.9902 -1.1125 -0.0668
   27SAPC    HY 3566   0.676   1.016   6.743  1.5029 -0.3738 -0.3060
   27SAPC   O31 3567   0.751   0.941   6.920  0.8357 -0.4192  0.1691
   27SAPC   C31 3568   0.882   0.923   6.909  0.7318 -0.5391 -1.4524
   27SAPC   O32 3569   0.958   0.985   6.838  0.1835 -0.3331  0.4568
   27SAPC   C32 3570   0.911   0.794   6.978 -0.3572 -0.2208 -0.3012
   27SAPC   H2X 3571   1.002   0.755   6.929  0.1807 -2.2789  2.2190
   27SAPC   H2Y 3572   0.830   0.722   6.951  2.0846 -2.4540 -1.8847
   27SAPC   C23 3573   0.421   1.172   7.381 -1.0076 -0.3530  0.0398
   27SAPC   H3R 3574   0.339   1.233   7.335 -0.5662  0.6089  0.5159
   27SAPC   H3S 3575   0.437   1.214   7.483 -1.5328 -0.7854  0.3048
   27SAPC   C24 3576   0.383   1.026   7.389 -0.1879 -0.1393  0.1344
   27SAPC   H4R 3577   0.371   0.984   7.287  0.2179 -2.1535  0.8965
   27SAPC   H4S 3578   0.284   1.010   7.436  0.4439 -0.4247  1.3825
   27SAPC   C25 3579   0.490   0.955   7.468 -0.6383  0.5064 -0.4156
   27SAPC   H5R 3580   0.592   0.945   7.430 -0.5406 -0.2990  0.0473
   27SAPC   C26 3581   0.467   0.904   7.591  0.2619 -0.5518  0.3005
   27SAPC   H6R 3582   0.545   0.838   7.631  0.1009 -0.3167  1.0174
   27SAPC   C27 3583   0.336   0.897   7.665 -0.2006 -0.1176  0.5702
   27SAPC   H7R 3584   0.362   0.831   7.750  3.1876  0.0171 -0.2970
   27SAPC   H7S 3585   0.257   0.849   7.604 -1.6432  2.2684  0.5129
   27SAPC   C28 3586   0.289   1.035   7.717 -0.1933  0.8274  1.0392
   27SAPC   H8R 3587   0.263   1.111   7.642  1.1854  0.7912  0.4906
   27SAPC   C29 3588   0.324   1.073   7.842  0.4574 -0.5028 -0.1197
   27SAPC   H9R 3589   0.298   1.175   7.874 -1.3180 -1.3750  1.3079
   27SAPC  C210 3590   0.384   0.988   7.957 -0.6706  0.0871 -0.1450
   27SAPC  H10R 3591   0.351   0.882   7.952 -0.3762 -0.0139  0.0881
   27SAPC  H10S 3592   0.327   1.023   8.046  0.9172  3.1533 -0.2984
   27SAPC  C211 3593   0.534   1.005   7.962 -0.1443  1.2504  0.6477
   27SAPC  H11R 3594   0.581   1.010   7.863  0.7877  0.0541  1.0169
   27SAPC  C212 3595   0.611   1.007   8.069  0.5375  0.0043 -0.0335
   27SAPC  H12R 3596   0.720   0.996   8.055  0.7769  2.8925 -0.6431
   27SAPC  C213 3597   0.559   0.992   8.208  0.3530  0.3492 -0.4475
   27SAPC  H13R 3598   0.465   1.050   8.222 -1.6095 -2.5961 -0.8825
   27SAPC  H13S 3599   0.627   1.032   8.285 -0.5638 -1.3063  1.2782
   27SAPC  C214 3600   0.518   0.855   8.247  0.6174  0.3078 -0.2776
   27SAPC  H14R 3601   0.487   0.792   8.163  0.8661 -0.7836  0.4460
   27SAPC  C215 3602   0.509   0.805   8.369  0.1087 -0.0813 -0.4906
   27SAPC  H15R 3603   0.464   0.705   8.382  2.6360 -1.2997 -0.7678
   27SAPC  C216 3604   0.537   0.881   8.500 -0.3496  0.6568  0.1026
   27SAPC  H16R 3605   0.474   0.850   8.586 -0.3100 -0.7822 -0.3844
   27SAPC  H16S 3606   0.520   0.990   8.484 -1.8138  0.7098  1.8837
   27SAPC  C217 3607   0.693   0.869   8.529 -0.1468 -0.1078 -0.2465
   27SAPC  H17R 3608   0.705   0.917   8.629  0.3078 -0.8897  0.0719
   27SAPC  H17S 3609   0.747   0.928   8.452  0.3227  2.4999  2.0098
   27SAPC  C218 3610   0.735   0.726   8.543 -0.6955  0.6120  0.1812
   27SAPC  H18R 3611   0.734   0.679   8.443 -0.5937  2.7474 -0.8582
   27SAPC  H18S 3612   0.670   0.680   8.621  0.3871  1.0135  1.3423
   27SAPC  C219 3613   0.883   0.715   8.602 -0.0991  0.3898  0.1974
   27SAPC  H19R 3614   0.913   0.608   8.599 -0.6146  0.1398  2.5255
   27SAPC  H19S 3615   0.886   0.753   8.707 -0.3634  1.2731 -0.1181
   27SAPC  C220 3616   0.987   0.773   8.506 -0.5446 -0.8092  0.3472
   27SAPC  H20R 3617   0.975   0.882   8.490 -0.6065 -0.6707  1.3099
   27SAPC  H20S 3618   0.978   0.726   8.406 -0.6157 -3.0553  1.3761
   27SAPC  H20T 3619   1.088   0.769   8.551 -0.5798  0.2606  0.5458
   27SAPC   C33 3620   0.931   0.792   7.136 -0.3020 -0.1927 -0.1776
   27SAPC   H3X 3621   0.830   0.787   7.182 -0.1436 -2.6286 -0.0124
   27SAPC   H3Y 3622   0.981   0.890   7.154  2.1278 -0.7899 -3.1215
   27SAPC   C34 3623   1.019   0.676   7.187 -0.5398  0.5306 -0.3944
   27SAPC   H4X 3624   1.117   0.676   7.135 -0.1111  2.0178  0.3617
   27SAPC   H4Y 3625   0.962   0.581   7.180  2.0924 -0.9085 -2.7027
   27SAPC   C35 3626   1.043   0.703   7.332  0.4789 -0.7050  0.6777
   27SAPC   H5X 3627   0.960   0.728   7.401  1.3160  2.1803  0.7136
   27SAPC   H5Y 3628   1.108   0.793   7.343  1.2936 -1.2498  0.3928
   27SAPC   C36 3629   1.119   0.584   7.397  0.5107  0.1480 -0.4354
   27SAPC   H6X 3630   1.222   0.578   7.357 -0.2489  0.4337 -2.4963
   27SAPC   H6Y 3631   1.063   0.490   7.378 -1.0623  1.1256 -0.7743
   27SAPC   C37 3632   1.111   0.595   7.551  0.1583 -0.2070 -0.4831
   27SAPC   H7X 3633   1.136   0.496   7.594 -3.6972 -0.9921  0.1735
   27SAPC   H7Y 3634   1.002   0.616   7.565  0.3163  0.1715  0.2137
   27SAPC   C38 3635   1.187   0.715   7.614  0.2082 -0.1547 -0.7383
   27SAPC   H8X 3636   1.144   0.813   7.585 -0.0708 -0.4331 -1.2729
   27SAPC   H8Y 3637   1.295   0.718   7.585  0.7208 -0.1615  1.0773
   27SAPC   C39 3638   1.176   0.710   7.766 -0.5164  0.2395 -0.0260
   27SAPC   H9X 3639   1.071   0.733   7.795 -0.1215 -1.0935  2.6607
   27SAPC   H9Y 3640   1.240   0.789   7.811  2.0874 -0.2635 -2.7396
   27SAPC  C310 3641   1.218   0.570   7.819 -0.1939 -0.1548 -0.2374
   27SAPC  H10X 3642   1.314   0.535   7.776  0.1508 -1.9414  1.8865
   27SAPC  H10Y 3643   1.149   0.488   7.790 -0.9375  0.2889  0.2695
   27SAPC  C311 3644   1.245   0.560   7.977  0.0379  0.2100 -0.0616
   27SAPC  H11X 3645   1.303   0.470   8.005  1.8357  1.6353  0.8950
   27SAPC  H11Y 3646   1.152   0.553   8.037 -0.3027 -1.3913 -0.7576
   27SAPC  C312 3647   1.331   0.681   8.025 -0.0173 -0.7692 -0.3507
   27SAPC  H12X 3648   1.268   0.772   8.014  1.6101  0.1434 -2.4787
   27SAPC  H12Y 3649   1.417   0.700   7.958  0.4172 -0.4847  0.2796
   27SAPC  C313 3650   1.385   0.669   8.170  0.0478  0.0285  0.1167
   27SAPC  H13X 3651   1.466   0.592   8.168  1.5387  1.5517  0.1674
   27SAPC  H13Y 3652   1.303   0.645   8.240 -0.3338  0.7325 -0.0934
   27SAPC  C314 3653   1.456   0.796   8.210  0.1064  0.2417  0.8159
   27SAPC  H14X 3654   1.388   0.880   8.184 -0.5181 -0.7956 -0.9825
   27SAPC  H14Y 3655   1.545   0.808   8.145  1.8336 -1.6037  2.7843
   27SAPC  C315 3656   1.497   0.809   8.355 -0.1767 -0.0470 -0.3791
   27SAPC  H15X 3657   1.574   0.888   8.366  0.4485 -0.8543  1.3236
   27SAPC  H15Y 3658   1.544   0.714   8.390 -0.4859  1.5058  4.6669
   27SAPC  C316 3659   1.378   0.835   8.454  0.3608 -0.0484  0.3603
   27SAPC  H16X 3660   1.316   0.745   8.472 -1.6951  1.0847 -0.8689
   27SAPC  H16Y 3661   1.320   0.921   8.415  0.5809  0.7945  1.8859
   27SAPC  C317 3662   1.425   0.875   8.589  0.0849  0.5590  0.0561
   27SAPC  H17X 3663   1.344   0.925   8.648 -0.8290 -0.0372 -0.6733
   27SAPC  H17Y 3664   1.509   0.946   8.582  0.7720 -0.1615  0.8691
   27SAPC  C318 3665   1.459   0.760   8.676 -0.2536  0.0410  1.0174
   27SAPC  H18X 3666   1.370   0.698   8.699 -2.0441  1.7910 -0.9791
   27SAPC  H18Y 3667   1.497   0.788   8.777 -0.9889 -0.7740  1.5244
   27SAPC  H18Z 3668   1.530   0.689   8.628 -2.1827 -1.8622  0.8799
   28SAPC     N 3669   5.773   4.247   6.162  0.1138 -0.2294  0.0700
   28SAPC   C12 3670   5.914   4.302   6.188 -0.6093  0.0462 -0.7484
   28SAPC  H12A 3671   5.946   4.295   6.291  0.0708  2.0207 -0.7931
   28SAPC  H12B 3672   5.902   4.406   6.163  1.9155 -0.1715 -3.1032
   28SAPC   C13 3673   5.681   4.294   6.280 -0.1058  0.0907 -0.5144
   28SAPC  H13A 3674   5.703   4.235   6.368  0.9487 -0.4665 -1.1371
   28SAPC  H13B 3675   5.705   4.397   6.301  0.4676 -0.3250  0.9810
   28SAPC  H13C 3676   5.578   4.287   6.250  0.0174 -0.7742 -0.7612
   28SAPC   C14 3677   5.716   4.294   6.027  0.2288  0.9741 -0.5103
   28SAPC  H14A 3678   5.703   4.400   6.008  0.8298  0.6461 -2.9252
   28SAPC  H14B 3679   5.771   4.254   5.943 -0.7942  0.3028 -0.8676
   28SAPC  H14C 3680   5.616   4.256   6.011  0.5555 -0.1823  0.1533
   28SAPC   C15 3681   5.770   4.098   6.164  0.4287  0.0496  0.2908
   28SAPC  H15A 3682   5.813   4.060   6.072  1.0495  3.7794 -1.0307
   28SAPC  H15B 3683   5.832   4.056   6.242  1.9182 -0.3004 -1.0501
   28SAPC  H15C 3684   5.668   4.062   6.161  0.4171  0.0907  0.1597
   28SAPC   C11 3685   6.028   4.235   6.105 -0.0696  0.6063 -0.0977
   28SAPC  H11A 3686   6.116   4.300   6.119  0.4515  0.0581 -0.7570
   28SAPC  H11B 3687   5.986   4.224   6.002 -1.3364  0.3136  0.4324
   28SAPC     P 3688   6.141   4.078   6.271  0.1405 -0.2541 -0.0622
   28SAPC   O13 3689   6.157   3.931   6.278 -0.1710 -0.2060 -0.5116
   28SAPC   O14 3690   6.270   4.156   6.267 -0.0333  0.3479  0.1811
   28SAPC   O12 3691   6.063   4.103   6.141  0.5676  0.0136  0.4528
   28SAPC   O11 3692   6.046   4.123   6.396 -0.2896 -0.2793 -0.0873
   28SAPC    C1 3693   6.064   4.244   6.468 -0.0110 -0.5126 -0.0069
   28SAPC    HA 3694   6.098   4.319   6.394 -0.0051  1.3037  1.8112
   28SAPC    HB 3695   5.963   4.267   6.507  0.2397 -0.9499  0.9061
   28SAPC    C2 3696   6.165   4.229   6.592  0.1678  0.0086 -0.4467
   28SAPC    HS 3697   6.258   4.180   6.554  1.7967 -0.0100  3.3330
   28SAPC   O21 3698   6.107   4.142   6.696  0.5431  0.3147  0.2654
   28SAPC   C21 3699   6.206   4.061   6.756 -0.3646  0.7270  0.3270
   28SAPC   O22 3700   6.323   4.059   6.723 -0.0545 -0.2305  0.0445
   28SAPC   C22 3701   6.131   3.960   6.848  0.7029 -0.2483 -0.0530
   28SAPC   H2R 3702   6.082   4.010   6.934  0.5139 -1.8412  0.7896
   28SAPC   H2S 3703   6.053   3.915   6.782 -0.0637  1.7309 -0.5316
   28SAPC    C3 3704   6.189   4.368   6.663 -0.2203 -0.4125  0.0838
   28SAPC    HX 3705   6.087   4.400   6.693 -0.6175  0.0312 -1.6394
   28SAPC    HY 3706   6.228   4.441   6.589  0.6833 -0.2324  0.7403
   28SAPC   O31 3707   6.268   4.358   6.786  0.6846 -0.2002 -0.4777
   28SAPC   C31 3708   6.402   4.352   6.767  0.1014 -0.4644  0.4452
   28SAPC   O32 3709   6.459   4.327   6.659  0.8204 -0.2371  0.0543
   28SAPC   C32 3710   6.473   4.345   6.902  0.3346 -0.5235  0.0409
   28SAPC   H2X 3711   6.394   4.344   6.980 -1.4980 -1.0044 -1.7767
   28SAPC   H2Y 3712   6.535   4.436   6.917  0.7052 -0.3218 -2.5160
   28SAPC   C23 3713   6.229   3.852   6.908 -0.4167  0.3165 -0.0471
   28SAPC   H3R 3714   6.302   3.901   6.975 -1.9174  1.6645  0.6172
   28SAPC   H3S 3715   6.286   3.802   6.826 -0.7629  0.1127 -0.1662
   28SAPC   C24 3716   6.148   3.735   6.977 -0.4686  0.3581 -0.0094
   28SAPC   H4R 3717   6.095   3.670   6.905 -0.1143  0.8934 -0.7683
   28SAPC   H4S 3718   6.227   3.673   7.025  2.4840  2.7917 -1.4927
   28SAPC   C25 3719   6.052   3.795   7.080  0.5144  0.2244 -0.2968
   28SAPC   H5R 3720   5.958   3.813   7.026  0.4051 -0.2039 -0.2507
   28SAPC   C26 3721   6.076   3.826   7.210 -0.8064  0.6532  0.0665
   28SAPC   H6R 3722   5.999   3.888   7.258 -1.0636  0.8090 -0.5378
   28SAPC   C27 3723   6.200   3.806   7.289 -0.2563 -0.0178  0.3902
   28SAPC   H7R 3724   6.287   3.774   7.227  0.0775 -0.2041  0.9535
   28SAPC   H7S 3725   6.200   3.718   7.357  1.4816  0.0715  0.5352
   28SAPC   C28 3726   6.241   3.935   7.349  0.1658  0.1819 -0.0439
   28SAPC   H8R 3727   6.285   4.004   7.275  0.3902  0.9998  0.8517
   28SAPC   C29 3728   6.252   3.961   7.477  0.3067 -0.3775 -0.3092
   28SAPC   H9R 3729   6.284   4.064   7.499 -0.7561  0.4812 -2.6329
   28SAPC  C210 3730   6.208   3.870   7.586 -0.3093  0.4593 -0.4167
   28SAPC  H10R 3731   6.292   3.800   7.606 -1.0249  0.1189  1.4614
   28SAPC  H10S 3732   6.125   3.802   7.555 -0.0465 -0.0030 -0.1192
   28SAPC  C211 3733   6.170   3.933   7.724 -0.4156  0.5330 -0.1847
   28SAPC  H11R 3734   6.205   4.035   7.746 -0.7139 -0.1628  3.8511
   28SAPC  C212 3735   6.101   3.869   7.816  0.1576 -0.1573  0.1760
   28SAPC  H12R 3736   6.082   3.916   7.913 -0.5554  2.1502 -1.0557
   28SAPC  C213 3737   6.054   3.728   7.811 -0.3222 -0.1245 -0.1605
   28SAPC  H13R 3738   6.000   3.712   7.715  2.2190  1.0482 -1.8283
   28SAPC  H13S 3739   5.971   3.726   7.884 -1.0256 -0.5310 -0.9506
   28SAPC  C214 3740   6.154   3.619   7.854  0.1582 -0.0247  0.5562
   28SAPC  H14R 3741   6.262   3.631   7.840  0.4295 -2.2901  0.6100
   28SAPC  C215 3742   6.118   3.496   7.888  0.2527 -0.2685 -0.1297
   28SAPC  H15R 3743   6.187   3.418   7.925 -1.4971 -0.7696  2.2098
   28SAPC  C216 3744   5.976   3.442   7.895  0.1396  0.3475  0.3827
   28SAPC  H16R 3745   5.919   3.498   7.818  1.1170 -0.9677 -1.3315
   28SAPC  H16S 3746   5.928   3.454   7.995 -1.4403 -1.0543 -0.2004
   28SAPC  C217 3747   5.969   3.288   7.874 -0.0696  0.0569  0.1265
   28SAPC  H17R 3748   6.033   3.259   7.788  1.7271  4.3247 -0.1253
   28SAPC  H17S 3749   5.865   3.262   7.846 -0.0971 -0.4065  0.6490
   28SAPC  C218 3750   6.004   3.205   7.991 -0.0297 -0.1950  0.0046
   28SAPC  H18R 3751   5.948   3.241   8.080 -0.8669 -1.0078 -0.1824
   28SAPC  H18S 3752   6.111   3.219   8.018  0.3668  0.2134 -1.7553
   28SAPC  C219 3753   5.979   3.050   7.982  0.0524 -0.4776  0.6319
   28SAPC  H19R 3754   6.042   3.014   7.899 -0.9885  1.2514 -0.9276
   28SAPC  H19S 3755   5.871   3.026   7.968  0.4109 -1.5213 -0.4090
   28SAPC  C220 3756   6.021   2.982   8.112 -0.2348  0.4020 -0.6654
   28SAPC  H20R 3757   6.006   2.873   8.093  0.9804  0.9444 -5.4613
   28SAPC  H20S 3758   5.953   3.012   8.195  3.3478  2.0368  1.7523
   28SAPC  H20T 3759   6.127   2.998   8.139 -1.0050  0.8573  2.3444
   28SAPC   C33 3760   6.566   4.228   6.915  1.0178 -0.3861  0.2761
   28SAPC   H3X 3761   6.647   4.236   6.839 -1.0508 -2.4819 -2.2379
   28SAPC   H3Y 3762   6.515   4.130   6.908  1.3423 -0.7924  3.1601
   28SAPC   C34 3763   6.639   4.233   7.047 -0.6636  0.0563 -1.1052
   28SAPC   H4X 3764   6.677   4.336   7.061  0.6940 -0.7008  1.0512
   28SAPC   H4Y 3765   6.729   4.168   7.045 -1.8544 -1.6802 -0.1241
   28SAPC   C35 3766   6.559   4.182   7.168 -0.1136  0.6048  0.0099
   28SAPC   H5X 3767   6.517   4.081   7.148  0.9603 -0.0670  1.0500
   28SAPC   H5Y 3768   6.472   4.248   7.184 -0.3204  1.0486 -2.6278
   28SAPC   C36 3769   6.648   4.181   7.294  0.5210  0.8121 -0.3447
   28SAPC   H6X 3770   6.682   4.286   7.297 -1.7046  1.5088  2.2322
   28SAPC   H6Y 3771   6.740   4.121   7.279  1.2302  1.2472  2.0131
   28SAPC   C37 3772   6.573   4.152   7.425 -0.9389  0.7502  0.8405
   28SAPC   H7X 3773   6.547   4.044   7.436 -0.8335  0.7357  0.9567
   28SAPC   H7Y 3774   6.482   4.213   7.439  0.5164  3.4860 -1.1342
   28SAPC   C38 3775   6.659   4.191   7.550  0.4223  0.5774 -0.9426
   28SAPC   H8X 3776   6.663   4.302   7.555 -0.5543  0.7035 -2.5721
   28SAPC   H8Y 3777   6.762   4.154   7.534 -0.4802 -2.8230  0.6012
   28SAPC   C39 3778   6.599   4.130   7.679  0.1408 -0.7029  0.2623
   28SAPC   H9X 3779   6.604   4.019   7.675  1.8009 -0.5916 -1.1071
   28SAPC   H9Y 3780   6.491   4.155   7.691  0.1961 -0.8103  1.0032
   28SAPC  C310 3781   6.671   4.160   7.814 -1.2370 -0.0177  0.0819
   28SAPC  H10X 3782   6.770   4.110   7.816 -1.8662 -1.2622  0.2925
   28SAPC  H10Y 3783   6.606   4.129   7.898  0.8254 -0.0851  1.7122
   28SAPC  C311 3784   6.691   4.309   7.851 -0.1136  0.1514 -0.4675
   28SAPC  H11X 3785   6.596   4.367   7.857 -0.6577 -0.9200  1.7862
   28SAPC  H11Y 3786   6.772   4.351   7.788  0.2729  0.2739  0.1056
   28SAPC  C312 3787   6.764   4.320   7.982 -0.4436 -0.1231 -0.0118
   28SAPC  H12X 3788   6.864   4.274   7.969 -0.2842 -0.2843  1.6997
   28SAPC  H12Y 3789   6.721   4.257   8.062 -2.6355  1.2202 -0.0670
   28SAPC  C313 3790   6.778   4.469   8.032 -0.4738  0.2300  0.2582
   28SAPC  H13X 3791   6.674   4.505   8.045 -1.1910 -1.7315  0.1128
   28SAPC  H13Y 3792   6.821   4.542   7.960 -1.1623  1.0840  0.6912
   28SAPC  C314 3793   6.863   4.486   8.155  0.3841 -0.3822 -0.0511
   28SAPC  H14X 3794   6.882   4.590   8.192 -0.6526 -0.6139  1.1902
   28SAPC  H14Y 3795   6.965   4.448   8.134 -0.4201 -1.8532 -1.3473
   28SAPC  C315 3796   6.804   4.417   8.285  0.1114 -0.0085 -0.2230
   28SAPC  H15X 3797   6.890   4.421   8.356  0.0750 -0.4272 -0.1497
   28SAPC  H15Y 3798   6.773   4.311   8.275 -0.5897 -0.1677  3.0226
   28SAPC  C316 3799   6.673   4.494   8.321  0.3138  0.7066 -0.4005
   28SAPC  H16X 3800   6.589   4.450   8.263  0.9771 -0.4075 -0.5384
   28SAPC  H16Y 3801   6.688   4.599   8.288 -2.3836  2.0175  2.2619
   28SAPC  C317 3802   6.662   4.495   8.474 -0.5160  0.1480 -0.2344
   28SAPC  H17X 3803   6.756   4.525   8.524 -0.0883 -1.5858  0.0469
   28SAPC  H17Y 3804   6.641   4.393   8.513 -0.6780 -0.0662 -0.8657
   28SAPC  C318 3805   6.556   4.597   8.516 -0.5827  0.2547 -0.3394
   28SAPC  H18X 3806   6.559   4.689   8.454  0.7740  1.0581  0.8971
   28SAPC  H18Y 3807   6.560   4.628   8.623  0.8950  2.0031 -0.8796
   28SAPC  H18Z 3808   6.455   4.550   8.508 -0.7937  0.7004 -0.2772
   29SAPC     N 3809   2.360   0.814   6.464  0.5881  0.4640  0.3153
   29SAPC   C12 3810   2.480   0.906   6.482  0.2782 -0.2005  0.1326
   29SAPC  H12A 3811   2.573   0.851   6.481 -0.0376 -0.7288 -0.6962
   29SAPC  H12B 3812   2.476   0.941   6.584 -1.1226 -2.6326  0.9543
   29SAPC   C13 3813   2.359   0.702   6.561 -0.2963 -0.3553  0.0081
   29SAPC  H13A 3814   2.441   0.633   6.547  0.9313  0.9781  0.5447
   29SAPC  H13B 3815   2.368   0.740   6.661  0.4025  1.3663 -0.6952
   29SAPC  H13C 3816   2.264   0.650   6.553 -1.4660  1.4129  2.0118
   29SAPC   C14 3817   2.225   0.884   6.465  0.0986 -0.3240  0.0436
   29SAPC  H14A 3818   2.219   0.967   6.396 -0.8418 -0.2257  0.2279
   29SAPC  H14B 3819   2.138   0.821   6.463 -0.2386  0.1086  0.7145
   29SAPC  H14C 3820   2.218   0.936   6.560  0.1110  0.6325 -0.4744
   29SAPC   C15 3821   2.364   0.748   6.336  0.3096  0.1913  0.4667
   29SAPC  H15A 3822   2.410   0.809   6.259  0.1825  2.3077  2.0045
   29SAPC  H15B 3823   2.416   0.654   6.338  0.6184  0.3958  2.8240
   29SAPC  H15C 3824   2.264   0.717   6.307 -0.3805  0.8621  2.0399
   29SAPC   C11 3825   2.497   1.031   6.397  0.0420  0.2260 -0.0297
   29SAPC  H11A 3826   2.514   1.010   6.290  0.3138 -2.1523  0.4481
   29SAPC  H11B 3827   2.586   1.080   6.441 -0.0867 -0.5233  1.0867
   29SAPC     P 3828   2.395   1.274   6.370  0.1304 -0.5572 -0.1497
   29SAPC   O13 3829   2.482   1.331   6.471 -0.0954  0.1131 -0.0232
   29SAPC   O14 3830   2.437   1.271   6.228  0.0471 -0.2128 -0.4160
   29SAPC   O12 3831   2.382   1.118   6.406  0.1082  0.3527 -0.4628
   29SAPC   O11 3832   2.242   1.329   6.389 -0.0656  1.4898 -0.3623
   29SAPC    C1 3833   2.141   1.269   6.472 -0.0991 -0.0962  0.6422
   29SAPC    HA 3834   2.051   1.252   6.409  1.4811 -0.0474 -1.6913
   29SAPC    HB 3835   2.170   1.168   6.508  2.1849 -0.6975 -2.6574
   29SAPC    C2 3836   2.111   1.351   6.599 -0.8901 -0.3268 -0.5636
   29SAPC    HS 3837   2.052   1.436   6.562  1.3969  1.9454  0.8369
   29SAPC   O21 3838   2.242   1.381   6.658  0.2501  0.1980  0.0576
   29SAPC   C21 3839   2.276   1.508   6.654  0.2278  0.0285  0.3435
   29SAPC   O22 3840   2.230   1.587   6.573  0.0948  1.1016  0.0533
   29SAPC   C22 3841   2.382   1.528   6.755  0.4365  0.3902  0.4908
   29SAPC   H2R 3842   2.363   1.462   6.842 -1.6791 -1.6973 -1.4599
   29SAPC   H2S 3843   2.480   1.503   6.708  0.5882  0.9847  0.4947
   29SAPC    C3 3844   2.021   1.279   6.706 -0.9318  0.3372  0.5905
   29SAPC    HX 3845   2.084   1.193   6.739 -1.3589  0.2580  1.1939
   29SAPC    HY 3846   1.939   1.228   6.650  1.3773  0.4533 -3.1132
   29SAPC   O31 3847   1.986   1.348   6.829 -0.5966 -0.4390  0.1819
   29SAPC   C31 3848   1.887   1.426   6.798  0.3723  0.5878  0.1667
   29SAPC   O32 3849   1.840   1.449   6.688 -0.3324 -0.3396  0.7154
   29SAPC   C32 3850   1.835   1.498   6.920  0.0491 -0.9966  0.0393
   29SAPC   H2X 3851   1.728   1.525   6.912 -0.0505 -0.2376  3.2960
   29SAPC   H2Y 3852   1.893   1.591   6.934 -0.6170 -0.3180 -1.5440
   29SAPC   C23 3853   2.376   1.673   6.819 -0.0727  0.3877  0.8096
   29SAPC   H3R 3854   2.397   1.735   6.729  1.5938  1.4950  1.9496
   29SAPC   H3S 3855   2.463   1.684   6.887  2.3606  0.8289 -2.2498
   29SAPC   C24 3856   2.239   1.708   6.876 -0.4847  0.1159  0.3257
   29SAPC   H4R 3857   2.160   1.693   6.800  0.3941 -2.1067 -0.1731
   29SAPC   H4S 3858   2.239   1.817   6.900 -1.6750  0.3926 -0.8940
   29SAPC   C25 3859   2.190   1.619   6.989  0.1652 -0.5764  0.6465
   29SAPC   H5R 3860   2.105   1.555   6.963  0.5460 -0.4727 -0.8598
   29SAPC   C26 3861   2.254   1.609   7.109 -0.3437  0.3323 -0.4428
   29SAPC   H6R 3862   2.203   1.557   7.191  1.2448 -1.5060 -0.5928
   29SAPC   C27 3863   2.373   1.683   7.165  0.4000 -0.3085  0.3012
   29SAPC   H7R 3864   2.339   1.758   7.240  0.3483 -0.1589  0.1304
   29SAPC   H7S 3865   2.424   1.739   7.084 -1.5687 -0.9319 -1.4216
   29SAPC   C28 3866   2.457   1.580   7.241 -0.3209 -0.5229 -0.1232
   29SAPC   H8R 3867   2.528   1.528   7.175 -0.1297  0.1478 -0.4528
   29SAPC   C29 3868   2.451   1.549   7.373 -0.2870 -0.3839  0.6435
   29SAPC   H9R 3869   2.509   1.464   7.413 -0.0790 -0.3376  0.4359
   29SAPC  C210 3870   2.351   1.607   7.474  0.5905 -0.0790 -0.8510
   29SAPC  H10R 3871   2.278   1.530   7.508 -0.4048  1.9108  1.7514
   29SAPC  H10S 3872   2.286   1.683   7.425 -1.4962 -0.2020  1.5937
   29SAPC  C211 3873   2.414   1.686   7.597 -0.2381  0.8096  0.0360
   29SAPC  H11R 3874   2.475   1.771   7.563 -1.9496  3.2884  2.8430
   29SAPC  C212 3875   2.397   1.663   7.732 -0.1652 -0.1573  0.0200
   29SAPC  H12R 3876   2.467   1.708   7.805 -1.5457  0.8719  0.7257
   29SAPC  C213 3877   2.307   1.562   7.798  0.2790  0.1379 -0.3356
   29SAPC  H13R 3878   2.256   1.506   7.717 -2.3604 -1.3337  2.2686
   29SAPC  H13S 3879   2.228   1.618   7.854 -0.2152 -0.3855 -0.5051
   29SAPC  C214 3880   2.361   1.457   7.894  0.1410  0.2172  0.6393
   29SAPC  H14R 3881   2.409   1.369   7.849  1.1131 -0.9119  3.7569
   29SAPC  C215 3882   2.341   1.434   8.024 -0.0019 -0.0091 -0.1122
   29SAPC  H15R 3883   2.386   1.342   8.065  3.4421  2.2906  1.4448
   29SAPC  C216 3884   2.262   1.521   8.118  0.2325 -0.3029  0.6543
   29SAPC  H16R 3885   2.187   1.457   8.169 -0.6603 -0.9472 -1.4355
   29SAPC  H16S 3886   2.206   1.602   8.066  1.4002 -0.0041 -0.1632
   29SAPC  C217 3887   2.354   1.573   8.235  0.1787 -0.5633 -0.3257
   29SAPC  H17R 3888   2.433   1.637   8.190 -0.1215  0.9805  1.2985
   29SAPC  H17S 3889   2.406   1.484   8.277 -0.6026 -1.7987 -1.9181
   29SAPC  C218 3890   2.281   1.646   8.347 -0.2203 -0.1689 -0.4396
   29SAPC  H18R 3891   2.210   1.722   8.308  1.5364  2.8043  1.9213
   29SAPC  H18S 3892   2.353   1.699   8.414 -0.3271 -1.5772  0.8128
   29SAPC  C219 3893   2.213   1.551   8.442  0.2717  0.0197  0.0140
   29SAPC  H19R 3894   2.286   1.472   8.472  1.4117  0.7343 -0.8305
   29SAPC  H19S 3895   2.126   1.500   8.396 -0.5228  0.9061  0.5211
   29SAPC  C220 3896   2.157   1.612   8.571  0.0093  0.3077 -0.1990
   29SAPC  H20R 3897   2.091   1.701   8.554 -1.2638 -0.0577  2.5934
   29SAPC  H20S 3898   2.248   1.647   8.623 -1.5801  2.4018  1.3008
   29SAPC  H20T 3899   2.109   1.531   8.629 -0.4195 -1.5671 -3.0532
   29SAPC   C33 3900   1.856   1.419   7.057 -0.1671 -0.5634 -0.5348
   29SAPC   H3X 3901   1.952   1.363   7.054 -0.5976 -1.3249 -0.3496
   29SAPC   H3Y 3902   1.759   1.364   7.061  0.1981 -1.4244 -2.5230
   29SAPC   C34 3903   1.870   1.508   7.176 -0.0280 -1.2388 -0.3462
   29SAPC   H4X 3904   1.783   1.577   7.170  0.4704 -0.5167  0.5339
   29SAPC   H4Y 3905   1.966   1.565   7.172 -0.8358  0.3067  1.1890
   29SAPC   C35 3906   1.874   1.437   7.312  0.0077  0.7406 -0.2059
   29SAPC   H5X 3907   1.944   1.351   7.303 -0.0392  0.5940  0.7901
   29SAPC   H5Y 3908   1.777   1.390   7.338  1.4578 -1.6666  1.0472
   29SAPC   C36 3909   1.928   1.531   7.421  0.5233 -0.2159  0.5885
   29SAPC   H6X 3910   1.859   1.618   7.424  1.5582  0.6279  0.0985
   29SAPC   H6Y 3911   2.023   1.582   7.395 -0.3855  2.0023  1.5021
   29SAPC   C37 3912   1.929   1.457   7.552  0.0059  0.6360  0.0972
   29SAPC   H7X 3913   2.018   1.391   7.564  0.2824 -0.0608 -4.9614
   29SAPC   H7Y 3914   1.845   1.384   7.556 -0.4618  1.1967  0.6187
   29SAPC   C38 3915   1.927   1.560   7.670 -0.2051 -0.5099  0.4691
   29SAPC   H8X 3916   1.844   1.631   7.654  1.4748  1.5511  0.6596
   29SAPC   H8Y 3917   2.026   1.610   7.680  0.8670 -2.8512  2.3781
   29SAPC   C39 3918   1.902   1.498   7.810 -0.7337 -0.3798  0.0942
   29SAPC   H9X 3919   1.999   1.451   7.837 -0.2765  1.1997  1.3382
   29SAPC   H9Y 3920   1.828   1.417   7.797  1.0585 -1.8084 -1.4533
   29SAPC  C310 3921   1.881   1.607   7.906 -0.2233  0.2513 -0.7016
   29SAPC  H10X 3922   1.805   1.676   7.864  0.6991  0.0247 -2.7451
   29SAPC  H10Y 3923   1.977   1.662   7.908  0.2706 -0.5624 -1.6565
   29SAPC  C311 3924   1.832   1.559   8.045 -0.3930  0.2886  0.1784
   29SAPC  H11X 3925   1.921   1.506   8.087 -0.4767  1.8374  2.3910
   29SAPC  H11Y 3926   1.755   1.482   8.027 -0.6816  0.9796 -1.6645
   29SAPC  C312 3927   1.794   1.648   8.153 -1.3178  0.6433 -0.2385
   29SAPC  H12X 3928   1.719   1.718   8.111 -1.8322  0.7513  0.8446
   29SAPC  H12Y 3929   1.883   1.714   8.167 -1.4612  1.2306 -1.9961
   29SAPC  C313 3930   1.755   1.569   8.280  0.2157  0.1171  0.3394
   29SAPC  H13X 3931   1.820   1.480   8.295 -2.8180 -2.0966  0.9314
   29SAPC  H13Y 3932   1.651   1.535   8.257  0.6021 -0.5060 -0.4826
   29SAPC  C314 3933   1.760   1.653   8.404  0.2206 -0.5849  0.1887
   29SAPC  H14X 3934   1.853   1.713   8.412 -0.7309  1.1214 -1.2988
   29SAPC  H14Y 3935   1.767   1.583   8.490  1.3918  0.1629  0.7190
   29SAPC  C315 3936   1.631   1.732   8.418  0.7034  0.9842 -0.1424
   29SAPC  H15X 3937   1.547   1.666   8.391  0.9677  0.7990 -0.5082
   29SAPC  H15Y 3938   1.637   1.825   8.358 -0.9320  1.8390  0.9892
   29SAPC  C316 3939   1.619   1.776   8.559  0.4041 -0.1156 -0.3842
   29SAPC  H16X 3940   1.628   1.678   8.610  0.8420 -0.7822 -1.7052
   29SAPC  H16Y 3941   1.514   1.806   8.581  0.3376 -0.4896 -0.1764
   29SAPC  C317 3942   1.721   1.878   8.611  0.4797 -0.5463 -0.2109
   29SAPC  H17X 3943   1.692   1.977   8.569 -0.4606  0.7771  3.4125
   29SAPC  H17Y 3944   1.816   1.857   8.557  0.9410  1.6615 -0.3316
   29SAPC  C318 3945   1.712   1.877   8.762 -0.3411 -0.3016 -0.6007
   29SAPC  H18X 3946   1.772   1.965   8.793 -1.0251 -0.4609  1.2873
   29SAPC  H18Y 3947   1.772   1.796   8.809  1.8908  1.0329 -1.0829
   29SAPC  H18Z 3948   1.606   1.885   8.795 -0.9060 -4.3905 -1.1460
   30SAPC     N 3949   3.682   1.985   6.099  0.6403 -0.0546 -0.5437
   30SAPC   C12 3950   3.682   2.018   6.249  0.0627 -0.2264 -0.0137
   30SAPC  H12A 3951   3.723   1.936   6.307  0.2964  0.6994  1.1421
   30SAPC  H12B 3952   3.580   2.015   6.284  0.5210 -1.3792  1.2723
   30SAPC   C13 3953   3.602   2.081   6.016  0.2706 -0.0049  0.5434
   30SAPC  H13A 3954   3.499   2.086   6.050 -0.4555  0.3277 -1.6096
   30SAPC  H13B 3955   3.644   2.179   6.028  1.1709 -0.3872  0.5178
   30SAPC  H13C 3956   3.615   2.069   5.909  0.8507 -1.5469  0.7766
   30SAPC   C14 3957   3.818   1.982   6.045 -0.2071 -0.2193  0.5357
   30SAPC  H14A 3958   3.856   2.082   6.054  0.9064 -0.5119 -0.7517
   30SAPC  H14B 3959   3.889   1.912   6.087 -0.1891 -1.0506 -0.8520
   30SAPC  H14C 3960   3.809   1.964   5.939 -0.3703 -0.2166  0.5487
   30SAPC   C15 3961   3.618   1.843   6.083  0.8179  0.4353  0.2676
   30SAPC  H15A 3962   3.661   1.767   6.146  0.2761 -2.4942 -2.7493
   30SAPC  H15B 3963   3.520   1.857   6.128  0.9915  0.2693  0.6956
   30SAPC  H15C 3964   3.608   1.820   5.978  0.0479  1.5863  0.0707
   30SAPC   C11 3965   3.751   2.137   6.309 -0.2194  0.4151  0.2308
   30SAPC  H11A 3966   3.861   2.120   6.306 -0.2627  0.3033 -1.6625
   30SAPC  H11B 3967   3.733   2.131   6.418 -1.5352 -2.8663 -0.1179
   30SAPC     P 3968   3.594   2.353   6.292 -0.0620 -0.0823 -0.0049
   30SAPC   O13 3969   3.606   2.496   6.246 -0.7726  0.1499  0.4392
   30SAPC   O14 3970   3.472   2.280   6.249 -0.5656 -0.1396  0.1081
   30SAPC   O12 3971   3.722   2.263   6.252  0.5514 -0.3632 -0.5891
   30SAPC   O11 3972   3.580   2.358   6.455  0.1772 -0.3373  0.6879
   30SAPC    C1 3973   3.684   2.400   6.537 -0.6373  0.2743  0.4912
   30SAPC    HA 3974   3.783   2.416   6.489 -0.0275 -1.2318  1.2098
   30SAPC    HB 3975   3.660   2.501   6.577 -2.8614 -1.9547  5.1464
   30SAPC    C2 3976   3.709   2.312   6.664  0.6656 -0.2473 -0.1171
   30SAPC    HS 3977   3.750   2.216   6.627 -0.8018 -0.0344 -2.3960
   30SAPC   O21 3978   3.601   2.292   6.754 -0.2353 -0.0902 -0.4452
   30SAPC   C21 3979   3.521   2.185   6.737  0.0047  0.2571  0.3683
   30SAPC   O22 3980   3.530   2.101   6.650 -0.1744  0.4015 -0.4569
   30SAPC   C22 3981   3.404   2.181   6.841  0.0661 -0.7824  0.7613
   30SAPC   H2R 3982   3.336   2.268   6.830 -0.1815 -1.0020  0.5424
   30SAPC   H2S 3983   3.344   2.090   6.820 -2.9363  1.3864 -0.2517
   30SAPC    C3 3984   3.826   2.372   6.731 -0.9963 -0.0258  0.1104
   30SAPC    HX 3985   3.810   2.481   6.749 -0.8982 -0.1955  1.2741
   30SAPC    HY 3986   3.918   2.381   6.670 -2.5183  0.9046 -2.0970
   30SAPC   O31 3987   3.853   2.307   6.855 -0.1422 -0.1017 -0.3736
   30SAPC   C31 3988   3.921   2.194   6.861 -0.3449  0.6688 -0.5747
   30SAPC   O32 3989   3.966   2.139   6.763 -0.4806  0.3134 -0.2578
   30SAPC   C32 3990   3.925   2.139   7.007  0.2196 -0.0415  0.1894
   30SAPC   H2X 3991   3.822   2.153   7.047 -0.7440 -0.7984 -1.9647
   30SAPC   H2Y 3992   3.992   2.202   7.069 -1.2546 -0.2221  2.0024
   30SAPC   C23 3993   3.462   2.180   6.988 -0.2314  0.3123  0.0302
   30SAPC   H3R 3994   3.379   2.194   7.060 -1.3812  1.4024 -1.4876
   30SAPC   H3S 3995   3.540   2.259   6.995 -0.7071  0.5955  2.3606
   30SAPC   C24 3996   3.522   2.040   7.022  0.0889  0.3785  0.3056
   30SAPC   H4R 3997   3.567   2.053   7.123  1.3587 -2.7388  0.1863
   30SAPC   H4S 3998   3.614   2.016   6.964 -0.8819 -1.7586 -0.3989
   30SAPC   C25 3999   3.419   1.927   7.033  0.2408 -0.5337  0.5537
   30SAPC   H5R 4000   3.341   1.942   7.110 -0.8644  0.6400 -0.7799
   30SAPC   C26 4001   3.423   1.821   6.951 -0.4785 -0.2478 -0.3381
   30SAPC   H6R 4002   3.343   1.749   6.972 -1.0565  0.6865  0.6822
   30SAPC   C27 4003   3.520   1.790   6.838  0.4200  0.0963  0.4897
   30SAPC   H7R 4004   3.575   1.703   6.879 -0.8962 -0.7850  0.4064
   30SAPC   H7S 4005   3.599   1.863   6.811  1.7181 -1.5000 -0.1076
   30SAPC   C28 4006   3.434   1.752   6.721  0.2022 -0.3880  0.3161
   30SAPC   H8R 4007   3.350   1.820   6.698  0.2500 -0.4814 -0.1337
   30SAPC   C29 4008   3.437   1.640   6.639  0.7882  0.1877  0.2089
   30SAPC   H9R 4009   3.361   1.639   6.560 -1.0904 -1.6634  1.9679
   30SAPC  C210 4010   3.526   1.518   6.649 -0.1115 -0.2884 -0.2329
   30SAPC  H10R 4011   3.604   1.535   6.726  0.7137  0.0541 -1.1357
   30SAPC  H10S 4012   3.581   1.503   6.554  2.1184  2.1263  0.6175
   30SAPC  C211 4013   3.454   1.387   6.687 -0.1811 -0.0813  0.9862
   30SAPC  H11R 4014   3.424   1.320   6.605 -0.4240  1.0517  0.1314
   30SAPC  C212 4015   3.413   1.341   6.809  0.4976 -0.7959 -0.3151
   30SAPC  H12R 4016   3.340   1.260   6.819  0.1042 -0.4564 -0.4080
   30SAPC  C213 4017   3.432   1.418   6.941 -0.1024  0.1450 -0.0060
   30SAPC  H13R 4018   3.429   1.527   6.918 -0.7340  0.5556  1.9032
   30SAPC  H13S 4019   3.528   1.393   6.991 -1.5389 -1.0942  2.2524
   30SAPC  C214 4020   3.327   1.402   7.040  0.2836 -0.0646 -0.5487
   30SAPC  H14R 4021   3.230   1.357   7.013 -0.8903  2.1566 -0.1847
   30SAPC  C215 4022   3.351   1.435   7.172 -0.2552 -0.2976  0.6962
   30SAPC  H15R 4023   3.262   1.424   7.235 -1.1171  0.2353 -0.4262
   30SAPC  C216 4024   3.477   1.483   7.245 -0.1708  0.4431  0.2098
   30SAPC  H16R 4025   3.565   1.475   7.177 -1.2407 -0.6208 -1.0980
   30SAPC  H16S 4026   3.493   1.409   7.325  2.1056 -0.3139 -0.8992
   30SAPC  C217 4027   3.488   1.621   7.309 -0.2937  0.4078  0.0121
   30SAPC  H17R 4028   3.398   1.636   7.372 -1.4220 -3.4209 -0.5819
   30SAPC  H17S 4029   3.479   1.694   7.226 -1.1170 -0.4720 -0.6828
   30SAPC  C218 4030   3.623   1.639   7.379  0.3991  0.6213  0.0960
   30SAPC  H18R 4031   3.703   1.650   7.303  0.1575 -0.1214 -0.2694
   30SAPC  H18S 4032   3.640   1.542   7.431 -0.7797  0.6168  0.5068
   30SAPC  C219 4033   3.621   1.757   7.473 -0.3047 -0.7706 -0.6607
   30SAPC  H19R 4034   3.714   1.748   7.533  1.2895  3.0737 -2.3910
   30SAPC  H19S 4035   3.538   1.762   7.547 -1.1218 -0.6046 -1.5806
   30SAPC  C220 4036   3.621   1.889   7.391  0.7692  0.0114 -0.0437
   30SAPC  H20R 4037   3.639   1.980   7.451  0.4961  1.1465 -1.6392
   30SAPC  H20S 4038   3.523   1.900   7.339 -0.6501 -5.5534  1.0656
   30SAPC  H20T 4039   3.701   1.876   7.315 -0.8850  1.8068 -2.1608
   30SAPC   C33 4040   3.967   1.988   7.031 -0.2024 -0.1435  0.9165
   30SAPC   H3X 4041   4.074   1.976   7.005 -0.2716 -2.8089  1.6237
   30SAPC   H3Y 4042   3.908   1.920   6.965  1.0277  2.6075 -3.1510
   30SAPC   C34 4043   3.941   1.935   7.173 -0.3009  0.0032  0.0686
   30SAPC   H4X 4044   3.966   1.827   7.181  3.4480  0.7973  0.2539
   30SAPC   H4Y 4045   3.837   1.964   7.198  0.1240  0.2351  1.5629
   30SAPC   C35 4046   4.032   2.004   7.277  0.3697  0.0968 -0.9167
   30SAPC   H5X 4047   4.024   2.115   7.271  2.4715  0.2928 -0.5694
   30SAPC   H5Y 4048   4.132   1.981   7.233  1.7136  0.9547  1.5825
   30SAPC   C36 4049   4.013   1.946   7.416 -0.1784 -0.1441  0.0265
   30SAPC   H6X 4050   4.082   1.859   7.426 -3.0427 -2.2469  2.2080
   30SAPC   H6Y 4051   3.906   1.924   7.436 -0.8043  1.7991 -0.9882
   30SAPC   C37 4052   4.047   2.055   7.525  0.3809  0.4295 -0.7859
   30SAPC   H7X 4053   3.997   2.148   7.489  1.2770  1.0563 -0.4192
   30SAPC   H7Y 4054   4.156   2.072   7.537  0.6926 -2.0304  0.1583
   30SAPC   C38 4055   3.981   2.005   7.658  0.0786  0.5284  0.2377
   30SAPC   H8X 4056   3.870   2.001   7.648 -0.0144  2.6508  0.2971
   30SAPC   H8Y 4057   4.000   2.077   7.740  0.1646  0.9114 -0.1191
   30SAPC   C39 4058   4.021   1.863   7.707 -0.6543 -0.0508  0.0990
   30SAPC   H9X 4059   4.131   1.862   7.718 -0.9750 -1.4901  3.6867
   30SAPC   H9Y 4060   3.994   1.790   7.627 -0.7557 -1.2307  1.1874
   30SAPC  C310 4061   3.965   1.826   7.839 -0.1597 -0.1321 -0.1077
   30SAPC  H10X 4062   3.854   1.834   7.834 -0.0586  0.3564 -1.5939
   30SAPC  H10Y 4063   3.992   1.911   7.905 -1.0995 -0.6119  0.9318
   30SAPC  C311 4064   4.019   1.691   7.891 -0.1495  0.2536  0.3352
   30SAPC  H11X 4065   4.128   1.698   7.911  0.2659 -1.7969 -1.0145
   30SAPC  H11Y 4066   4.013   1.606   7.819 -3.2358  0.7188 -0.0504
   30SAPC  C312 4067   3.959   1.628   8.021  0.0175  0.3825  0.1919
   30SAPC  H12X 4068   3.989   1.522   8.034  3.6503  1.1568 -1.3905
   30SAPC  H12Y 4069   3.848   1.626   8.021 -0.0063  1.3513  1.0927
   30SAPC  C313 4070   4.003   1.706   8.145  0.1293 -0.2396 -0.4190
   30SAPC  H13X 4071   3.964   1.809   8.139 -1.5005 -0.8635 -0.6519
   30SAPC  H13Y 4072   4.113   1.721   8.155 -0.1569  1.1703  0.7129
   30SAPC  C314 4073   3.962   1.635   8.267 -0.1660  0.0311  0.3801
   30SAPC  H14X 4074   4.007   1.534   8.275 -2.5891 -1.2332 -1.5024
   30SAPC  H14Y 4075   3.856   1.609   8.249 -0.2386  0.5865 -0.0229
   30SAPC  C315 4076   3.989   1.719   8.392 -0.2653 -0.0631  0.4616
   30SAPC  H15X 4077   3.913   1.683   8.464 -1.5329 -0.7823 -1.1887
   30SAPC  H15Y 4078   3.960   1.824   8.372  2.0754  0.5401  0.0377
   30SAPC  C316 4079   4.137   1.715   8.442  1.0724  0.3463  0.6743
   30SAPC  H16X 4080   4.192   1.770   8.364 -1.1713  1.3793 -0.2338
   30SAPC  H16Y 4081   4.149   1.604   8.449  1.3382  0.3437  0.1843
   30SAPC  C317 4082   4.154   1.773   8.576 -0.1230  0.3893 -0.6836
   30SAPC  H17X 4083   4.121   1.879   8.578  1.6792  0.9745 -1.6876
   30SAPC  H17Y 4084   4.264   1.780   8.590 -0.0576 -0.2092 -0.8556
   30SAPC  C318 4085   4.082   1.698   8.691 -0.9676  0.2982 -0.4978
   30SAPC  H18X 4086   4.150   1.698   8.779 -1.1799 -1.0576 -0.3242
   30SAPC  H18Y 4087   4.060   1.596   8.652 -0.4520  0.6303 -1.6710
   30SAPC  H18Z 4088   3.982   1.739   8.719  0.1979  1.7600  1.6705
   31SAPC     N 4089   5.391   2.103   6.270  0.6293  0.0684 -0.6773
   31SAPC   C12 4090   5.364   2.254   6.228  0.2267 -0.2584  0.1101
   31SAPC  H12A 4091   5.384   2.265   6.122  0.0004 -1.6621 -0.0844
   31SAPC  H12B 4092   5.442   2.308   6.280  0.0011 -2.0077  2.3030
   31SAPC   C13 4093   5.522   2.067   6.211 -0.1008  0.6045  0.0950
   31SAPC  H13A 4094   5.550   1.967   6.242  0.0861  1.5374  3.1126
   31SAPC  H13B 4095   5.529   2.078   6.104  0.8580 -0.1470  0.0716
   31SAPC  H13C 4096   5.607   2.126   6.242  1.3056 -0.8530 -0.8972
   31SAPC   C14 4097   5.387   2.090   6.414  0.2112 -0.3011  0.2570
   31SAPC  H14A 4098   5.391   1.989   6.454  0.1813 -0.9862 -1.4198
   31SAPC  H14B 4099   5.460   2.149   6.467 -0.3294 -0.5305  1.2757
   31SAPC  H14C 4100   5.299   2.132   6.460  1.7769  1.8123  1.4070
   31SAPC   C15 4101   5.279   2.012   6.223 -0.3534  0.9281 -0.1023
   31SAPC  H15A 4102   5.292   1.920   6.278 -2.7347  1.1912  0.9522
   31SAPC  H15B 4103   5.178   2.041   6.247  0.2259  1.0666  2.2713
   31SAPC  H15C 4104   5.279   1.994   6.116 -0.4984 -0.4839  0.1242
   31SAPC   C11 4105   5.230   2.317   6.271 -0.0733 -0.0520 -0.9696
   31SAPC  H11A 4106   5.226   2.305   6.381  0.3339 -0.9016 -1.0457
   31SAPC  H11B 4107   5.143   2.258   6.234 -1.2335 -0.7609  2.7335
   31SAPC     P 4108   5.118   2.545   6.305  0.1404  0.1999 -0.3060
   31SAPC   O13 4109   5.125   2.687   6.271 -0.5227 -0.4292  0.9298
   31SAPC   O14 4110   4.987   2.474   6.289  0.2170 -0.2895  0.1824
   31SAPC   O12 4111   5.224   2.457   6.229  0.5114  0.0868  0.0340
   31SAPC   O11 4112   5.161   2.528   6.458  0.3983  0.0016 -0.3716
   31SAPC    C1 4113   5.255   2.598   6.534  0.1279 -0.2586  0.6018
   31SAPC    HA 4114   5.356   2.558   6.511 -0.7725 -1.3003 -1.7806
   31SAPC    HB 4115   5.246   2.705   6.505  0.0563 -1.0119 -2.2956
   31SAPC    C2 4116   5.223   2.590   6.685  0.0864 -0.5755  0.5498
   31SAPC    HS 4117   5.296   2.653   6.740 -0.1664  0.9281 -0.8059
   31SAPC   O21 4118   5.222   2.453   6.729  0.0020 -0.5483 -0.0689
   31SAPC   C21 4119   5.341   2.396   6.752  0.0705  0.5338 -0.5003
   31SAPC   O22 4120   5.450   2.448   6.746 -0.7703 -0.3735 -0.4455
   31SAPC   C22 4121   5.327   2.243   6.768  0.1324  0.0084 -0.1659
   31SAPC   H2R 4122   5.219   2.218   6.776 -0.4039  1.5150 -2.2067
   31SAPC   H2S 4123   5.365   2.205   6.671 -2.1582 -0.7244 -0.8069
   31SAPC    C3 4124   5.088   2.646   6.721 -0.5853  0.1599 -0.3815
   31SAPC    HX 4125   5.011   2.598   6.656 -2.3962  2.7390 -0.2042
   31SAPC    HY 4126   5.083   2.751   6.684 -1.3396  0.2776  0.0435
   31SAPC   O31 4127   5.058   2.639   6.864 -0.3892  0.3051 -0.8602
   31SAPC   C31 4128   4.956   2.576   6.918  0.6863  0.1157 -0.1734
   31SAPC   O32 4129   4.861   2.517   6.858  0.2634  0.7638  0.0142
   31SAPC   C32 4130   4.971   2.572   7.062 -0.2861  0.3752  0.5643
   31SAPC   H2X 4131   4.960   2.677   7.096 -2.5006  0.7847 -1.2924
   31SAPC   H2Y 4132   5.070   2.534   7.093 -0.1883  0.0149 -0.1816
   31SAPC   C23 4133   5.410   2.190   6.888  0.4976  0.2829 -0.2084
   31SAPC   H3R 4134   5.514   2.227   6.875  0.1120  2.7258  3.0305
   31SAPC   H3S 4135   5.416   2.079   6.879 -1.4797  0.1300  0.0924
   31SAPC   C24 4136   5.376   2.233   7.035  0.6518  0.3755  0.7095
   31SAPC   H4R 4137   5.427   2.331   7.050  1.5256  0.3324 -1.7882
   31SAPC   H4S 4138   5.413   2.165   7.115  0.5944  0.0997  0.5007
   31SAPC   C25 4139   5.226   2.267   7.057 -0.9317 -0.1344  0.3109
   31SAPC   H5R 4140   5.198   2.373   7.051 -0.3722  0.0325  0.5614
   31SAPC   C26 4141   5.122   2.181   7.068 -0.5880 -0.0886 -1.0030
   31SAPC   H6R 4142   5.024   2.228   7.088 -0.0902  0.0076  1.4393
   31SAPC   C27 4143   5.132   2.036   7.074  0.2480  0.5848 -0.3294
   31SAPC   H7R 4144   5.236   1.998   7.086  0.1442  0.5409  0.4675
   31SAPC   H7S 4145   5.092   2.000   6.977 -0.1292 -0.8068  0.3191
   31SAPC   C28 4146   5.048   1.969   7.182 -0.0440 -0.3102  0.3846
   31SAPC   H8R 4147   4.972   1.901   7.144  1.4801 -2.3389  0.8871
   31SAPC   C29 4148   5.081   1.963   7.316  0.1576  0.2357  0.3397
   31SAPC   H9R 4149   5.006   1.911   7.377  1.4441 -0.2165  1.5827
   31SAPC  C210 4150   5.189   2.038   7.389  0.5604 -0.3574 -0.3959
   31SAPC  H10R 4151   5.279   2.057   7.325  0.0836 -1.5147 -1.4423
   31SAPC  H10S 4152   5.216   1.970   7.472 -0.4531  0.0454  0.2688
   31SAPC  C211 4153   5.146   2.176   7.436  1.2574  0.1616  0.1023
   31SAPC  H11R 4154   5.081   2.232   7.367  0.2738 -0.8397  0.2033
   31SAPC  C212 4155   5.164   2.227   7.560  0.7238  0.4419 -0.2149
   31SAPC  H12R 4156   5.130   2.329   7.583  1.1403  0.6232 -0.4024
   31SAPC  C213 4157   5.229   2.162   7.681  0.1613 -0.0937 -0.1318
   31SAPC  H13R 4158   5.280   2.243   7.738 -1.4212  1.2713 -0.6167
   31SAPC  H13S 4159   5.307   2.098   7.634  1.5640  0.8054  0.9337
   31SAPC  C214 4160   5.126   2.086   7.769 -0.4217  0.0386  0.1242
   31SAPC  H14R 4161   5.039   2.039   7.721  0.4904  0.5052 -2.0638
   31SAPC  C215 4162   5.127   2.094   7.906  0.9383 -0.0667 -0.1862
   31SAPC  H15R 4163   5.053   2.042   7.968 -1.3354 -0.5078 -3.1456
   31SAPC  C216 4164   5.225   2.167   7.983  0.8854 -0.3151 -0.2740
   31SAPC  H16R 4165   5.322   2.174   7.929  1.0117  0.4740  0.0442
   31SAPC  H16S 4166   5.247   2.103   8.072 -1.3623  2.7668  2.6124
   31SAPC  C217 4167   5.181   2.311   8.004 -0.6975 -0.2295 -0.4851
   31SAPC  H17R 4168   5.078   2.315   8.047 -0.4780  1.1775 -0.0671
   31SAPC  H17S 4169   5.176   2.366   7.908 -1.4997  1.3819  0.4581
   31SAPC  C218 4170   5.268   2.386   8.103  0.0695 -0.4032 -0.3072
   31SAPC  H18R 4171   5.366   2.408   8.056  0.6228  1.7153  1.7233
   31SAPC  H18S 4172   5.277   2.338   8.203 -0.7254  1.1348  0.5262
   31SAPC  C219 4173   5.200   2.523   8.134 -0.8382  0.3697  0.5170
   31SAPC  H19R 4174   5.095   2.508   8.167 -0.9951 -0.5053 -0.3548
   31SAPC  H19S 4175   5.209   2.578   8.037  2.2914  0.4726  0.8264
   31SAPC  C220 4176   5.268   2.591   8.255 -0.2182 -0.0369  0.4874
   31SAPC  H20R 4177   5.262   2.521   8.341  0.8891 -1.8143 -0.8487
   31SAPC  H20S 4178   5.214   2.686   8.276 -2.8250 -1.3212 -0.2003
   31SAPC  H20T 4179   5.372   2.611   8.222  0.1150 -0.5233  1.2417
   31SAPC   C33 4180   4.858   2.481   7.126 -0.4553  0.3041 -0.0571
   31SAPC   H3X 4181   4.861   2.382   7.075  1.3155 -0.7074  1.9168
   31SAPC   H3Y 4182   4.757   2.526   7.120 -1.1177 -1.1489  0.1923
   31SAPC   C34 4183   4.894   2.445   7.272  0.2676 -0.2709 -0.9159
   31SAPC   H4X 4184   5.004   2.445   7.282  0.3040  0.9875 -1.2403
   31SAPC   H4Y 4185   4.856   2.344   7.299  0.3553  0.0456  0.4053
   31SAPC   C35 4186   4.836   2.543   7.369 -0.0848 -0.8324 -0.1797
   31SAPC   H5X 4187   4.726   2.544   7.358  0.0979  1.0298 -2.1400
   31SAPC   H5Y 4188   4.875   2.643   7.340  1.6490 -0.8096  1.9921
   31SAPC   C36 4189   4.890   2.506   7.509 -0.5312 -0.5874 -0.2307
   31SAPC   H6X 4190   4.868   2.587   7.581  0.4431  0.4694 -1.0998
   31SAPC   H6Y 4191   5.001   2.495   7.513 -0.2702  1.9167  0.3493
   31SAPC   C37 4192   4.819   2.389   7.570  0.0485  0.2726  0.0568
   31SAPC   H7X 4193   4.882   2.303   7.538 -0.8800 -0.1756 -0.5633
   31SAPC   H7Y 4194   4.712   2.390   7.541  0.3548 -1.2123 -1.1777
   31SAPC   C38 4195   4.823   2.400   7.719  0.2997  0.5906 -0.0789
   31SAPC   H8X 4196   4.765   2.490   7.748  1.7782  2.3813 -2.4689
   31SAPC   H8Y 4197   4.932   2.407   7.742  0.1524 -2.1651  1.7485
   31SAPC   C39 4198   4.747   2.294   7.788  0.5111  0.1709 -0.0508
   31SAPC   H9X 4199   4.788   2.193   7.765  1.3039 -0.0836  2.3076
   31SAPC   H9Y 4200   4.646   2.283   7.744  0.1576 -0.4404  0.8996
   31SAPC  C310 4201   4.738   2.308   7.944  0.2488  0.4608 -0.1164
   31SAPC  H10X 4202   4.688   2.405   7.966  0.1248  0.3271  0.2019
   31SAPC  H10Y 4203   4.839   2.317   7.989  1.4021  0.5998 -2.6417
   31SAPC  C311 4204   4.644   2.197   8.001 -0.0705  0.4986  0.5227
   31SAPC  H11X 4205   4.682   2.094   7.988 -0.3351  0.3315  1.0317
   31SAPC  H11Y 4206   4.547   2.214   7.948  0.5061 -0.7952 -0.9658
   31SAPC  C312 4207   4.617   2.220   8.150 -0.6776  0.2401 -0.0958
   31SAPC  H12X 4208   4.547   2.147   8.194  0.3680 -0.8470 -0.2068
   31SAPC  H12Y 4209   4.586   2.325   8.168  2.0024  1.1701 -0.6172
   31SAPC  C313 4210   4.755   2.216   8.227  0.0750  0.1209 -0.3100
   31SAPC  H13X 4211   4.794   2.318   8.205 -1.0628  0.7196  0.4193
   31SAPC  H13Y 4212   4.812   2.129   8.186 -0.9348 -1.4564  1.5414
   31SAPC  C314 4213   4.744   2.198   8.377 -0.1707 -0.1980  0.7242
   31SAPC  H14X 4214   4.679   2.109   8.391 -0.7743  0.2361  0.7118
   31SAPC  H14Y 4215   4.685   2.284   8.415  0.3914 -0.3100  1.8561
   31SAPC  C315 4216   4.874   2.188   8.440  0.3204  0.5845  0.3086
   31SAPC  H15X 4217   4.933   2.097   8.413 -1.8458 -0.7687  0.0091
   31SAPC  H15Y 4218   4.843   2.159   8.543 -0.2541 -0.0355 -0.0355
   31SAPC  C316 4219   4.957   2.313   8.440  0.3253 -0.0286 -0.0361
   31SAPC  H16X 4220   4.966   2.357   8.338 -2.5064 -0.3108 -0.4446
   31SAPC  H16Y 4221   5.062   2.297   8.472  0.3830 -0.4974 -0.4497
   31SAPC  C317 4222   4.905   2.430   8.520  0.6743  0.5728  0.3292
   31SAPC  H17X 4223   4.801   2.449   8.488  1.5109 -0.2623 -3.0947
   31SAPC  H17Y 4224   4.973   2.517   8.507 -0.3801  1.1049 -1.7346
   31SAPC  C318 4225   4.918   2.397   8.681 -0.2074 -0.1004  0.5807
   31SAPC  H18X 4226   5.024   2.369   8.704 -0.4397 -3.0393 -1.6563
   31SAPC  H18Y 4227   4.860   2.303   8.696 -0.6139  0.1087  0.3008
   31SAPC  H18Z 4228   4.879   2.475   8.750  0.6510  0.2450  0.6838
   32SAPC     N 4229   6.525   3.641   6.125  0.2354  0.1214 -0.3123
   32SAPC   C12 4230   6.576   3.579   6.253  0.5534  0.0776  0.3113
   32SAPC  H12A 4231   6.571   3.656   6.328 -0.8926  1.6561 -1.3692
   32SAPC  H12B 4232   6.682   3.565   6.238  0.4785 -1.0575  0.7982
   32SAPC   C13 4233   6.504   3.532   6.027  0.4039  0.0272 -0.1217
   32SAPC  H13A 4234   6.433   3.555   5.949 -1.3210 -0.1254  1.3562
   32SAPC  H13B 4235   6.589   3.478   5.989  1.2689 -0.1102  1.9291
   32SAPC  H13C 4236   6.456   3.446   6.070  1.2922  0.4708  1.8026
   32SAPC   C14 4237   6.389   3.699   6.139 -1.1092 -0.4067  0.0093
   32SAPC  H14A 4238   6.384   3.778   6.213 -1.9668  0.4022 -0.9172
   32SAPC  H14B 4239   6.378   3.735   6.038  1.0719  2.1549  0.6313
   32SAPC  H14C 4240   6.321   3.620   6.167 -0.8285 -0.6093  0.1296
   32SAPC   C15 4241   6.618   3.747   6.072 -0.5077 -0.1252  0.2470
   32SAPC  H15A 4242   6.570   3.808   5.997  2.5492  0.1150 -1.6096
   32SAPC  H15B 4243   6.646   3.812   6.153 -0.8777 -1.0997  1.1690
   32SAPC  H15C 4244   6.707   3.702   6.030 -1.1328 -0.7485 -0.4343
   32SAPC   C11 4245   6.512   3.447   6.299  0.4870  0.2136  0.4312
   32SAPC  H11A 4246   6.403   3.467   6.310  0.2750 -1.1504  0.9312
   32SAPC  H11B 4247   6.550   3.421   6.400 -1.9611  2.0260  1.8967
   32SAPC     P 4248   6.438   3.208   6.222 -0.3126 -0.1689  0.1955
   32SAPC   O13 4249   6.298   3.262   6.234 -0.4208 -0.4094 -0.0000
   32SAPC   O14 4250   6.467   3.112   6.115  0.0176  0.0453 -0.2196
   32SAPC   O12 4251   6.534   3.335   6.209  0.5070 -0.8547  0.9789
   32SAPC   O11 4252   6.499   3.156   6.358  0.2275  0.2292 -0.2926
   32SAPC    C1 4253   6.424   3.084   6.449  0.4120  0.2797  0.2524
   32SAPC    HA 4254   6.351   3.020   6.397 -0.7713 -0.4349  2.7406
   32SAPC    HB 4255   6.495   3.033   6.518 -0.6293 -1.5558 -0.0023
   32SAPC    C2 4256   6.355   3.174   6.556 -0.7017  0.0968 -0.6831
   32SAPC    HS 4257   6.288   3.247   6.505  0.1528  1.2653 -0.1577
   32SAPC   O21 4258   6.465   3.242   6.614 -0.0721 -0.3520 -0.9156
   32SAPC   C21 4259   6.440   3.368   6.664  0.0341  0.6937 -0.7008
   32SAPC   O22 4260   6.334   3.426   6.661 -0.0566 -0.3538  0.2790
   32SAPC   C22 4261   6.564   3.431   6.718 -0.4834 -0.6947 -0.0898
   32SAPC   H2R 4262   6.646   3.360   6.698 -1.5240 -1.5938 -1.1784
   32SAPC   H2S 4263   6.571   3.524   6.657 -0.3199  0.4792  1.6612
   32SAPC    C3 4264   6.272   3.094   6.661  0.3521 -0.5299 -0.3287
   32SAPC    HX 4265   6.329   3.003   6.689  1.8766 -0.0326 -1.7795
   32SAPC    HY 4266   6.177   3.063   6.612 -0.0313 -1.3729  0.9285
   32SAPC   O31 4267   6.240   3.164   6.783 -0.7158  0.1864  0.1437
   32SAPC   C31 4268   6.126   3.245   6.775 -1.0480  0.4034 -0.7508
   32SAPC   O32 4269   6.054   3.258   6.676 -0.0190  0.5133  0.4305
   32SAPC   C32 4270   6.100   3.332   6.901  0.0719  0.4828  0.2941
   32SAPC   H2X 4271   6.011   3.397   6.894 -0.6239 -0.6092 -1.3370
   32SAPC   H2Y 4272   6.188   3.400   6.902 -0.6373  1.4550 -1.2850
   32SAPC   C23 4273   6.571   3.460   6.874 -0.8605  0.4431 -0.4800
   32SAPC   H3R 4274   6.488   3.529   6.903  1.2908  2.5415  0.8460
   32SAPC   H3S 4275   6.670   3.509   6.886  1.5144 -4.0732 -0.5553
   32SAPC   C24 4276   6.546   3.342   6.961 -0.3894 -0.4722 -0.2989
   32SAPC   H4R 4277   6.436   3.324   6.963 -0.5822  0.7489  0.8377
   32SAPC   H4S 4278   6.572   3.372   7.064 -1.1866 -0.6750 -0.0345
   32SAPC   C25 4279   6.632   3.225   6.918 -0.5840 -0.3634  0.3321
   32SAPC   H5R 4280   6.638   3.206   6.810 -1.0498  0.5826  0.1355
   32SAPC   C26 4281   6.704   3.140   6.999  0.1310  0.4358 -0.0045
   32SAPC   H6R 4282   6.757   3.056   6.952 -0.5062 -0.0605  0.1532
   32SAPC   C27 4283   6.713   3.151   7.154  0.4189  0.6516 -0.1751
   32SAPC   H7R 4284   6.611   3.155   7.198 -0.2706 -0.5247 -1.6429
   32SAPC   H7S 4285   6.763   3.243   7.191  0.7941  0.6693 -0.7252
   32SAPC   C28 4286   6.799   3.038   7.206 -0.3775 -0.2524  0.3268
   32SAPC   H8R 4287   6.813   2.949   7.144  1.9019 -1.5475  2.6362
   32SAPC   C29 4288   6.854   3.041   7.331 -0.1139 -0.0187  0.1653
   32SAPC   H9R 4289   6.902   2.944   7.352  2.2812  0.4802 -2.6948
   32SAPC  C210 4290   6.855   3.156   7.434  0.2660  0.5297 -0.2888
   32SAPC  H10R 4291   6.802   3.246   7.396 -1.8033 -0.8152 -0.6409
   32SAPC  H10S 4292   6.960   3.190   7.438  0.0250  1.2780 -0.2914
   32SAPC  C211 4293   6.807   3.110   7.571  0.1502  0.2655  0.0405
   32SAPC  H11R 4294   6.701   3.124   7.595 -0.5373  0.4759 -2.9146
   32SAPC  C212 4295   6.881   3.069   7.673  0.7943 -0.3296  0.5475
   32SAPC  H12R 4296   6.832   3.033   7.764 -2.3882  1.6636 -0.3171
   32SAPC  C213 4297   7.028   3.047   7.668  0.6226  0.2076 -0.6187
   32SAPC  H13R 4298   7.057   3.091   7.570  2.1664  2.6024  0.8607
   32SAPC  H13S 4299   7.057   2.940   7.661  0.1399  0.0212  0.2639
   32SAPC  C214 4300   7.114   3.104   7.778 -0.1976  0.0706  0.3927
   32SAPC  H14R 4301   7.201   3.161   7.741  2.1719 -4.2802 -1.1198
   32SAPC  C215 4302   7.119   3.074   7.908 -0.5492  0.2208  0.0445
   32SAPC  H15R 4303   7.191   3.123   7.977  1.3735 -1.6494 -0.5736
   32SAPC  C216 4304   7.026   2.976   7.976  0.0811  0.1729 -1.6743
   32SAPC  H16R 4305   6.974   2.919   7.896 -3.4558  0.8143  0.0568
   32SAPC  H16S 4306   6.946   3.028   8.034  0.0905 -1.0282 -0.5742
   32SAPC  C217 4307   7.097   2.881   8.083  0.2108  0.2456 -0.2983
   32SAPC  H17R 4308   7.191   2.836   8.043  0.7872  1.3144 -0.1725
   32SAPC  H17S 4309   7.043   2.788   8.111 -0.6552  0.3109 -1.7184
   32SAPC  C218 4310   7.145   2.967   8.198 -0.0062 -0.0466  1.0908
   32SAPC  H18R 4311   7.066   3.027   8.248  0.5818  0.8286  0.9868
   32SAPC  H18S 4312   7.227   3.033   8.162  0.1180 -1.4604 -1.3455
   32SAPC  C219 4313   7.197   2.878   8.305  0.5127 -0.3334 -0.5585
   32SAPC  H19R 4314   7.278   2.813   8.267  0.1531  0.5759 -2.9268
   32SAPC  H19S 4315   7.104   2.822   8.329  0.3603  1.0104  2.1588
   32SAPC  C220 4316   7.242   2.958   8.428  0.0338 -1.4890 -0.2138
   32SAPC  H20R 4317   7.160   3.014   8.477  1.1062  0.1974 -0.2915
   32SAPC  H20S 4318   7.324   3.027   8.399  1.1120 -1.7851  2.0765
   32SAPC  H20T 4319   7.289   2.887   8.499  0.1425  0.9920  2.2976
   32SAPC   C33 4320   6.094   3.238   7.024  0.4469 -0.4032  0.0813
   32SAPC   H3X 4321   6.182   3.171   7.025 -0.3414 -1.4547  0.1267
   32SAPC   H3Y 4322   6.007   3.169   7.026 -0.2971  0.5215 -0.1148
   32SAPC   C34 4323   6.098   3.324   7.150 -0.4749  0.2515  0.1625
   32SAPC   H4X 4324   6.033   3.414   7.140 -2.3667 -1.3023 -1.8460
   32SAPC   H4Y 4325   6.196   3.377   7.150  1.1716 -2.6814  2.3875
   32SAPC   C35 4326   6.066   3.248   7.284  0.5016 -0.8937  0.1604
   32SAPC   H5X 4327   6.148   3.177   7.306  1.9037  0.7485  0.3109
   32SAPC   H5Y 4328   5.982   3.174   7.282 -0.1568 -0.4229  4.9376
   32SAPC   C36 4329   6.047   3.345   7.398  0.2276  0.4747 -1.4230
   32SAPC   H6X 4330   6.129   3.421   7.391  0.8153  0.0987  1.0464
   32SAPC   H6Y 4331   6.064   3.282   7.487 -0.5850  0.4543 -1.2785
   32SAPC   C37 4332   5.916   3.425   7.403 -0.4915  0.3023  0.1690
   32SAPC   H7X 4333   5.823   3.376   7.440 -0.4402  0.4972  0.5589
   32SAPC   H7Y 4334   5.889   3.458   7.301  0.2741 -2.3400 -0.9287
   32SAPC   C38 4335   5.919   3.548   7.494 -0.5118  0.0129  0.3511
   32SAPC   H8X 4336   6.016   3.601   7.494 -0.6669  0.2983  0.5361
   32SAPC   H8Y 4337   5.902   3.526   7.602 -0.2341  2.1398  0.8355
   32SAPC   C39 4338   5.809   3.652   7.457  0.2787 -0.0254 -0.2652
   32SAPC   H9X 4339   5.709   3.606   7.472 -0.0446  0.8626  0.3233
   32SAPC   H9Y 4340   5.827   3.671   7.349  0.6819  1.2122  0.0082
   32SAPC  C310 4341   5.796   3.761   7.560 -0.6706  0.0813  0.5843
   32SAPC  H10X 4342   5.892   3.816   7.571 -0.1403 -0.9745  1.3315
   32SAPC  H10Y 4343   5.777   3.717   7.660  0.7520 -2.5226 -0.2288
   32SAPC  C311 4344   5.689   3.864   7.550  0.8449  0.5738  0.2162
   32SAPC  H11X 4345   5.684   3.902   7.655 -1.1190  2.0382 -0.3766
   32SAPC  H11Y 4346   5.588   3.837   7.514  0.7278  0.8866  0.3106
   32SAPC  C312 4347   5.723   3.993   7.488  0.8816 -0.1674 -0.0034
   32SAPC  H12X 4348   5.824   4.019   7.526  1.2092  1.5331 -1.9509
   32SAPC  H12Y 4349   5.653   4.064   7.536  1.6301  2.1357 -2.2195
   32SAPC  C313 4350   5.721   3.998   7.340 -0.2043 -0.8291 -0.2872
   32SAPC  H13X 4351   5.770   3.909   7.294  0.3088 -0.2712 -0.8302
   32SAPC  H13Y 4352   5.786   4.081   7.307  2.2857 -2.6136 -0.0492
   32SAPC  C314 4353   5.582   4.031   7.285 -0.5189 -0.0605  0.2717
   32SAPC  H14X 4354   5.588   4.076   7.184  0.0240  1.5539  1.0100
   32SAPC  H14Y 4355   5.549   4.114   7.352 -2.6973  0.6579 -1.6239
   32SAPC  C315 4356   5.482   3.917   7.281 -0.6689  0.3872  0.6212
   32SAPC  H15X 4357   5.402   3.942   7.209  0.1378  0.7651 -0.1530
   32SAPC  H15Y 4358   5.434   3.891   7.378 -0.4620  2.0399  1.1877
   32SAPC  C316 4359   5.547   3.794   7.220 -0.0511 -0.8044 -0.8309
   32SAPC  H16X 4360   5.489   3.702   7.242 -0.9397 -0.2101 -0.6581
   32SAPC  H16Y 4361   5.640   3.775   7.277 -0.7296  0.3940  0.7245
   32SAPC  C317 4362   5.601   3.817   7.076  0.6223 -0.4567  0.2535
   32SAPC  H17X 4363   5.678   3.898   7.079  0.1896 -0.0568  0.6434
   32SAPC  H17Y 4364   5.516   3.855   7.017 -1.0781 -1.4351  2.0169
   32SAPC  C318 4365   5.660   3.689   7.006  0.1340 -0.1852  0.0694
   32SAPC  H18X 4366   5.573   3.620   6.995 -0.8003  0.9502  0.2587
   32SAPC  H18Y 4367   5.737   3.643   7.071  0.5531  0.0936 -0.2277
   32SAPC  H18Z 4368   5.718   3.719   6.916  1.0015 -1.0039  0.3442
   33POPC     N 4369   3.673   4.970  10.843  0.7707 -0.4848  0.1278
   33POPC   C12 4370   3.726   5.006  10.704 -0.5380  0.7186 -0.1289
   33POPC  H12A 4371   3.824   4.962  10.693  0.2136  2.7821 -2.1543
   33POPC  H12B 4372   3.744   5.113  10.704 -1.1067  0.8190  0.0818
   33POPC   C13 4373   3.623   4.822  10.844  0.5009 -0.4977 -0.1863
   33POPC  H13A 4374   3.704   4.751  10.849 -0.4802 -1.6407 -0.2755
   33POPC  H13B 4375   3.553   4.806  10.925  1.2595  0.0954  0.5975
   33POPC  H13C 4376   3.570   4.803  10.751 -1.8044 -1.6886  1.3149
   33POPC   C14 4377   3.779   4.981  10.944  0.0535 -0.3673  0.2741
   33POPC  H14A 4378   3.728   4.991  11.039 -1.1755 -1.6890 -0.2194
   33POPC  H14B 4379   3.842   4.894  10.950 -1.7960 -1.7425  0.3900
   33POPC  H14C 4380   3.837   5.070  10.927 -0.5903 -0.1059 -0.6140
   33POPC   C15 4381   3.558   5.058  10.882 -0.6975 -0.4671 -0.1596
   33POPC  H15A 4382   3.497   5.021  10.963 -0.5123  0.5065  0.4362
   33POPC  H15B 4383   3.491   5.049  10.798 -0.7445 -1.3072 -0.0305
   33POPC  H15C 4384   3.571   5.165  10.888 -0.0864 -0.5498  0.0878
   33POPC   C11 4385   3.640   4.967  10.586  0.3101 -0.6494  0.2046
   33POPC  H11A 4386   3.625   4.857  10.581 -0.4566 -0.5194 -0.4905
   33POPC  H11B 4387   3.701   4.988  10.496 -1.7494  0.2510 -1.0267
   33POPC     P 4388   3.375   4.954  10.553  0.0863  0.1190  0.1868
   33POPC   O13 4389   3.260   5.042  10.582  0.4554  0.4302  0.5806
   33POPC   O14 4390   3.374   4.827  10.630  0.2599  0.5366 -0.0334
   33POPC   O12 4391   3.509   5.031  10.583 -0.3672  0.2376 -0.4637
   33POPC   O11 4392   3.376   4.933  10.392 -0.2223 -0.0498 -0.0973
   33POPC    C1 4393   3.377   5.047  10.311 -0.4868 -0.0012  0.0132
   33POPC    HA 4394   3.393   5.145  10.360 -0.8972  0.0639  0.0175
   33POPC    HB 4395   3.463   5.026  10.243 -1.2741 -0.2627 -0.9105
   33POPC    C2 4396   3.249   5.065  10.234 -0.6172  0.0820  0.3940
   33POPC    HS 4397   3.226   4.974  10.175 -0.6281 -1.0511  2.1202
   33POPC   O21 4398   3.261   5.181  10.145 -0.5783 -0.2580 -0.3062
   33POPC   C21 4399   3.321   5.158  10.034  0.3413  0.3897 -0.0801
   33POPC   O22 4400   3.349   5.049   9.990 -0.0732 -0.4239  0.1403
   33POPC   C22 4401   3.335   5.291   9.961  0.0171 -0.9301  0.5701
   33POPC   H2R 4402   3.388   5.365  10.026 -1.6985 -1.1398  2.2778
   33POPC   H2S 4403   3.237   5.338   9.936  0.4295  0.9382  2.3013
   33POPC    C3 4404   3.130   5.083  10.324 -0.0613  0.3476 -0.4102
   33POPC    HX 4405   3.165   5.151  10.404 -0.4520  1.1019 -0.8723
   33POPC    HY 4406   3.106   4.989  10.378  1.1722 -0.3377 -1.0267
   33POPC   O31 4407   3.014   5.134  10.251  0.5779  0.3224 -0.6833
   33POPC   C31 4408   2.979   5.258  10.264  0.6510  0.0077  0.1936
   33POPC   O32 4409   3.026   5.338  10.346  0.2117  0.1295  0.2646
   33POPC   C32 4410   2.870   5.288  10.165 -0.1826 -0.0864  1.0244
   33POPC   H2X 4411   2.791   5.212  10.178 -0.3795 -0.8384 -3.5395
   33POPC   H2Y 4412   2.910   5.276  10.062 -0.6547  1.3944  0.6504
   33POPC   C23 4413   3.431   5.298   9.825  0.1331  0.0871 -0.3501
   33POPC   H3R 4414   3.529   5.254   9.851 -0.7158 -1.8632 -0.3247
   33POPC   H3S 4415   3.424   5.407   9.803  2.6530 -0.1297 -2.4597
   33POPC   C24 4416   3.360   5.239   9.700 -0.8390  0.2167 -0.2586
   33POPC   H4R 4417   3.256   5.277   9.702 -0.9619 -0.1540  1.5493
   33POPC   H4S 4418   3.375   5.129   9.710  2.1073  0.4496 -1.5442
   33POPC   C25 4419   3.444   5.269   9.567 -0.3104 -0.2158 -1.0408
   33POPC   H5R 4420   3.552   5.244   9.560 -0.5095 -0.9975 -1.4092
   33POPC   H5S 4421   3.451   5.379   9.557  2.3785 -0.3555 -1.0174
   33POPC   C26 4422   3.372   5.212   9.448 -0.1027  0.5229 -0.1166
   33POPC   H6R 4423   3.264   5.222   9.469  0.2775 -0.4972  2.6149
   33POPC   H6S 4424   3.394   5.103   9.436 -2.2641  0.1139 -0.5703
   33POPC   C27 4425   3.393   5.286   9.317 -0.2465  0.1109  0.5723
   33POPC   H7R 4426   3.403   5.394   9.344 -3.3668  0.8754 -1.0645
   33POPC   H7S 4427   3.301   5.261   9.260 -0.2874  1.9447 -0.2231
   33POPC   C28 4428   3.515   5.231   9.244 -0.2180 -0.1745 -0.0344
   33POPC   H8R 4429   3.502   5.123   9.223 -0.2957  0.1280 -1.5906
   33POPC   H8S 4430   3.598   5.228   9.317  0.3368  0.4769 -0.6341
   33POPC   C29 4431   3.552   5.317   9.124 -0.0265  0.0456  0.0491
   33POPC   H91 4432   3.630   5.385   9.161 -0.2240  0.1242  0.3261
   33POPC  C210 4433   3.526   5.298   8.993 -0.3174  0.0236  0.6460
   33POPC  H101 4434   3.560   5.380   8.929  0.3490  0.2669  1.3035
   33POPC  C211 4435   3.457   5.181   8.927  0.3038  0.4206  0.0008
   33POPC  H11R 4436   3.366   5.202   8.867 -0.6418  0.9640  1.5866
   33POPC  H11S 4437   3.413   5.114   9.005  0.3688  0.1623 -0.1822
   33POPC  C212 4438   3.548   5.105   8.835  0.2055  0.4969  0.1092
   33POPC  H12R 4439   3.642   5.078   8.887  2.1377  1.3085 -2.8964
   33POPC  H12S 4440   3.574   5.160   8.743 -0.2685 -0.0396 -0.3502
   33POPC  C213 4441   3.492   4.964   8.789 -0.3507 -0.0083  0.8767
   33POPC  H13R 4442   3.402   4.987   8.729  0.3298 -0.1032 -0.1900
   33POPC  H13S 4443   3.448   4.918   8.880  1.1731 -0.5055  1.3826
   33POPC  C214 4444   3.593   4.868   8.721 -0.0943 -0.2495 -0.1754
   33POPC  H14R 4445   3.675   4.866   8.796  1.1000 -2.0410 -1.5074
   33POPC  H14S 4446   3.657   4.911   8.641 -0.0367  1.2397  0.6462
   33POPC  C215 4447   3.539   4.727   8.699  0.2105  0.2824 -0.0183
   33POPC  H15R 4448   3.457   4.721   8.624 -0.0884 -0.2440  0.3501
   33POPC  H15S 4449   3.482   4.719   8.793  0.5529  1.4055  0.2967
   33POPC  C216 4450   3.634   4.614   8.669  0.0309  0.0858  0.0390
   33POPC  H16R 4451   3.697   4.592   8.758 -0.4161  3.4437  1.2630
   33POPC  H16S 4452   3.705   4.626   8.584 -0.6636  3.2040 -0.1325
   33POPC  C217 4453   3.561   4.475   8.647  0.6666  0.4134 -0.0504
   33POPC  H17R 4454   3.629   4.390   8.624  0.1176 -0.9374  3.0381
   33POPC  H17S 4455   3.486   4.473   8.566  1.3338 -0.6873 -0.6547
   33POPC  C218 4456   3.491   4.441   8.780 -0.9926 -0.2810  0.2766
   33POPC  H18R 4457   3.568   4.438   8.860 -0.6413  0.5816 -0.0174
   33POPC  H18S 4458   3.447   4.339   8.778 -0.0421 -0.6823 -2.0341
   33POPC  H18T 4459   3.409   4.513   8.800 -0.0605  0.4117  1.6757
   33POPC   C33 4460   2.810   5.434  10.174  0.2884 -0.2960  0.1383
   33POPC   H3X 4461   2.893   5.507  10.189  0.0349 -0.4786  2.7190
   33POPC   H3Y 4462   2.752   5.441  10.268  0.9182 -0.8042  0.5711
   33POPC   C34 4463   2.718   5.471  10.056 -0.7384 -0.1923 -0.8988
   33POPC   H4X 4464   2.678   5.574  10.069  2.6356  1.2548 -1.4752
   33POPC   H4Y 4465   2.627   5.407  10.065 -0.5356 -0.2704  0.7093
   33POPC   C35 4466   2.779   5.474   9.917 -0.1266  0.3994  0.2794
   33POPC   H5X 4467   2.860   5.399   9.904 -0.6239 -0.1002  0.0313
   33POPC   H5Y 4468   2.833   5.567   9.891 -0.5304  0.8353  0.9829
   33POPC   C36 4469   2.678   5.435   9.809 -0.4479 -0.6402 -0.1792
   33POPC   H6X 4470   2.589   5.501   9.809  0.0673  0.0722 -1.6757
   33POPC   H6Y 4471   2.631   5.337   9.833 -0.7439 -0.5089 -0.2257
   33POPC   C37 4472   2.729   5.447   9.667 -0.3132  0.3345  0.2639
   33POPC   H7X 4473   2.815   5.377   9.656 -1.1596 -0.5897 -0.6328
   33POPC   H7Y 4474   2.757   5.551   9.641 -0.0746  0.7784  2.2357
   33POPC   C38 4475   2.619   5.409   9.562  0.8469 -0.5814 -0.4026
   33POPC   H8X 4476   2.542   5.488   9.552  1.8777  0.3245 -1.3172
   33POPC   H8Y 4477   2.553   5.325   9.593  0.2823 -0.0954 -0.2896
   33POPC   C39 4478   2.672   5.380   9.420  0.0252  0.2955 -0.9882
   33POPC   H9X 4479   2.706   5.275   9.415  3.6810  1.3557 -0.2997
   33POPC   H9Y 4480   2.742   5.461   9.391  1.6059 -0.0559  1.7235
   33POPC  C310 4481   2.556   5.375   9.320  0.6535 -0.3099  0.5076
   33POPC  H10X 4482   2.520   5.480   9.305  1.1309  0.1994  2.6402
   33POPC  H10Y 4483   2.474   5.307   9.352  1.2242 -0.8727  0.7852
   33POPC  C311 4484   2.593   5.341   9.180 -0.4277  0.3087  0.1371
   33POPC  H11X 4485   2.637   5.239   9.189 -2.0991 -0.4530 -0.2057
   33POPC  H11Y 4486   2.671   5.403   9.131  1.4213  0.5387  3.2102
   33POPC  C312 4487   2.480   5.342   9.082  0.1609 -0.2549 -0.1832
   33POPC  H12X 4488   2.453   5.449   9.071 -0.5256 -0.3247  0.7309
   33POPC  H12Y 4489   2.391   5.291   9.125  1.8951 -1.7128  1.7841
   33POPC  C313 4490   2.515   5.276   8.947 -0.7408  0.3170  1.0038
   33POPC  H13X 4491   2.613   5.314   8.911 -1.2922 -0.6765 -1.6553
   33POPC  H13Y 4492   2.445   5.302   8.865 -0.6338 -1.5132  0.3090
   33POPC  C314 4493   2.507   5.125   8.952 -0.1672  0.1322  0.4808
   33POPC  H14X 4494   2.576   5.089   9.031  2.4143  3.2707 -0.2524
   33POPC  H14Y 4495   2.569   5.084   8.869  2.1668 -0.9758  2.7140
   33POPC  C315 4496   2.365   5.060   8.943  0.6926  0.4629 -0.2200
   33POPC  H15X 4497   2.291   5.109   9.010 -1.7552 -0.8064 -1.9432
   33POPC  H15Y 4498   2.370   4.954   8.973 -0.5646  0.3062 -0.5379
   33POPC  C316 4499   2.303   5.064   8.803 -0.2661  0.7034  0.6126
   33POPC  H16X 4500   2.211   5.003   8.790  1.3007 -1.4732 -0.4652
   33POPC  H16Y 4501   2.376   5.025   8.729 -1.7916 -0.6439 -0.2239
   33POPC  H16Z 4502   2.277   5.164   8.761 -1.4568  0.0666 -0.2087
   34POPC     N 4503   2.170   5.938  11.199 -0.1839 -0.4779  0.6016
   34POPC   C12 4504   2.202   6.002  11.060  1.0538 -0.2178 -0.3359
   34POPC  H12A 4505   2.309   6.015  11.062  1.0455 -0.2175  0.8028
   34POPC  H12B 4506   2.182   6.107  11.071  0.7519 -0.1817 -1.2370
   34POPC   C13 4507   2.219   5.798  11.211 -0.1389  0.4062 -1.0345
   34POPC  H13A 4508   2.151   5.730  11.161 -0.2449 -2.2107  2.4752
   34POPC  H13B 4509   2.318   5.783  11.171 -0.3590 -2.4986 -0.5885
   34POPC  H13C 4510   2.233   5.770  11.314  0.8637  1.3017 -0.9193
   34POPC   C14 4511   2.235   6.023  11.299 -0.3301 -1.0560  0.3428
   34POPC  H14A 4512   2.225   5.971  11.393 -1.1796  1.4514  1.6771
   34POPC  H14B 4513   2.339   6.042  11.276 -0.9650  4.1459  1.2018
   34POPC  H14C 4514   2.192   6.122  11.307 -1.1575 -1.2813 -1.1024
   34POPC   C15 4515   2.019   5.937  11.220 -0.3319 -0.1828 -0.5030
   34POPC  H15A 4516   1.974   6.034  11.202  1.0341  0.9832  2.1115
   34POPC  H15B 4517   1.995   5.903  11.320 -1.2156 -0.6847 -0.8827
   34POPC  H15C 4518   1.969   5.863  11.160  1.1801 -1.9530  0.3914
   34POPC   C11 4519   2.153   5.940  10.935 -0.6515  0.0782  0.2341
   34POPC  H11A 4520   2.204   5.994  10.852  0.0386  0.4811  0.9097
   34POPC  H11B 4521   2.046   5.961  10.917 -0.5640 -1.0302 -1.7309
   34POPC     P 4522   2.333   5.763  10.895 -0.2926  0.0431 -0.4586
   34POPC   O13 4523   2.354   5.617  10.921  0.1664 -0.2709 -0.1146
   34POPC   O14 4524   2.423   5.863  10.965  0.2809 -0.2318  0.1437
   34POPC   O12 4525   2.178   5.804  10.917  0.4200 -0.0005  0.5766
   34POPC   O11 4526   2.334   5.778  10.739 -0.2606  0.5524 -0.4762
   34POPC    C1 4527   2.238   5.696  10.664 -0.1509 -0.0340 -0.2481
   34POPC    HA 4528   2.144   5.672  10.717  0.3392 -2.3755 -0.3752
   34POPC    HB 4529   2.283   5.599  10.632 -1.4772 -0.0720 -2.0575
   34POPC    C2 4530   2.204   5.764  10.523  0.1675 -0.4118  0.2083
   34POPC    HS 4531   2.112   5.713  10.485 -0.1903  0.9350 -0.7597
   34POPC   O21 4532   2.313   5.750  10.428 -0.2903 -0.0846 -0.2323
   34POPC   C21 4533   2.299   5.632  10.359  0.2955 -0.3065 -0.1603
   34POPC   O22 4534   2.232   5.537  10.394  0.0725  0.1088 -0.6393
   34POPC   C22 4535   2.387   5.641  10.231 -0.0601 -0.5157  0.1265
   34POPC   H2R 4536   2.478   5.579  10.247 -0.0889 -0.7878 -0.7687
   34POPC   H2S 4537   2.412   5.745  10.204 -0.5272 -0.2732  0.6053
   34POPC    C3 4538   2.170   5.915  10.539 -0.3799 -0.7047 -0.0768
   34POPC    HX 4539   2.266   5.962  10.571 -0.7748  0.3436 -0.4407
   34POPC    HY 4540   2.090   5.908  10.616 -0.9430  1.0839 -0.4982
   34POPC   O31 4541   2.109   5.973  10.423  0.5976  0.1970 -0.5099
   34POPC   C31 4542   2.190   6.060  10.355  0.1809 -0.7852  1.0244
   34POPC   O32 4543   2.295   6.110  10.389 -0.3778  0.1922 -0.0775
   34POPC   C32 4544   2.116   6.078  10.222 -0.5454  1.2304  0.3240
   34POPC   H2X 4545   2.169   6.167  10.182 -1.6104  1.5704 -0.3677
   34POPC   H2Y 4546   2.010   6.104  10.242 -0.4321  0.7420  1.6577
   34POPC   C23 4547   2.316   5.589  10.104 -0.4427 -0.2421 -0.0732
   34POPC   H3R 4548   2.382   5.624  10.023  2.5600 -0.5759  2.1467
   34POPC   H3S 4549   2.221   5.645  10.092 -0.4959 -0.3578 -0.1930
   34POPC   C24 4550   2.312   5.435  10.085  0.7349 -0.2038  1.0594
   34POPC   H4R 4551   2.222   5.395  10.137  2.0282 -2.8980  1.2960
   34POPC   H4S 4552   2.402   5.392  10.133  0.1537 -3.1533 -0.3531
   34POPC   C25 4553   2.304   5.406   9.936  0.0372 -0.1269 -0.1026
   34POPC   H5R 4554   2.307   5.297   9.915  3.1965 -0.7522  3.1151
   34POPC   H5S 4555   2.391   5.440   9.877  0.5650 -0.1699  0.6372
   34POPC   C26 4556   2.177   5.461   9.869  0.3959  0.1636  0.0524
   34POPC   H6R 4557   2.161   5.571   9.868  0.0115  0.1351  1.6123
   34POPC   H6S 4558   2.087   5.417   9.918  0.4206  0.8692  0.7215
   34POPC   C27 4559   2.175   5.425   9.722  0.5916 -0.9853 -0.2861
   34POPC   H7R 4560   2.070   5.432   9.686  0.4816 -0.2570  0.1604
   34POPC   H7S 4561   2.203   5.318   9.711 -1.3843 -1.3849 -1.6055
   34POPC   C28 4562   2.261   5.512   9.633  0.1086  0.3882 -0.6140
   34POPC   H8R 4563   2.369   5.517   9.660  0.0505  1.3494 -0.5201
   34POPC   H8S 4564   2.222   5.615   9.650 -0.3232  0.3314 -1.2514
   34POPC   C29 4565   2.256   5.467   9.487  0.1892  0.1208  0.0872
   34POPC   H91 4566   2.297   5.366   9.474 -0.9796 -0.7150  2.5384
   34POPC  C210 4567   2.222   5.546   9.385  1.0077  0.2487  0.2382
   34POPC  H101 4568   2.221   5.498   9.286 -0.8241 -0.4357  0.5648
   34POPC  C211 4569   2.160   5.682   9.395  0.5126 -0.1029  0.3187
   34POPC  H11R 4570   2.229   5.748   9.452 -0.1988  1.0924 -0.2076
   34POPC  H11S 4571   2.062   5.682   9.447  0.9608 -1.4868  1.2060
   34POPC  C212 4572   2.137   5.760   9.252 -0.4698  0.2163 -0.5714
   34POPC  H12R 4573   2.234   5.752   9.199  0.5988  1.7755  1.1170
   34POPC  H12S 4574   2.123   5.869   9.265  1.7561  0.5282 -0.6899
   34POPC  C213 4575   2.008   5.714   9.175 -0.7832  0.0098 -0.0817
   34POPC  H13R 4576   2.013   5.603   9.182 -0.0783 -0.0151 -0.9692
   34POPC  H13S 4577   2.021   5.747   9.070  1.5883  0.6769  0.3949
   34POPC  C214 4578   1.881   5.782   9.236 -0.3806 -0.2393  0.1890
   34POPC  H14R 4579   1.897   5.891   9.241  2.6515 -0.6842  1.1318
   34POPC  H14S 4580   1.866   5.741   9.338 -1.9238 -1.9596 -0.6905
   34POPC  C215 4581   1.756   5.737   9.159 -0.9283 -0.3086  0.1308
   34POPC  H15R 4582   1.747   5.777   9.056 -0.2915 -2.1758 -0.6625
   34POPC  H15S 4583   1.670   5.783   9.213 -0.5515 -2.5569  2.7263
   34POPC  C216 4584   1.743   5.584   9.149  0.3070 -0.2437  0.0380
   34POPC  H16R 4585   1.750   5.534   9.248  0.0706 -1.3151 -0.4757
   34POPC  H16S 4586   1.819   5.530   9.087  0.6484  0.6008 -0.2810
   34POPC  C217 4587   1.609   5.549   9.083  0.6110  0.5391  0.0937
   34POPC  H17R 4588   1.612   5.560   8.972 -2.1413 -0.6230 -0.1549
   34POPC  H17S 4589   1.530   5.619   9.119  0.2595 -0.5434  1.4518
   34POPC  C218 4590   1.542   5.416   9.106  0.5188  0.2498 -0.4248
   34POPC  H18R 4591   1.436   5.424   9.072  1.2990 -0.6092 -3.1260
   34POPC  H18S 4592   1.552   5.390   9.214  0.7581  1.8793 -0.0416
   34POPC  H18T 4593   1.604   5.345   9.049 -1.8802 -2.0605 -0.2657
   34POPC   C33 4594   2.132   5.958  10.128  0.8320  0.7646 -0.8550
   34POPC   H3X 4595   2.097   5.867  10.180 -4.2645  2.2230 -1.4642
   34POPC   H3Y 4596   2.239   5.940  10.101  1.0802  1.6195 -0.4566
   34POPC   C34 4597   2.046   5.973  10.006  0.3393  0.1518 -0.2882
   34POPC   H4X 4598   2.094   6.046   9.938  2.4410  1.4370  2.4962
   34POPC   H4Y 4599   1.941   6.003  10.027  0.2763 -0.4426  0.2698
   34POPC   C35 4600   2.040   5.839   9.925 -0.3224  0.0643 -0.0442
   34POPC   H5X 4601   1.975   5.761   9.969 -0.4458 -0.5013 -1.2038
   34POPC   H5Y 4602   2.134   5.780   9.920 -1.3598 -1.6684  0.2415
   34POPC   C36 4603   1.983   5.858   9.784  0.5879  0.0941  0.6370
   34POPC   H6X 4604   1.970   5.761   9.731  0.5179  0.8319 -0.7132
   34POPC   H6Y 4605   2.054   5.921   9.726 -0.3263 -0.4267 -1.0800
   34POPC   C37 4606   1.844   5.915   9.787  0.2154 -0.5368  0.0766
   34POPC   H7X 4607   1.835   6.016   9.833  1.5617 -0.7900  0.9161
   34POPC   H7Y 4608   1.781   5.850   9.852  0.5386 -0.7054  0.2230
   34POPC   C38 4609   1.772   5.926   9.653 -0.2102 -0.4360 -0.0692
   34POPC   H8X 4610   1.665   5.923   9.683 -0.2842  3.2018  0.2190
   34POPC   H8Y 4611   1.795   5.837   9.591  1.8261  0.3551 -0.4963
   34POPC   C39 4612   1.821   6.051   9.580 -0.0281 -0.5181  0.7313
   34POPC   H9X 4613   1.932   6.044   9.585 -0.1245 -1.1111  2.2587
   34POPC   H9Y 4614   1.780   6.145   9.623  1.5975  0.7883 -0.5339
   34POPC  C310 4615   1.786   6.064   9.434  0.1656  0.3801 -0.1982
   34POPC  H10X 4616   1.687   6.107   9.409 -0.1861 -1.8676 -3.0031
   34POPC  H10Y 4617   1.780   5.966   9.382 -0.3052  1.3826 -2.0898
   34POPC  C311 4618   1.893   6.147   9.350 -0.6208  0.3474 -0.0199
   34POPC  H11X 4619   1.997   6.113   9.372  0.0277  0.2989 -2.9355
   34POPC  H11Y 4620   1.886   6.250   9.390  2.3042  1.2849 -1.7994
   34POPC  C312 4621   1.877   6.160   9.191 -0.4390 -0.0644 -0.3792
   34POPC  H12X 4622   1.914   6.070   9.137  0.1242 -0.2906  0.3595
   34POPC  H12Y 4623   1.941   6.246   9.163  0.1570 -1.1205 -2.3278
   34POPC  C313 4624   1.740   6.193   9.142 -0.2440 -0.2766 -0.3198
   34POPC  H13X 4625   1.691   6.275   9.198  2.6776  1.0316  0.4404
   34POPC  H13Y 4626   1.679   6.100   9.150 -1.1843  0.2777 -0.9478
   34POPC  C314 4627   1.749   6.220   8.996 -0.1150  0.0760  0.5428
   34POPC  H14X 4628   1.804   6.134   8.952 -1.1177 -0.5000  0.4128
   34POPC  H14Y 4629   1.803   6.315   8.975 -0.2941 -0.0187 -0.3844
   34POPC  C315 4630   1.615   6.230   8.922  0.5922  0.1133  0.2812
   34POPC  H15X 4631   1.561   6.321   8.955 -0.2733 -0.0870 -0.5481
   34POPC  H15Y 4632   1.547   6.146   8.945 -0.7083  1.5366  1.7398
   34POPC  C316 4633   1.640   6.236   8.774  0.8137 -0.8089 -0.0847
   34POPC  H16X 4634   1.722   6.309   8.760 -0.6670  1.2093  1.5175
   34POPC  H16Y 4635   1.557   6.280   8.713  0.2482  1.8462  2.4921
   34POPC  H16Z 4636   1.672   6.136   8.738  0.4216 -1.0148  0.1354
   35POPC     N 4637   2.407   3.515  11.044 -0.3691  0.3068 -0.6537
   35POPC   C12 4638   2.405   3.385  10.972  0.2655  0.1952  0.0622
   35POPC  H12A 4639   2.441   3.319  11.050 -0.3652 -0.3430 -0.0943
   35POPC  H12B 4640   2.473   3.377  10.887 -0.0699 -1.2871 -0.0812
   35POPC   C13 4641   2.321   3.621  10.967  0.1394 -0.2920  0.1708
   35POPC  H13A 4642   2.223   3.575  10.962  0.4199 -0.8296 -0.4181
   35POPC  H13B 4643   2.304   3.714  11.020  0.0013 -0.3464  0.2207
   35POPC  H13C 4644   2.360   3.636  10.868  2.3242 -1.0146  0.8916
   35POPC   C14 4645   2.360   3.501  11.181 -0.6484 -0.3113  0.3085
   35POPC  H14A 4646   2.266   3.450  11.195 -0.2329 -1.0551  0.4065
   35POPC  H14B 4647   2.430   3.439  11.235 -0.6825 -1.5448 -1.0594
   35POPC  H14C 4648   2.353   3.598  11.228 -1.4341  0.9160 -2.2856
   35POPC   C15 4649   2.548   3.557  11.048  0.2573 -0.1558 -0.4008
   35POPC  H15A 4650   2.572   3.589  10.947 -2.4714 -0.2332 -1.1072
   35POPC  H15B 4651   2.624   3.490  11.087  1.1690  0.0436 -1.7970
   35POPC  H15C 4652   2.571   3.652  11.095 -0.4372  0.5059 -1.3826
   35POPC   C11 4653   2.264   3.329  10.934 -0.3950 -0.0585 -0.0148
   35POPC  H11A 4654   2.280   3.238  10.873  0.6111 -0.9571  1.5423
   35POPC  H11B 4655   2.198   3.396  10.875  0.7951  1.4373  0.3287
   35POPC     P 4656   2.184   3.148  11.106  0.3333  0.1946 -0.0208
   35POPC   O13 4657   2.075   3.134  11.206 -0.2403  0.6725 -0.1608
   35POPC   O14 4658   2.322   3.106  11.154 -0.4598 -0.3572  0.3398
   35POPC   O12 4659   2.192   3.299  11.050  0.3978 -0.0415 -0.2624
   35POPC   O11 4660   2.141   3.077  10.964  0.0679  1.0044  0.2437
   35POPC    C1 4661   2.010   3.020  10.949 -0.1767  0.0623  0.0208
   35POPC    HA 4662   1.932   3.051  11.022 -0.0518  2.8339 -0.9622
   35POPC    HB 4663   2.029   2.911  10.948 -0.8985 -0.0710  0.5294
   35POPC    C2 4664   1.942   3.069  10.815  0.0385 -0.6261 -0.5817
   35POPC    HS 4665   1.841   3.023  10.817 -0.7771  1.1830  1.6458
   35POPC   O21 4666   2.032   3.043  10.707  0.2642  0.0046  0.3007
   35POPC   C21 4667   2.010   2.929  10.655 -0.0870 -0.8393  0.1296
   35POPC   O22 4668   1.938   2.846  10.701 -0.0516 -0.8567 -0.2746
   35POPC   C22 4669   2.074   2.931  10.521  0.5062  1.0124 -0.4539
   35POPC   H2R 4670   2.092   2.829  10.480 -0.7297 -0.1985  1.8942
   35POPC   H2S 4671   2.177   2.969  10.538  0.1585  2.1969 -0.8957
   35POPC    C3 4672   1.913   3.219  10.815  0.1560  0.8708  0.2333
   35POPC    HX 4673   2.012   3.267  10.829  0.7658 -0.6893  1.4581
   35POPC    HY 4674   1.844   3.244  10.899 -1.0349  4.5436 -1.7102
   35POPC   O31 4675   1.850   3.259  10.685 -0.1684 -0.1227 -0.7440
   35POPC   C31 4676   1.810   3.384  10.680 -0.0214 -0.3715 -0.3299
   35POPC   O32 4677   1.840   3.466  10.767 -0.3986  0.6333  0.4698
   35POPC   C32 4678   1.737   3.416  10.548  0.7173 -0.4256  0.0907
   35POPC   H2X 4679   1.801   3.493  10.501  1.1239 -1.0493 -0.3945
   35POPC   H2Y 4680   1.640   3.461  10.577  0.0894 -1.3933 -0.4481
   35POPC   C23 4681   2.011   3.015  10.411 -0.0778  0.1044  0.0764
   35POPC   H3R 4682   2.093   3.035  10.339 -1.1284 -0.0031 -1.1529
   35POPC   H3S 4683   1.975   3.110  10.455 -0.6039  0.3564 -0.8917
   35POPC   C24 4684   1.904   2.940  10.321 -0.3064 -0.3079  0.3066
   35POPC   H4R 4685   1.806   2.923  10.372 -0.3496  2.6142  1.3091
   35POPC   H4S 4686   1.947   2.842  10.290 -0.2425  0.0936 -0.8716
   35POPC   C25 4687   1.884   3.021  10.198 -0.1400  0.1764  0.1432
   35POPC   H5R 4688   1.890   3.125  10.235 -1.8400  1.0225 -1.8918
   35POPC   H5S 4689   1.785   3.007  10.150 -0.5404  0.5403  0.8594
   35POPC   C26 4690   1.993   2.996  10.086 -0.0261  0.3578 -0.4874
   35POPC   H6R 4691   2.046   2.901  10.111  0.3708  1.4426  3.0093
   35POPC   H6S 4692   2.064   3.081  10.092 -0.3457  0.5016  1.9919
   35POPC   C27 4693   1.919   2.987   9.953  0.1617  0.0305  0.0078
   35POPC   H7R 4694   1.856   3.078   9.961  1.4195  0.8733  0.4651
   35POPC   H7S 4695   1.859   2.893   9.954  0.2220 -0.0016  1.0799
   35POPC   C28 4696   2.016   2.990   9.832 -0.1040 -0.3640  0.0084
   35POPC   H8R 4697   2.092   3.070   9.841 -1.4451  0.8809  0.4640
   35POPC   H8S 4698   1.963   3.028   9.741 -0.7224  0.7493  0.8157
   35POPC   C29 4699   2.096   2.867   9.802  0.5322 -0.1098  0.1993
   35POPC   H91 4700   2.195   2.862   9.848 -0.0349  0.4778  1.5191
   35POPC  C210 4701   2.048   2.783   9.705  0.4036  1.1285 -0.1068
   35POPC  H101 4702   2.111   2.694   9.690  0.3548  0.4834  3.0259
   35POPC  C211 4703   1.923   2.785   9.613 -0.5297 -0.1325 -0.3047
   35POPC  H11R 4704   1.868   2.881   9.621  0.0460  0.1448  0.4080
   35POPC  H11S 4705   1.859   2.698   9.640  1.4874 -1.5776 -0.0757
   35POPC  C212 4706   1.969   2.766   9.463 -0.1672 -0.3378 -0.9830
   35POPC  H12R 4707   2.032   2.853   9.434 -1.7631  0.3453 -2.4817
   35POPC  H12S 4708   1.873   2.780   9.408  0.6566 -0.3313 -2.4100
   35POPC  C213 4709   2.029   2.630   9.425  0.0968  1.0873 -1.1100
   35POPC  H13R 4710   1.955   2.548   9.421 -0.3185  1.3853 -0.0014
   35POPC  H13S 4711   2.099   2.597   9.505  1.1432  1.5651 -1.8175
   35POPC  C214 4712   2.120   2.623   9.292 -0.1389 -0.6249 -0.0966
   35POPC  H14R 4713   2.173   2.525   9.297 -0.5590 -0.8823 -0.6053
   35POPC  H14S 4714   2.194   2.705   9.305 -1.6561  0.6492  0.6841
   35POPC  C215 4715   2.017   2.639   9.178  0.5207  0.0358 -0.1004
   35POPC  H15R 4716   1.958   2.733   9.182  2.2932  1.2786 -1.8336
   35POPC  H15S 4717   1.950   2.552   9.194 -0.2628  0.6713  0.0528
   35POPC  C216 4718   2.078   2.643   9.046  0.8083  0.0186 -0.1041
   35POPC  H16R 4719   2.137   2.550   9.031 -0.5806 -0.8933  0.0048
   35POPC  H16S 4720   2.148   2.729   9.047  0.7473  0.0764 -0.5269
   35POPC  C217 4721   1.975   2.642   8.935  0.9252  0.3013  0.5387
   35POPC  H17R 4722   1.936   2.539   8.950  2.5573 -0.1996  1.4654
   35POPC  H17S 4723   2.013   2.658   8.832 -1.0512  0.7124 -0.1538
   35POPC  C218 4724   1.870   2.750   8.937 -0.2444 -0.6402  0.2112
   35POPC  H18R 4725   1.813   2.743   9.033  1.5979  1.2071  1.4714
   35POPC  H18S 4726   1.796   2.749   8.854  1.4582  0.2541 -1.3288
   35POPC  H18T 4727   1.915   2.851   8.937 -0.5842 -0.4902 -0.8090
   35POPC   C33 4728   1.723   3.303  10.442  0.2342 -0.0772 -0.5780
   35POPC   H3X 4729   1.651   3.225  10.475 -1.5921  0.1676 -3.7879
   35POPC   H3Y 4730   1.820   3.257  10.410 -1.5883 -2.8977 -2.2774
   35POPC   C34 4731   1.673   3.353  10.313  0.0538 -1.3473  0.3149
   35POPC   H4X 4732   1.602   3.434  10.339  2.2777  0.8657 -0.3517
   35POPC   H4Y 4733   1.616   3.278  10.253 -0.3833  0.4776 -1.6443
   35POPC   C35 4734   1.785   3.417  10.230 -0.1074  0.0992 -0.1019
   35POPC   H5X 4735   1.857   3.335  10.208  0.9839  0.9935  0.0896
   35POPC   H5Y 4736   1.834   3.498  10.289  1.0080  0.1953 -1.1432
   35POPC   C36 4737   1.743   3.484  10.097 -0.0997  0.5768 -0.3387
   35POPC   H6X 4738   1.823   3.554  10.067  0.1092  0.5786  0.2210
   35POPC   H6Y 4739   1.647   3.540  10.103  0.2941  1.1787  0.3720
   35POPC   C37 4740   1.723   3.390   9.976  0.0493 -0.0755 -0.2037
   35POPC   H7X 4741   1.652   3.305   9.988  1.2102 -1.3257 -1.9112
   35POPC   H7Y 4742   1.822   3.341   9.981 -0.4071 -1.4038 -2.9757
   35POPC   C38 4743   1.723   3.460   9.845  0.6217  0.1386  0.0985
   35POPC   H8X 4744   1.796   3.543   9.853  0.4924  0.2983 -0.3658
   35POPC   H8Y 4745   1.620   3.499   9.832  1.2311  1.5064 -0.6951
   35POPC   C39 4746   1.761   3.366   9.723  0.1367  0.3520 -0.3690
   35POPC   H9X 4747   1.841   3.293   9.748 -3.2113 -3.1282  0.7783
   35POPC   H9Y 4748   1.803   3.423   9.637  1.1573  0.7274  0.3792
   35POPC  C310 4749   1.646   3.284   9.666  0.7781  0.8644 -0.1554
   35POPC  H10X 4750   1.561   3.346   9.629 -0.3268  0.4770  1.6496
   35POPC  H10Y 4751   1.604   3.221   9.747  0.4611 -2.2360 -2.6310
   35POPC  C311 4752   1.700   3.184   9.558  1.0724 -0.0485  0.0636
   35POPC  H11X 4753   1.802   3.156   9.595  1.1007 -0.1039 -0.0580
   35POPC  H11Y 4754   1.711   3.237   9.461  0.6637 -0.6198 -0.2902
   35POPC  C312 4755   1.611   3.064   9.528  0.8720  0.2045 -0.0244
   35POPC  H12X 4756   1.592   3.027   9.631 -0.4110  4.8435  1.5184
   35POPC  H12Y 4757   1.667   2.987   9.471 -3.5489 -1.8904 -1.7687
   35POPC  C313 4758   1.476   3.088   9.447 -0.1429 -0.1544  0.1574
   35POPC  H13X 4759   1.399   3.148   9.499 -1.5297 -2.1098  0.4325
   35POPC  H13Y 4760   1.426   2.988   9.446 -2.5156  0.9894  0.6546
   35POPC  C314 4761   1.498   3.118   9.298  0.6184  0.6553 -0.0770
   35POPC  H14X 4762   1.558   3.209   9.276  3.5783 -0.8246  1.5514
   35POPC  H14Y 4763   1.395   3.129   9.258  0.0377  1.4996  1.5975
   35POPC  C315 4764   1.561   3.006   9.221  0.6590  0.5394 -0.9962
   35POPC  H15X 4765   1.500   2.914   9.234  1.7349 -0.0527 -0.0617
   35POPC  H15Y 4766   1.659   2.979   9.267  0.1117  1.1157  0.5568
   35POPC  C316 4767   1.570   3.028   9.068  0.5407  0.5817 -0.4122
   35POPC  H16X 4768   1.622   3.125   9.053  0.0785  0.8089 -0.5393
   35POPC  H16Y 4769   1.470   3.046   9.024  0.4793 -1.1082 -0.9820
   35POPC  H16Z 4770   1.630   2.945   9.024  1.3641  0.4519  0.9071
   36POPC     N 4771   2.562   1.396  11.253  0.7766  0.0477  0.2955
   36POPC   C12 4772   2.607   1.494  11.149 -0.5245 -0.0304  0.1391
   36POPC  H12A 4773   2.709   1.472  11.123 -0.9462 -2.8716  0.7701
   36POPC  H12B 4774   2.592   1.595  11.186  3.4837  0.9921 -0.7714
   36POPC   C13 4775   2.558   1.254  11.209 -0.8875  0.9172 -0.8538
   36POPC  H13A 4776   2.485   1.217  11.138 -0.8611 -2.5486  0.8427
   36POPC  H13B 4777   2.654   1.238  11.161 -0.3948  2.4269 -0.4005
   36POPC  H13C 4778   2.552   1.189  11.295 -1.4076  1.8594 -0.1703
   36POPC   C14 4779   2.655   1.404  11.371 -0.0360 -0.0694  0.0898
   36POPC  H14A 4780   2.656   1.505  11.407  0.6785 -0.5681  1.5237
   36POPC  H14B 4781   2.607   1.341  11.445 -0.1698  0.0126  0.0730
   36POPC  H14C 4782   2.756   1.370  11.354 -0.0735  0.6907 -1.7310
   36POPC   C15 4783   2.424   1.434  11.304  0.1990  0.5482 -0.1328
   36POPC  H15A 4784   2.405   1.359  11.379  0.7682 -0.0823 -0.6166
   36POPC  H15B 4785   2.352   1.416  11.225  1.5021 -1.6053 -0.8586
   36POPC  H15C 4786   2.420   1.533  11.346  1.2670  0.8255 -0.6505
   36POPC   C11 4787   2.539   1.490  11.011 -0.0142 -0.9514  0.9018
   36POPC  H11A 4788   2.553   1.386  10.974  0.2664 -1.6640  2.9132
   36POPC  H11B 4789   2.598   1.557  10.946  0.7028 -2.2566  0.1825
   36POPC     P 4790   2.367   1.672  10.977 -0.3352  0.2477  0.1919
   36POPC   O13 4791   2.389   1.696  10.832 -0.4678 -0.7574  0.0178
   36POPC   O14 4792   2.429   1.772  11.066  0.1421 -0.1637  0.0126
   36POPC   O12 4793   2.403   1.529  11.024  0.2640 -0.3773 -0.0227
   36POPC   O11 4794   2.210   1.682  11.009  0.0719 -0.6495  0.4670
   36POPC    C1 4795   2.127   1.569  10.994  0.0372 -0.6999  0.6589
   36POPC    HA 4796   2.088   1.557  11.097  0.0553  1.4155  0.9294
   36POPC    HB 4797   2.173   1.471  10.969  0.6540  0.0283 -1.1647
   36POPC    C2 4798   2.003   1.601  10.904  0.4277  0.4831 -0.8006
   36POPC    HS 4799   1.920   1.532  10.932 -0.6365  1.5720 -1.2061
   36POPC   O21 4800   2.048   1.614  10.767  0.5615  0.3060 -0.5425
   36POPC   C21 4801   2.047   1.491  10.704  0.8445 -0.2107  0.5771
   36POPC   O22 4802   2.008   1.388  10.751 -0.3934 -0.1534  0.0003
   36POPC   C22 4803   2.118   1.492  10.571  0.6068 -0.8204 -0.3474
   36POPC   H2R 4804   2.172   1.395  10.561 -0.9488 -1.4681 -2.9431
   36POPC   H2S 4805   2.197   1.570  10.573 -0.3140  0.1493 -1.2170
   36POPC    C3 4806   1.944   1.737  10.945 -0.5481 -0.3911  0.1594
   36POPC    HX 4807   2.009   1.816  10.902 -0.8735 -0.5237 -0.5861
   36POPC    HY 4808   1.965   1.748  11.053 -0.5707 -0.6201  0.1869
   36POPC   O31 4809   1.802   1.752  10.912 -0.3024  0.3417 -0.2852
   36POPC   C31 4810   1.752   1.835  10.817  0.3694 -0.0019 -0.7046
   36POPC   O32 4811   1.817   1.905  10.742 -0.4513 -0.3275 -0.2635
   36POPC   C32 4812   1.602   1.830  10.820 -0.7060 -0.1348 -0.2326
   36POPC   H2X 4813   1.556   1.894  10.742 -1.2827  1.4503  1.3949
   36POPC   H2Y 4814   1.568   1.871  10.917  0.0676  0.5813 -0.2639
   36POPC   C23 4815   2.015   1.501  10.448 -0.3336 -0.3382 -0.8509
   36POPC   H3R 4816   1.973   1.603  10.461  1.8722  0.2293  2.3014
   36POPC   H3S 4817   1.935   1.426  10.465  0.1077 -0.2716  1.7817
   36POPC   C24 4818   2.072   1.493  10.311  0.5809  0.1082 -0.7708
   36POPC   H4R 4819   2.110   1.389  10.297 -1.3021 -1.0531  2.1865
   36POPC   H4S 4820   2.160   1.559  10.299  2.5298 -1.9823  1.3254
   36POPC   C25 4821   1.972   1.520  10.198  1.0208  0.6104 -0.4185
   36POPC   H5R 4822   1.928   1.618  10.228  2.4489  0.8593  0.9094
   36POPC   H5S 4823   1.883   1.455  10.212 -0.2070  1.8382 -2.3938
   36POPC   C26 4824   2.015   1.508  10.051  0.2475 -0.0216  0.2843
   36POPC   H6R 4825   2.050   1.402  10.048 -0.3511 -0.2109 -5.3719
   36POPC   H6S 4826   2.102   1.573  10.031 -0.8802  1.2146 -0.7591
   36POPC   C27 4827   1.895   1.528   9.953  0.3104 -0.5876 -1.3439
   36POPC   H7R 4828   1.861   1.634   9.952  2.2221  0.0547 -0.3998
   36POPC   H7S 4829   1.806   1.475   9.995  2.0984 -1.5421  1.3799
   36POPC   C28 4830   1.914   1.463   9.818  0.2686 -0.1258 -0.0763
   36POPC   H8R 4831   2.005   1.508   9.773  0.0085 -0.0633 -0.5388
   36POPC   H8S 4832   1.831   1.482   9.746  1.2968 -0.1791 -1.2866
   36POPC   C29 4833   1.924   1.306   9.820  0.0348 -1.2420 -0.1311
   36POPC   H91 4834   1.837   1.264   9.872  0.7687 -1.7090  0.7145
   36POPC  C210 4835   2.019   1.227   9.765  0.2063  0.4590  0.3342
   36POPC  H101 4836   2.001   1.119   9.767  2.4983  0.0361 -0.7299
   36POPC  C211 4837   2.136   1.271   9.682  0.3567  0.4333 -0.3598
   36POPC  H11R 4838   2.207   1.187   9.681  0.1920  0.2999 -1.0074
   36POPC  H11S 4839   2.186   1.358   9.730 -1.4773  0.8064  0.9497
   36POPC  C212 4840   2.106   1.311   9.543 -0.3883 -0.2857 -0.1211
   36POPC  H12R 4841   2.189   1.359   9.486 -0.5654  0.0198 -0.1193
   36POPC  H12S 4842   2.024   1.385   9.555  1.1468  1.1302  2.0108
   36POPC  C213 4843   2.059   1.189   9.456  0.2816  0.1207  0.0811
   36POPC  H13R 4844   1.968   1.136   9.492  0.3820  0.0116  0.1741
   36POPC  H13S 4845   2.134   1.108   9.461 -1.3505 -1.4060  0.1959
   36POPC  C214 4846   2.045   1.230   9.307  0.1987  0.3076 -0.0289
   36POPC  H14R 4847   2.000   1.331   9.309 -0.5426  0.0426 -2.2347
   36POPC  H14S 4848   1.979   1.165   9.247  0.7127  1.3830 -1.8115
   36POPC  C215 4849   2.179   1.234   9.230 -0.4731  0.0310  0.1553
   36POPC  H15R 4850   2.229   1.135   9.229 -1.2365 -0.3553 -1.0514
   36POPC  H15S 4851   2.252   1.299   9.282  0.1608  0.3584 -1.1239
   36POPC  C216 4852   2.153   1.284   9.090  0.4343  0.2098 -0.5654
   36POPC  H16R 4853   2.125   1.390   9.104 -2.8526 -0.6241 -0.5230
   36POPC  H16S 4854   2.067   1.224   9.053 -1.4677  2.1506  0.6095
   36POPC  C217 4855   2.275   1.274   8.992  0.1907  0.9919 -0.4262
   36POPC  H17R 4856   2.308   1.168   8.993 -0.6931  0.7183  1.2378
   36POPC  H17S 4857   2.366   1.327   9.026 -0.5477 -0.3853  4.0913
   36POPC  C218 4858   2.233   1.328   8.857 -0.0352 -0.3296  0.1608
   36POPC  H18R 4859   2.175   1.422   8.869 -1.8258 -1.4544  0.4790
   36POPC  H18S 4860   2.168   1.250   8.812 -1.2895  2.1713 -2.5307
   36POPC  H18T 4861   2.333   1.342   8.810  1.2067 -2.0066  2.1903
   36POPC   C33 4862   1.563   1.684  10.797 -0.7547 -0.5895  0.6655
   36POPC   H3X 4863   1.453   1.685  10.787 -0.5257 -2.9522 -3.2167
   36POPC   H3Y 4864   1.604   1.621  10.879  0.8265 -1.4125 -0.7086
   36POPC   C34 4865   1.623   1.624  10.666 -0.5265  0.6826 -0.0870
   36POPC   H4X 4866   1.577   1.525  10.644  1.1866 -0.3772  0.9899
   36POPC   H4Y 4867   1.732   1.602  10.663 -0.5426  0.5041  0.6109
   36POPC   C35 4868   1.591   1.703  10.536 -0.2359 -0.6186 -0.2578
   36POPC   H5X 4869   1.653   1.796  10.539 -1.4992  0.2057  3.1162
   36POPC   H5Y 4870   1.484   1.732  10.537 -0.0920  0.0978 -3.0569
   36POPC   C36 4871   1.600   1.623  10.408  0.5204  0.3566  0.1153
   36POPC   H6X 4872   1.577   1.515  10.425  0.3582 -0.1068 -2.8377
   36POPC   H6Y 4873   1.707   1.625  10.378  0.1956 -0.8478 -1.1533
   36POPC   C37 4874   1.520   1.677  10.288  0.7736 -0.8617 -0.1613
   36POPC   H7X 4875   1.536   1.787  10.293  1.4315 -1.0644  2.9514
   36POPC   H7Y 4876   1.415   1.647  10.305 -0.0224  0.9747 -1.6951
   36POPC   C38 4877   1.561   1.627  10.151 -0.3442  0.3379 -0.1356
   36POPC   H8X 4878   1.533   1.522  10.130  0.9408  0.3944 -2.3260
   36POPC   H8Y 4879   1.672   1.635  10.152 -0.1311 -2.2359 -0.6613
   36POPC   C39 4880   1.517   1.723  10.037  0.2631  0.2884 -1.1098
   36POPC   H9X 4881   1.563   1.819  10.068  0.1621 -0.9592  3.2665
   36POPC   H9Y 4882   1.407   1.714  10.040  0.1864  1.1741 -1.1163
   36POPC  C310 4883   1.567   1.681   9.895  0.4565  0.6017  0.2379
   36POPC  H10X 4884   1.528   1.579   9.871 -2.5992  2.1406 -1.6853
   36POPC  H10Y 4885   1.677   1.673   9.908  0.3511 -2.0579 -0.2394
   36POPC  C311 4886   1.551   1.777   9.781 -0.9376 -0.0404  0.0628
   36POPC  H11X 4887   1.582   1.879   9.812  0.5503 -0.4771  0.0244
   36POPC  H11Y 4888   1.444   1.773   9.752 -1.0280  0.8665  0.2540
   36POPC  C312 4889   1.636   1.749   9.655 -0.4337 -0.4190  0.0425
   36POPC  H12X 4890   1.616   1.639   9.654  0.5612 -0.6180  0.9662
   36POPC  H12Y 4891   1.738   1.792   9.657 -1.5981  2.3988  1.1870
   36POPC  C313 4892   1.565   1.800   9.527 -0.5434 -0.2704  0.6997
   36POPC  H13X 4893   1.596   1.899   9.488 -0.6264  0.5524  2.6694
   36POPC  H13Y 4894   1.457   1.805   9.553 -0.6676  0.3291  0.0882
   36POPC  C314 4895   1.585   1.693   9.423 -0.1120  0.5070 -0.1698
   36POPC  H14X 4896   1.556   1.598   9.472 -0.1210  0.5074 -0.1739
   36POPC  H14Y 4897   1.687   1.683   9.381 -0.1371  1.9480 -0.6093
   36POPC  C315 4898   1.491   1.703   9.299  0.0188  0.5605 -0.2878
   36POPC  H15X 4899   1.518   1.798   9.248  1.8228  0.7987  1.0650
   36POPC  H15Y 4900   1.387   1.718   9.334  0.9704  1.3490  2.3456
   36POPC  C316 4901   1.496   1.588   9.193  0.5013 -0.2168 -0.5305
   36POPC  H16X 4902   1.596   1.594   9.144  1.8188  2.2848  2.2863
   36POPC  H16Y 4903   1.413   1.595   9.120  1.0267  0.5119 -1.0692
   36POPC  H16Z 4904   1.494   1.487   9.239  2.4164 -0.8095 -1.6761
   37POPC     N 4905   1.139   3.096   6.504 -0.6008  0.0550 -0.1953
   37POPC   C12 4906   1.034   3.177   6.572 -0.6829 -0.4634  0.0083
   37POPC  H12A 4907   0.972   3.113   6.632  0.3283 -0.8014  0.6968
   37POPC  H12B 4908   0.974   3.221   6.493  1.0008 -2.5338 -2.5299
   37POPC   C13 4909   1.223   3.189   6.424  0.1924  0.1323  0.3771
   37POPC  H13A 4910   1.302   3.142   6.368 -1.1241 -2.2637  0.4566
   37POPC  H13B 4911   1.171   3.259   6.360  2.4487  0.9319 -0.6149
   37POPC  H13C 4912   1.267   3.261   6.492 -0.5122  0.5531  0.3911
   37POPC   C14 4913   1.221   3.022   6.607 -0.1544  0.4927  0.0734
   37POPC  H14A 4914   1.156   2.959   6.665 -2.3028  2.6592  0.0988
   37POPC  H14B 4915   1.305   2.961   6.574  0.7382  2.3116 -1.1443
   37POPC  H14C 4916   1.260   3.096   6.676  0.4985 -0.3888  0.6573
   37POPC   C15 4917   1.092   2.986   6.417  0.6815 -0.6937  0.2529
   37POPC  H15A 4918   1.177   2.930   6.382  0.5914 -0.6808  0.0176
   37POPC  H15B 4919   1.033   3.022   6.335  1.3072 -1.8818 -0.7467
   37POPC  H15C 4920   1.032   2.910   6.467 -0.8561 -0.3747 -1.0653
   37POPC   C11 4921   1.072   3.291   6.671  0.0689 -0.4460  0.9458
   37POPC  H11A 4922   1.132   3.236   6.747  0.0767 -3.2463 -0.9833
   37POPC  H11B 4923   0.984   3.340   6.716 -0.7642 -0.7939 -0.2853
   37POPC     P 4924   1.230   3.494   6.690 -0.2264  0.1204  0.0435
   37POPC   O13 4925   1.276   3.600   6.600  0.4159  0.1142  0.3841
   37POPC   O14 4926   1.332   3.418   6.774 -0.3321  0.0009 -0.1372
   37POPC   O12 4927   1.147   3.393   6.598  0.1694 -0.0783  0.0816
   37POPC   O11 4928   1.112   3.553   6.776 -0.4555 -0.0937 -0.8505
   37POPC    C1 4929   1.126   3.543   6.922 -0.2428 -0.5860 -0.5634
   37POPC    HA 4930   1.222   3.504   6.963 -0.5325 -1.0196 -0.2881
   37POPC    HB 4931   1.048   3.476   6.965  0.7662  0.6485  3.3659
   37POPC    C2 4932   1.110   3.686   6.987 -0.6797 -0.2970  0.6410
   37POPC    HS 4933   1.183   3.758   6.946 -3.6562  1.2995 -2.1605
   37POPC   O21 4934   1.136   3.674   7.132 -0.1281  0.8333  0.3101
   37POPC   C21 4935   1.265   3.661   7.162  0.0639  0.0598  0.2805
   37POPC   O22 4936   1.351   3.689   7.078  0.1012  0.3202  0.0142
   37POPC   C22 4937   1.278   3.609   7.303 -0.4207  0.2104  0.4216
   37POPC   H2R 4938   1.353   3.672   7.354 -2.4346  2.7085  0.3546
   37POPC   H2S 4939   1.333   3.512   7.303  1.4752  1.2671  2.0565
   37POPC    C3 4940   0.973   3.750   6.946  0.2014 -0.5310 -0.1334
   37POPC    HX 4941   0.890   3.675   6.953 -0.7185  0.4785 -0.1120
   37POPC    HY 4942   0.995   3.771   6.839 -0.8376 -0.5647 -0.3673
   37POPC   O31 4943   0.931   3.871   7.020  0.1440  0.5528  0.2777
   37POPC   C31 4944   1.013   3.974   7.003 -0.0860  0.7707 -1.0698
   37POPC   O32 4945   1.098   3.987   6.920 -0.1077  0.1185  0.5704
   37POPC   C32 4946   0.979   4.080   7.109 -0.4895  0.0844  0.1084
   37POPC   H2X 4947   0.911   4.027   7.179  0.1167  0.6960  1.1668
   37POPC   H2Y 4948   0.934   4.165   7.054  0.3976  0.1648 -0.5151
   37POPC   C23 4949   1.147   3.595   7.384 -0.6541 -0.2337  0.2614
   37POPC   H3R 4950   1.080   3.522   7.334  1.1595 -1.8374  0.0998
   37POPC   H3S 4951   1.098   3.694   7.383 -0.0730  0.0558  0.1536
   37POPC   C24 4952   1.178   3.554   7.524 -0.6402  0.0079  0.4684
   37POPC   H4R 4953   1.233   3.642   7.564  1.2546  0.1622 -2.3477
   37POPC   H4S 4954   1.236   3.459   7.534 -1.7520 -0.8423 -0.8938
   37POPC   C25 4955   1.047   3.538   7.612 -0.1850  0.1544 -0.3967
   37POPC   H5R 4956   0.971   3.482   7.553 -0.9516  0.6802  0.0973
   37POPC   H5S 4957   1.006   3.632   7.654 -0.9399 -1.3586  2.3642
   37POPC   C26 4958   1.070   3.448   7.740  0.0459 -0.0671 -0.2745
   37POPC   H6R 4959   1.108   3.345   7.727  0.9896  0.4160 -1.3513
   37POPC   H6S 4960   0.968   3.454   7.785 -0.4476  1.7491 -1.6039
   37POPC   C27 4961   1.175   3.512   7.833  0.4279 -0.0049  0.5549
   37POPC   H7R 4962   1.148   3.618   7.851  0.1157 -0.0963  0.6242
   37POPC   H7S 4963   1.275   3.506   7.785 -0.6048  0.7111 -1.7447
   37POPC   C28 4964   1.200   3.447   7.980 -0.0783 -0.4271  0.0712
   37POPC   H8R 4965   1.269   3.520   8.027 -0.3932 -1.4693  2.2274
   37POPC   H8S 4966   1.257   3.356   7.953  0.9193  0.3629 -0.5112
   37POPC   C29 4967   1.077   3.426   8.065  0.2549 -0.0403 -0.7247
   37POPC   H91 4968   0.977   3.449   8.027 -1.0201  0.6957  2.8683
   37POPC  C210 4969   1.079   3.389   8.192 -0.0128 -0.4988 -0.2868
   37POPC  H101 4970   0.982   3.386   8.245  0.3917 -0.7750  0.4391
   37POPC  C211 4971   1.201   3.362   8.278  0.1848  0.4707  0.4429
   37POPC  H11R 4972   1.294   3.358   8.219  1.4432  1.4865  2.3096
   37POPC  H11S 4973   1.189   3.263   8.329 -0.2961 -0.0924 -0.7379
   37POPC  C212 4974   1.212   3.470   8.396  1.1021  0.1639  0.6340
   37POPC  H12R 4975   1.118   3.495   8.450  1.5917  1.3163  0.9739
   37POPC  H12S 4976   1.247   3.563   8.347 -0.0778  0.8987  1.1453
   37POPC  C213 4977   1.305   3.423   8.500  0.0209 -0.0292 -0.3758
   37POPC  H13R 4978   1.389   3.365   8.456 -0.7823  0.1797 -2.2425
   37POPC  H13S 4979   1.255   3.349   8.566 -0.0006 -0.8631 -1.3095
   37POPC  C214 4980   1.343   3.537   8.601 -0.1053 -1.2298  0.7131
   37POPC  H14R 4981   1.250   3.586   8.635  0.7553  1.4415 -0.7109
   37POPC  H14S 4982   1.391   3.603   8.526 -0.1500 -0.9619  0.9205
   37POPC  C215 4983   1.428   3.495   8.716  0.5456 -0.2419 -0.3189
   37POPC  H15R 4984   1.359   3.432   8.776 -0.2324 -1.3298 -2.2840
   37POPC  H15S 4985   1.449   3.589   8.770 -0.1317 -0.2509 -0.0295
   37POPC  C216 4986   1.551   3.421   8.681 -0.2313  0.1733 -0.8370
   37POPC  H16R 4987   1.622   3.490   8.631  0.3686 -0.4763 -0.8912
   37POPC  H16S 4988   1.517   3.339   8.615 -1.0317 -0.8553  0.8199
   37POPC  C217 4989   1.624   3.370   8.814  0.3816  0.2659 -0.3722
   37POPC  H17R 4990   1.698   3.294   8.782 -1.2205 -2.1127  1.4053
   37POPC  H17S 4991   1.544   3.320   8.872 -0.4825  1.0558 -0.8735
   37POPC  C218 4992   1.693   3.474   8.900  0.6527  0.1022  0.1162
   37POPC  H18R 4993   1.735   3.419   8.988 -0.3443 -1.6652 -0.4890
   37POPC  H18S 4994   1.621   3.546   8.944 -0.7032 -0.7951 -0.6027
   37POPC  H18T 4995   1.773   3.533   8.850  0.6215 -0.8126 -1.0271
   37POPC   C33 4996   1.103   4.129   7.186  0.7403  0.8984  0.2375
   37POPC   H3X 4997   1.095   4.228   7.236 -0.7457 -0.2439  2.3150
   37POPC   H3Y 4998   1.180   4.161   7.112  1.2125 -1.0967 -0.1650
   37POPC   C34 4999   1.168   4.029   7.276 -0.6404  0.0652 -0.3966
   37POPC   H4X 5000   1.277   4.048   7.269 -0.5421 -0.2894  0.0965
   37POPC   H4Y 5001   1.157   3.922   7.246  1.6144  0.0118 -1.1020
   37POPC   C35 5002   1.119   4.037   7.417 -0.6423  0.1702  0.6000
   37POPC   H5X 5003   1.024   3.980   7.429 -0.5694  0.1442  1.0670
   37POPC   H5Y 5004   1.101   4.144   7.438  0.5659  0.0232  2.5082
   37POPC   C36 5005   1.219   3.973   7.515  0.3132 -0.5304  0.9706
   37POPC   H6X 5006   1.308   4.038   7.522 -1.4745  2.2888 -1.2555
   37POPC   H6Y 5007   1.264   3.884   7.466 -1.7408 -0.2058 -1.6609
   37POPC   C37 5008   1.152   3.928   7.651 -0.4630  0.5210 -0.1759
   37POPC   H7X 5009   1.228   3.877   7.715 -1.3505  0.3301  0.7347
   37POPC   H7Y 5010   1.070   3.854   7.636 -1.2223  1.3248 -0.0086
   37POPC   C38 5011   1.107   4.043   7.736  0.3522 -0.0959  0.0465
   37POPC   H8X 5012   1.020   4.090   7.686 -0.1834  0.2644  1.2851
   37POPC   H8Y 5013   1.187   4.119   7.740 -1.1640  1.4500  2.1828
   37POPC   C39 5014   1.062   4.003   7.873  0.0881  0.3639  0.8597
   37POPC   H9X 5015   0.998   3.912   7.873  0.1661  0.2560  3.4518
   37POPC   H9Y 5016   0.987   4.078   7.909  0.7468  1.3429  0.2206
   37POPC  C310 5017   1.171   3.985   7.979  0.5905 -0.3444 -0.0692
   37POPC  H10X 5018   1.232   4.078   7.982  2.0425 -1.2604  5.3558
   37POPC  H10Y 5019   1.246   3.906   7.956  2.5478  0.9576  1.6205
   37POPC  C311 5020   1.099   3.965   8.117 -0.0105  0.5575  0.3349
   37POPC  H11X 5021   1.002   4.019   8.115  0.4379  1.5640  2.9680
   37POPC  H11Y 5022   1.156   4.017   8.197 -0.1466  1.7832 -0.3553
   37POPC  C312 5023   1.070   3.823   8.140 -0.4094  0.1006  0.1223
   37POPC  H12X 5024   1.160   3.762   8.165 -1.1239 -1.5097 -1.1631
   37POPC  H12Y 5025   1.018   3.784   8.050  1.7881 -1.0581 -0.6908
   37POPC  C313 5026   0.968   3.807   8.253 -0.1852 -0.2610  0.3866
   37POPC  H13X 5027   0.951   3.697   8.255 -2.6451  0.0790  0.5916
   37POPC  H13Y 5028   0.871   3.861   8.250 -0.8139 -1.2635  1.7635
   37POPC  C314 5029   1.030   3.843   8.392  0.0718 -0.0624  0.4096
   37POPC  H14X 5030   1.073   3.945   8.376  0.7417 -0.1919  1.3809
   37POPC  H14Y 5031   1.106   3.771   8.428  1.7942  1.7696  0.5871
   37POPC  C315 5032   0.949   3.856   8.513  0.7281  0.2325 -0.3824
   37POPC  H15X 5033   0.894   3.764   8.546  0.1045  1.0541  0.9344
   37POPC  H15Y 5034   0.871   3.927   8.478 -2.4636 -2.3171  1.1681
   37POPC  C316 5035   1.032   3.918   8.630  0.2678  0.6353 -0.4909
   37POPC  H16X 5036   0.970   3.906   8.721  0.4632 -2.9988 -0.7357
   37POPC  H16Y 5037   1.051   4.026   8.616 -1.7086  0.8880 -1.2808
   37POPC  H16Z 5038   1.131   3.869   8.644 -1.6423 -3.9578 -2.1169
   38POPC     N 5039   2.522   0.276   6.037 -0.4251 -0.3609  0.1179
   38POPC   C12 5040   2.377   0.325   6.053 -0.3632 -0.6415  0.4653
   38POPC  H12A 5041   2.325   0.243   6.100 -1.5465 -0.9302 -1.3216
   38POPC  H12B 5042   2.340   0.330   5.952  0.3813 -2.3308  0.1001
   38POPC   C13 5043   2.595   0.264   6.166  0.0264  0.3087 -0.4427
   38POPC  H13A 5044   2.546   0.199   6.236  0.7164 -0.7287 -0.9111
   38POPC  H13B 5045   2.690   0.215   6.148 -0.7904 -2.5824  2.7804
   38POPC  H13C 5046   2.605   0.357   6.219 -0.6943  1.3934 -2.1676
   38POPC   C14 5047   2.526   0.153   5.953 -0.0144 -0.1080  0.4839
   38POPC  H14A 5048   2.459   0.072   5.979  1.7025 -1.6104  0.3254
   38POPC  H14B 5049   2.504   0.180   5.850  1.4493  0.9180  0.4196
   38POPC  H14C 5050   2.626   0.112   5.954 -0.3626 -1.0100 -0.2360
   38POPC   C15 5051   2.592   0.391   5.971 -0.0880 -0.2475 -0.2181
   38POPC  H15A 5052   2.590   0.471   6.044  1.1456  0.2121 -0.6650
   38POPC  H15B 5053   2.542   0.412   5.877  0.0318 -0.2246 -0.2776
   38POPC  H15C 5054   2.697   0.366   5.970  0.7456  3.0434 -1.5656
   38POPC   C11 5055   2.350   0.463   6.126  0.4030  0.6650 -0.2866
   38POPC  H11A 5056   2.247   0.502   6.112  0.7461  1.6662 -0.0230
   38POPC  H11B 5057   2.415   0.544   6.087  1.7558 -0.5710 -0.6336
   38POPC     P 5058   2.269   0.367   6.355 -0.4045  0.5844 -0.4367
   38POPC   O13 5059   2.196   0.275   6.270  0.2329  0.4726 -0.5244
   38POPC   O14 5060   2.189   0.466   6.426  0.2554  0.2964 -0.3442
   38POPC   O12 5061   2.377   0.442   6.264 -0.0060 -0.0211  0.1352
   38POPC   O11 5062   2.362   0.288   6.457 -0.0365 -0.2053 -0.2218
   38POPC    C1 5063   2.483   0.347   6.514  0.4288 -0.0072  0.6851
   38POPC    HA 5064   2.469   0.456   6.524  0.0007  0.1071 -0.8928
   38POPC    HB 5065   2.561   0.326   6.438 -1.1003  1.5684 -1.3930
   38POPC    C2 5066   2.522   0.298   6.647  0.7092 -0.9583 -0.6997
   38POPC    HS 5067   2.504   0.189   6.655  1.7105 -1.3429 -3.0516
   38POPC   O21 5068   2.447   0.373   6.743  0.0951 -0.0589 -0.0406
   38POPC   C21 5069   2.331   0.323   6.780 -0.1930 -0.2511 -0.0678
   38POPC   O22 5070   2.286   0.218   6.742  0.3695 -0.4646  0.6748
   38POPC   C22 5071   2.257   0.412   6.877 -0.0124  0.2014 -0.7790
   38POPC   H2R 5072   2.148   0.402   6.856 -0.3842  1.9996  0.1885
   38POPC   H2S 5073   2.281   0.517   6.851 -4.1171  1.3465 -0.3023
   38POPC    C3 5074   2.678   0.329   6.671  0.3388  0.1954 -0.4364
   38POPC    HX 5075   2.697   0.436   6.650  0.0459  0.6513  1.5351
   38POPC    HY 5076   2.745   0.274   6.601  2.1086  0.2590  1.1574
   38POPC   O31 5077   2.731   0.307   6.806 -0.2760  0.2848 -0.3366
   38POPC   C31 5078   2.771   0.186   6.845 -0.1079 -0.4697 -0.3673
   38POPC   O32 5079   2.761   0.085   6.780  0.3518  0.3703  0.2050
   38POPC   C32 5080   2.855   0.208   6.977 -0.3433 -0.3854  0.5441
   38POPC   H2X 5081   2.781   0.264   7.037 -0.1330 -0.1523  0.5872
   38POPC   H2Y 5082   2.944   0.269   6.950 -0.4109 -0.5013  0.0570
   38POPC   C23 5083   2.272   0.372   7.030 -0.3777 -0.0913 -0.4266
   38POPC   H3R 5084   2.282   0.261   7.032 -0.1588 -0.0457  1.2947
   38POPC   H3S 5085   2.181   0.414   7.077 -1.1401 -0.2875 -1.6907
   38POPC   C24 5086   2.398   0.429   7.092  0.4096 -0.2828  0.6537
   38POPC   H4R 5087   2.384   0.539   7.103 -2.3271 -0.6372  1.2911
   38POPC   H4S 5088   2.495   0.407   7.042  0.3494 -1.0783  0.8756
   38POPC   C25 5089   2.400   0.371   7.238  0.0472  0.0866 -0.3560
   38POPC   H5R 5090   2.391   0.260   7.236  1.7981 -0.1226  1.6786
   38POPC   H5S 5091   2.313   0.425   7.281 -1.2249 -1.5167 -0.8314
   38POPC   C26 5092   2.531   0.403   7.320 -0.3495  0.7815  0.3435
   38POPC   H6R 5093   2.612   0.345   7.272 -1.5659 -1.4445  0.9032
   38POPC   H6S 5094   2.513   0.345   7.413 -2.0195 -0.0100 -0.4545
   38POPC   C27 5095   2.584   0.545   7.339 -0.3476  0.3422  0.2426
   38POPC   H7R 5096   2.656   0.535   7.423  2.1317  1.8662 -1.6291
   38POPC   H7S 5097   2.511   0.616   7.385 -0.0849 -0.6306  2.2311
   38POPC   C28 5098   2.661   0.613   7.220 -0.2614 -0.1038  0.7637
   38POPC   H8R 5099   2.709   0.709   7.247 -1.3863  0.0784  2.1560
   38POPC   H8S 5100   2.583   0.642   7.146  0.2194 -0.8413 -0.0590
   38POPC   C29 5101   2.758   0.522   7.149 -0.3895 -0.4331 -0.2149
   38POPC   H91 5102   2.716   0.462   7.067  1.2850  0.6121 -1.9005
   38POPC  C210 5103   2.893   0.520   7.178 -0.5304  0.8974  0.1534
   38POPC  H101 5104   2.951   0.443   7.126 -0.0554  1.5366 -0.2669
   38POPC  C211 5105   2.963   0.604   7.278 -0.3433 -0.3257 -0.2990
   38POPC  H11R 5106   2.905   0.688   7.323  1.3005  1.3230 -1.2006
   38POPC  H11S 5107   3.060   0.644   7.242 -0.1119  2.0583  2.7357
   38POPC  C212 5108   2.996   0.514   7.409  0.2464  0.9537  0.6841
   38POPC  H12R 5109   3.060   0.431   7.371 -0.9491 -0.5076  1.7907
   38POPC  H12S 5110   2.901   0.464   7.438  1.3303 -0.5989  1.5893
   38POPC  C213 5111   3.073   0.589   7.519 -0.1288 -0.5162 -0.4823
   38POPC  H13R 5112   3.177   0.625   7.502 -0.9958  2.5382  0.4510
   38POPC  H13S 5113   3.080   0.534   7.615  1.2959 -0.6622 -0.6551
   38POPC  C214 5114   3.015   0.726   7.567 -0.8923 -0.3313 -0.0383
   38POPC  H14R 5115   2.921   0.699   7.620 -1.9807 -0.5007 -2.0053
   38POPC  H14S 5116   2.978   0.795   7.488 -1.3177  1.3909  1.6191
   38POPC  C215 5117   3.093   0.788   7.686 -0.5247 -0.4143 -0.3309
   38POPC  H15R 5118   3.186   0.831   7.643  0.4328 -0.7310  1.4112
   38POPC  H15S 5119   3.109   0.702   7.754  0.3102  0.1635  0.2066
   38POPC  C216 5120   3.012   0.894   7.766 -0.3260  0.3056 -0.4627
   38POPC  H16R 5121   2.927   0.846   7.819 -1.9747  3.3997 -0.1387
   38POPC  H16S 5122   2.984   0.981   7.702  2.2207 -0.7890 -3.1062
   38POPC  C217 5123   3.091   0.955   7.891  0.3465  0.2041 -0.0934
   38POPC  H17R 5124   3.184   0.993   7.844 -0.0231 -0.4600 -1.3805
   38POPC  H17S 5125   3.120   0.891   7.977  1.1599  0.2617 -0.3250
   38POPC  C218 5126   3.001   1.066   7.941  0.3983 -0.3671  0.1523
   38POPC  H18R 5127   2.897   1.030   7.956 -0.6897  2.6884  0.2499
   38POPC  H18S 5128   2.994   1.165   7.892  1.6489 -0.4052 -0.1296
   38POPC  H18T 5129   3.041   1.090   8.041 -1.3973  0.0451  0.7746
   38POPC   C33 5130   2.887   0.077   7.030  0.5356  0.3725 -0.5201
   38POPC   H3X 5131   2.954   0.025   6.958  2.5031 -1.8737  2.7964
   38POPC   H3Y 5132   2.796   0.014   7.046  0.2221  1.0584  0.4240
   38POPC   C34 5133   2.963   0.066   7.167 -0.2561 -0.0212  0.1761
   38POPC   H4X 5134   2.906   0.131   7.237 -1.5236 -1.0105  0.0775
   38POPC   H4Y 5135   3.062   0.109   7.140  0.8984 -1.7591  1.5508
   38POPC   C35 5136   2.966  -0.071   7.225  0.0027 -0.2494 -0.1944
   38POPC   H5X 5137   3.015  -0.143   7.155 -1.1606 -0.3221 -0.9450
   38POPC   H5Y 5138   2.868  -0.120   7.239  0.1468  0.1333  2.2391
   38POPC   C36 5139   3.043  -0.089   7.357 -0.0627  0.0884 -0.2159
   38POPC   H6X 5140   2.988  -0.025   7.429 -0.2286 -0.7663  0.4222
   38POPC   H6Y 5141   3.149  -0.060   7.343  0.0427  0.8465  2.0230
   38POPC   C37 5142   3.044  -0.225   7.426  0.3202  0.2493 -0.5801
   38POPC   H7X 5143   3.124  -0.286   7.380 -0.8879 -0.6827 -1.4811
   38POPC   H7Y 5144   2.948  -0.277   7.404  1.3259 -1.1834 -1.6494
   38POPC   C38 5145   3.070  -0.226   7.578  0.4319 -0.2922  0.4074
   38POPC   H8X 5146   3.067  -0.333   7.605 -1.9621  0.1725  2.1146
   38POPC   H8Y 5147   2.985  -0.181   7.633  0.3576 -0.6269  0.5644
   38POPC   C39 5148   3.208  -0.157   7.618 -0.1875 -0.3536 -0.1997
   38POPC   H9X 5149   3.204  -0.048   7.596 -0.3855  0.1081  2.0819
   38POPC   H9Y 5150   3.288  -0.196   7.551  1.1395  1.3907  0.3460
   38POPC  C310 5151   3.240  -0.190   7.756  0.8115 -0.1602  0.6602
   38POPC  H10X 5152   3.140  -0.182   7.805  0.2181 -1.7712 -0.2497
   38POPC  H10Y 5153   3.296  -0.104   7.797  1.3206  0.5003 -1.4146
   38POPC  C311 5154   3.320  -0.320   7.793  0.4841 -0.3446 -0.8647
   38POPC  H11X 5155   3.421  -0.304   7.749  1.7149 -0.7463  1.7521
   38POPC  H11Y 5156   3.275  -0.405   7.737 -0.7769 -1.7982  2.2534
   38POPC  C312 5157   3.300  -0.361   7.934  0.5938 -0.7064  0.2405
   38POPC  H12X 5158   3.321  -0.271   7.997  0.1605 -2.1236  2.4394
   38POPC  H12Y 5159   3.377  -0.433   7.965 -0.4921 -1.8033  0.4216
   38POPC  C313 5160   3.154  -0.402   7.972 -0.5508  0.1243 -0.1843
   38POPC  H13X 5161   3.084  -0.316   7.972 -0.1657  0.4383 -1.1258
   38POPC  H13Y 5162   3.165  -0.437   8.077 -0.3252 -0.9190 -0.5503
   38POPC  C314 5163   3.108  -0.518   7.885 -0.8336 -0.5067 -0.1639
   38POPC  H14X 5164   3.177  -0.605   7.884 -0.1334  0.0561 -1.7483
   38POPC  H14Y 5165   3.078  -0.473   7.788 -1.4948  1.6505  1.0067
   38POPC  C315 5166   2.975  -0.566   7.951  0.0661  0.1544  0.0529
   38POPC  H15X 5167   2.908  -0.477   7.955  0.6647  0.6421 -0.7160
   38POPC  H15Y 5168   2.999  -0.589   8.057  0.8867  2.1174  0.3196
   38POPC  C316 5169   2.912  -0.693   7.890  0.1757  0.1045  0.5867
   38POPC  H16X 5170   2.900  -0.683   7.780  0.6526  0.5572  0.5751
   38POPC  H16Y 5171   2.816  -0.727   7.935 -0.2013 -2.0307 -1.7246
   38POPC  H16Z 5172   2.980  -0.779   7.904  0.1671 -0.1650 -0.9721
   39POPC     N 5173   5.807   5.600   6.028  0.1274  0.4715  0.1133
   39POPC   C12 5174   5.768   5.587   6.169 -0.1928  0.2327 -0.8249
   39POPC  H12A 5175   5.791   5.675   6.228 -0.6121 -0.7316  0.7987
   39POPC  H12B 5176   5.842   5.520   6.211 -0.8598 -1.6014 -2.5031
   39POPC   C13 5177   5.935   5.670   6.019 -0.0876  0.6211 -0.0716
   39POPC  H13A 5178   6.010   5.619   6.079 -0.0683 -2.2756 -2.4185
   39POPC  H13B 5179   5.975   5.675   5.918  1.1091 -2.3769  0.1953
   39POPC  H13C 5180   5.933   5.771   6.057 -0.8701  0.9825 -1.0647
   39POPC   C14 5181   5.804   5.474   5.951  0.1960 -0.3222  0.5306
   39POPC  H14A 5182   5.856   5.478   5.856 -1.6069 -0.5321 -0.4822
   39POPC  H14B 5183   5.866   5.406   6.008 -0.2423  1.4337  3.2006
   39POPC  H14C 5184   5.709   5.427   5.932 -0.0965 -0.8696  3.1879
   39POPC   C15 5185   5.698   5.687   5.959 -0.4682  0.9097  0.6858
   39POPC  H15A 5186   5.708   5.671   5.853 -1.4414  2.9110  0.2878
   39POPC  H15B 5187   5.708   5.789   5.992  1.9982  1.2364 -0.8854
   39POPC  H15C 5188   5.596   5.655   5.974  0.0684 -2.0969 -1.4797
   39POPC   C11 5189   5.626   5.533   6.209 -0.2193  0.0512  0.3056
   39POPC  H11A 5190   5.555   5.606   6.165  0.6936  1.2967  0.8336
   39POPC  H11B 5191   5.607   5.538   6.319 -0.3188  2.5910  0.2070
   39POPC     P 5192   5.674   5.268   6.220 -0.3394 -0.4235 -0.0401
   39POPC   O13 5193   5.760   5.214   6.110 -0.4823 -0.2973 -0.1949
   39POPC   O14 5194   5.575   5.176   6.268 -0.1281 -0.5001  0.4770
   39POPC   O12 5195   5.604   5.398   6.168 -0.2765  0.0871 -0.4586
   39POPC   O11 5196   5.770   5.324   6.339  0.0484  0.0896  0.0386
   39POPC    C1 5197   5.875   5.239   6.396 -0.9696  1.1176  0.3289
   39POPC    HA 5198   5.961   5.306   6.414  0.0306  0.5643 -2.1727
   39POPC    HB 5199   5.918   5.168   6.322  2.4748  0.2610  3.0233
   39POPC    C2 5200   5.828   5.164   6.519 -0.0608  0.5344 -0.6283
   39POPC    HS 5201   5.752   5.087   6.496  1.1633 -0.9070  0.0787
   39POPC   O21 5202   5.791   5.264   6.616 -0.8468  0.6451 -0.3548
   39POPC   C21 5203   5.698   5.222   6.705  0.1095  0.4835  0.0707
   39POPC   O22 5204   5.644   5.112   6.701  0.0001 -0.1724  0.2479
   39POPC   C22 5205   5.672   5.327   6.809 -0.0165  0.1591 -0.0254
   39POPC   H2R 5206   5.666   5.425   6.756  0.3450 -0.4875 -1.2553
   39POPC   H2S 5207   5.759   5.335   6.877 -0.2319 -0.2933  0.3039
   39POPC    C3 5208   5.944   5.067   6.575 -0.6194  0.1165 -0.5974
   39POPC    HX 5209   6.046   5.110   6.565 -0.0024 -1.3988 -0.8959
   39POPC    HY 5210   5.940   4.971   6.520 -2.4575  0.1397 -0.5384
   39POPC   O31 5211   5.920   5.048   6.710  0.5968 -0.1069  0.2395
   39POPC   C31 5212   5.995   4.957   6.764  0.3113  0.2932  0.2151
   39POPC   O32 5213   6.062   4.880   6.704  0.3445  0.5071  0.2927
   39POPC   C32 5214   5.977   4.960   6.913 -0.3461 -0.0071 -0.2559
   39POPC   H2X 5215   6.044   5.043   6.945  1.3027 -0.9991 -1.1034
   39POPC   H2Y 5216   5.868   4.980   6.925 -0.0082  1.0689  1.1726
   39POPC   C23 5217   5.540   5.307   6.891 -0.1229 -0.6722  0.4291
   39POPC   H3R 5218   5.457   5.291   6.819 -0.5183  1.9545  0.2614
   39POPC   H3S 5219   5.519   5.405   6.939  1.3770 -0.2288  0.2220
   39POPC   C24 5220   5.541   5.190   6.984  0.5933  0.2152 -0.4050
   39POPC   H4R 5221   5.575   5.098   6.931 -1.3092  0.2357 -1.6971
   39POPC   H4S 5222   5.437   5.171   7.018  1.6913 -2.4868  1.5503
   39POPC   C25 5223   5.644   5.200   7.094  0.8749 -0.6231 -0.0511
   39POPC   H5R 5224   5.646   5.300   7.142  0.1706 -1.1784  1.1383
   39POPC   H5S 5225   5.743   5.185   7.046  0.9186 -2.0081  0.4704
   39POPC   C26 5226   5.638   5.085   7.195 -0.0678  0.0232  0.5472
   39POPC   H6R 5227   5.613   4.992   7.141  1.7190  0.3370 -0.8564
   39POPC   H6S 5228   5.549   5.105   7.259 -0.3770 -0.4035  0.2528
   39POPC   C27 5229   5.761   5.059   7.272 -0.0223  0.3893  1.0677
   39POPC   H7R 5230   5.776   5.152   7.331  0.5477  0.8641  0.1812
   39POPC   H7S 5231   5.848   5.047   7.204 -1.5421 -2.4023 -0.4815
   39POPC   C28 5232   5.747   4.948   7.373  0.2441  0.7649  0.2066
   39POPC   H8R 5233   5.843   4.926   7.424 -0.4526 -0.2757  1.1168
   39POPC   H8S 5234   5.727   4.855   7.315  0.1489  1.1155 -0.3254
   39POPC   C29 5235   5.647   4.972   7.484 -1.0868  0.7435  0.4288
   39POPC   H91 5236   5.544   4.950   7.452 -0.3352 -0.4174 -1.3094
   39POPC  C210 5237   5.673   5.005   7.608  0.1651 -0.0406  0.3859
   39POPC  H101 5238   5.589   5.020   7.677  1.1882 -0.1937  1.6755
   39POPC  C211 5239   5.805   5.016   7.679  0.7717 -0.3926 -0.0420
   39POPC  H11R 5240   5.839   5.121   7.679 -1.0325  0.2147 -1.6650
   39POPC  H11S 5241   5.883   4.955   7.629  1.6656 -0.0609  0.9234
   39POPC  C212 5242   5.780   4.951   7.815 -0.2880 -0.4278  0.2247
   39POPC  H12R 5243   5.744   4.847   7.797 -1.3856  0.2776 -1.7698
   39POPC  H12S 5244   5.697   5.006   7.865 -0.2275 -0.8000  0.7485
   39POPC  C213 5245   5.909   4.951   7.894 -0.1949 -0.3483 -0.1766
   39POPC  H13R 5246   5.955   5.052   7.892 -3.2888  1.1222 -0.0762
   39POPC  H13S 5247   5.980   4.886   7.839  1.3628  0.9160  0.3171
   39POPC  C214 5248   5.889   4.889   8.028  0.0939 -0.7173  0.7138
   39POPC  H14R 5249   5.878   4.781   8.007 -1.0878 -0.8277  1.8215
   39POPC  H14S 5250   5.801   4.934   8.080 -1.5346 -1.7412 -1.1053
   39POPC  C215 5251   6.022   4.901   8.109 -0.4313  0.0048  0.0193
   39POPC  H15R 5252   6.050   5.008   8.118 -1.8710  0.3835  0.1541
   39POPC  H15S 5253   6.112   4.848   8.069  0.1178  0.9647 -0.0397
   39POPC  C216 5254   5.984   4.827   8.234  0.0507 -0.4788  0.4355
   39POPC  H16R 5255   5.971   4.720   8.207  0.1466 -0.0131 -1.5010
   39POPC  H16S 5256   5.880   4.854   8.265  0.0754 -0.6381  0.6564
   39POPC  C217 5257   6.067   4.830   8.366 -0.2174 -0.1769  0.6578
   39POPC  H17R 5258   6.019   4.754   8.432  2.5831 -1.0417  1.7497
   39POPC  H17S 5259   6.044   4.931   8.404 -0.3026 -0.2567  0.8196
   39POPC  C218 5260   6.210   4.791   8.354  0.9946  0.2020 -0.4450
   39POPC  H18R 5261   6.261   4.828   8.445  0.1969 -2.8324  1.3145
   39POPC  H18S 5262   6.271   4.828   8.269 -1.8009  1.5979 -1.9328
   39POPC  H18T 5263   6.220   4.680   8.347  3.6711  0.1515  2.9495
   39POPC   C33 5264   6.014   4.821   6.972 -0.4025  0.7701  1.1751
   39POPC   H3X 5265   6.118   4.791   6.948  0.5834  2.3645  3.3097
   39POPC   H3Y 5266   5.946   4.747   6.924 -0.7368  0.0972  2.6521
   39POPC   C34 5267   5.992   4.811   7.128  0.0121 -0.5239 -0.4834
   39POPC   H4X 5268   5.886   4.840   7.144  0.3389  0.3690  0.0735
   39POPC   H4Y 5269   6.043   4.890   7.187  0.6962 -2.4640  1.5953
   39POPC   C35 5270   6.006   4.662   7.174  0.1067  0.3901  0.0198
   39POPC   H5X 5271   6.030   4.660   7.282  0.0685  0.9870  0.0386
   39POPC   H5Y 5272   6.094   4.612   7.128 -1.0166 -0.3317 -1.4248
   39POPC   C36 5273   5.880   4.577   7.152  0.5242  0.0710 -0.2992
   39POPC   H6X 5274   5.852   4.601   7.047  2.2709 -1.7565 -1.2161
   39POPC   H6Y 5275   5.797   4.604   7.221  0.7254  0.6497 -0.2790
   39POPC   C37 5276   5.901   4.427   7.152  0.7548 -1.1457  0.5120
   39POPC   H7X 5277   5.981   4.412   7.077  0.0296 -1.5681 -0.1798
   39POPC   H7Y 5278   5.808   4.379   7.116  1.8394 -0.7344 -2.9663
   39POPC   C38 5279   5.943   4.372   7.285 -0.1147 -0.1073  0.2982
   39POPC   H8X 5280   6.047   4.403   7.308 -0.1643  1.5636 -1.5799
   39POPC   H8Y 5281   5.953   4.261   7.280 -0.1659 -0.1424  0.9658
   39POPC   C39 5282   5.860   4.403   7.410 -0.3877 -0.2108  0.2574
   39POPC   H9X 5283   5.760   4.362   7.385 -0.6364  0.4043  0.2397
   39POPC   H9Y 5284   5.860   4.513   7.429 -0.2611  0.0085 -0.9735
   39POPC  C310 5285   5.914   4.343   7.540  1.0911  0.3506 -0.5512
   39POPC  H10X 5286   5.992   4.416   7.574  0.3748  1.1163 -0.5465
   39POPC  H10Y 5287   5.961   4.244   7.520 -0.8134 -0.6289 -0.2318
   39POPC  C311 5288   5.804   4.322   7.644 -0.3337 -0.3781  0.2109
   39POPC  H11X 5289   5.710   4.284   7.598  0.0690 -1.2167  0.0774
   39POPC  H11Y 5290   5.778   4.421   7.687  1.0393 -0.4633  1.2915
   39POPC  C312 5291   5.840   4.245   7.772 -0.2590 -0.4401  0.1746
   39POPC  H12X 5292   5.917   4.298   7.832  0.5262 -1.9260  0.4994
   39POPC  H12Y 5293   5.869   4.140   7.747 -2.7771 -0.4449 -3.1266
   39POPC  C313 5294   5.731   4.220   7.881  0.6385 -0.4332 -0.2096
   39POPC  H13X 5295   5.643   4.194   7.818 -0.4116  1.8080  0.2983
   39POPC  H13Y 5296   5.711   4.316   7.933  2.1098  0.3475 -1.0339
   39POPC  C314 5297   5.766   4.105   7.976  0.1316 -0.2302 -0.0619
   39POPC  H14X 5298   5.784   4.009   7.924 -1.7006 -0.5325 -0.1899
   39POPC  H14Y 5299   5.679   4.101   8.045  1.3691  2.5873  1.7732
   39POPC  C315 5300   5.892   4.138   8.065 -0.3691  0.1161  0.2359
   39POPC  H15X 5301   5.877   4.238   8.111 -0.5725 -0.5118  1.5602
   39POPC  H15Y 5302   5.980   4.141   7.997  0.1237  1.9479  0.9276
   39POPC  C316 5303   5.922   4.020   8.164  0.0156  0.1812 -0.1523
   39POPC  H16X 5304   5.999   4.049   8.239 -0.6449 -0.7729  0.9180
   39POPC  H16Y 5305   5.939   3.922   8.114  1.2983  0.6247 -0.5936
   39POPC  H16Z 5306   5.824   4.008   8.216  0.3124  0.9230  0.5888
   40POPC     N 5307   4.839   2.273   5.989  0.0625  0.0021 -0.0541
   40POPC   C12 5308   4.748   2.215   6.106  0.4518  0.6018 -0.1105
   40POPC  H12A 5309   4.653   2.266   6.103  1.2823  2.1295 -2.0065
   40POPC  H12B 5310   4.776   2.257   6.201  1.9221 -1.1717  0.2636
   40POPC   C13 5311   4.771   2.249   5.866  0.1492  0.1640  0.0372
   40POPC  H13A 5312   4.802   2.318   5.789 -0.5530  0.5874  0.1284
   40POPC  H13B 5313   4.782   2.145   5.839 -0.8269  0.1857 -0.4597
   40POPC  H13C 5314   4.665   2.264   5.881 -0.1585 -1.3527 -0.4740
   40POPC   C14 5315   4.836   2.417   6.025 -0.1179 -0.0353  0.8825
   40POPC  H14A 5316   4.735   2.452   6.041  0.6440  3.8104 -1.8606
   40POPC  H14B 5317   4.880   2.440   6.120 -0.7896 -0.9001  1.4050
   40POPC  H14C 5318   4.896   2.476   5.957  0.5122 -0.0929  1.3837
   40POPC   C15 5319   4.978   2.221   5.996  0.6499 -0.1504 -0.4984
   40POPC  H15A 5320   5.042   2.262   5.919 -1.4051  1.6246 -1.3015
   40POPC  H15B 5321   4.977   2.114   5.983 -2.4236 -0.6686  3.1134
   40POPC  H15C 5322   5.035   2.240   6.086 -0.1406 -1.7438  0.3589
   40POPC   C11 5323   4.744   2.062   6.130  0.4503  0.2065  0.5088
   40POPC  H11A 5324   4.739   2.002   6.037  1.1560  0.3642  0.3695
   40POPC  H11B 5325   4.645   2.045   6.178 -0.2678  1.4597 -0.4939
   40POPC     P 5326   4.878   2.037   6.357 -0.0514 -0.1963  0.0906
   40POPC   O13 5327   4.775   2.132   6.411 -0.5369  0.2935  0.7834
   40POPC   O14 5328   5.018   2.083   6.382  0.6791 -0.4554  0.6294
   40POPC   O12 5329   4.852   2.015   6.205  0.1894  0.1772 -0.2928
   40POPC   O11 5330   4.861   1.885   6.407  0.0412  0.3811 -0.2260
   40POPC    C1 5331   4.855   1.850   6.541  0.6176 -0.2935  0.1420
   40POPC    HA 5332   4.805   1.927   6.603 -1.4854 -1.2652 -0.2677
   40POPC    HB 5333   4.958   1.846   6.580  0.7430  1.5606  0.0387
   40POPC    C2 5334   4.780   1.723   6.567  0.1025 -0.2585  0.6522
   40POPC    HS 5335   4.822   1.645   6.500 -1.6912  0.3943 -1.2810
   40POPC   O21 5336   4.644   1.750   6.540 -0.0289 -0.3784  0.2188
   40POPC   C21 5337   4.591   1.692   6.438  0.4406  0.7204 -0.4182
   40POPC   O22 5338   4.645   1.604   6.363 -0.1059 -0.5650 -0.1700
   40POPC   C22 5339   4.452   1.750   6.419 -0.1009 -0.5068 -0.3060
   40POPC   H2R 5340   4.438   1.773   6.311  1.1941  2.1323  0.0246
   40POPC   H2S 5341   4.437   1.841   6.482 -0.9301 -0.5828 -0.3914
   40POPC    C3 5342   4.774   1.684   6.720  0.8663  0.2322  1.0036
   40POPC    HX 5343   4.713   1.591   6.727  0.4076  0.5597  1.3581
   40POPC    HY 5344   4.710   1.758   6.772 -2.9716 -2.4920  0.3636
   40POPC   O31 5345   4.905   1.672   6.778  0.3597  0.4684 -0.3060
   40POPC   C31 5346   4.973   1.576   6.736 -0.5290  0.5935 -0.1969
   40POPC   O32 5347   4.958   1.504   6.639 -0.5812 -0.0611 -0.2081
   40POPC   C32 5348   5.082   1.545   6.840  0.1342 -0.3469  1.1999
   40POPC   H2X 5349   5.177   1.548   6.782 -0.1732 -1.6742  0.6039
   40POPC   H2Y 5350   5.058   1.450   6.894  1.2243 -0.9944  0.5679
   40POPC   C23 5351   4.333   1.664   6.472  0.4839  0.2826 -0.0184
   40POPC   H3R 5352   4.332   1.560   6.432 -1.6838 -0.2170  1.1926
   40POPC   H3S 5353   4.244   1.706   6.420 -0.4771  1.9449  2.8529
   40POPC   C24 5354   4.310   1.664   6.623 -0.4413  0.3207  0.5034
   40POPC   H4R 5355   4.202   1.651   6.646 -0.7511 -0.9255 -1.5325
   40POPC   H4S 5356   4.345   1.761   6.663 -1.5062 -0.0700  2.4840
   40POPC   C25 5357   4.388   1.555   6.691  0.0429 -0.5973  0.7192
   40POPC   H5R 5358   4.476   1.534   6.628 -0.5590 -0.6254 -0.1264
   40POPC   H5S 5359   4.327   1.462   6.689 -1.1349  0.1731 -0.0337
   40POPC   C26 5360   4.438   1.585   6.829 -0.0677 -0.5264 -0.6064
   40POPC   H6R 5361   4.342   1.597   6.884 -0.5475  0.9934 -1.7146
   40POPC   H6S 5362   4.502   1.676   6.825 -0.2265 -0.3961 -0.2397
   40POPC   C27 5363   4.512   1.467   6.892 -0.0156  0.3015  0.1471
   40POPC   H7R 5364   4.566   1.407   6.815  0.5128 -1.0179  1.5131
   40POPC   H7S 5365   4.440   1.400   6.944  0.8265 -0.6296  0.1345
   40POPC   C28 5366   4.607   1.517   7.003 -0.0789 -0.1529 -0.2678
   40POPC   H8R 5367   4.539   1.572   7.071  1.3161 -0.0801  1.0947
   40POPC   H8S 5368   4.673   1.594   6.958 -0.0780 -1.3161 -2.3367
   40POPC   C29 5369   4.681   1.404   7.075  0.3157  0.1410  0.5889
   40POPC   H91 5370   4.762   1.355   7.018  0.9825  0.1454  1.5194
   40POPC  C210 5371   4.658   1.353   7.200 -0.2884 -0.0136  0.1661
   40POPC  H101 5372   4.723   1.276   7.242 -0.6988  0.2942  1.3918
   40POPC  C211 5373   4.543   1.399   7.279 -0.2796  0.2283 -0.7710
   40POPC  H11R 5374   4.479   1.308   7.287  0.9188 -0.6771 -1.5002
   40POPC  H11S 5375   4.472   1.468   7.229  0.4888  0.7764 -1.1000
   40POPC  C212 5376   4.582   1.452   7.418 -0.0971 -0.0174 -0.6215
   40POPC  H12R 5377   4.490   1.475   7.476  1.9965 -1.6994  3.5396
   40POPC  H12S 5378   4.640   1.547   7.423  0.8863 -0.6969  1.3459
   40POPC  C213 5379   4.655   1.351   7.505 -0.6727  0.0015 -0.2247
   40POPC  H13R 5380   4.748   1.311   7.459  0.2760 -1.8184  3.1416
   40POPC  H13S 5381   4.582   1.270   7.525 -0.3265  0.3282  2.5113
   40POPC  C214 5382   4.695   1.409   7.640  0.4890  0.4553 -0.0706
   40POPC  H14R 5383   4.616   1.483   7.666  0.1183  0.4007 -1.0420
   40POPC  H14S 5384   4.794   1.456   7.661  1.1487 -1.1293  0.4366
   40POPC  C215 5385   4.684   1.300   7.752 -0.5591  0.2208  0.8404
   40POPC  H15R 5386   4.582   1.258   7.766 -0.3589 -0.2748  0.8146
   40POPC  H15S 5387   4.697   1.353   7.849 -3.1723  1.0719  0.7709
   40POPC  C216 5388   4.777   1.180   7.750  0.1504 -0.2829  0.0210
   40POPC  H16R 5389   4.774   1.132   7.650  0.4805 -0.6315  0.1744
   40POPC  H16S 5390   4.749   1.102   7.824 -0.0504 -0.5482 -0.3352
   40POPC  C217 5391   4.928   1.203   7.760 -0.6304 -0.4306 -0.2333
   40POPC  H17R 5392   4.937   1.268   7.849 -1.8425  1.6381 -1.5734
   40POPC  H17S 5393   4.968   1.260   7.673  0.3930 -0.8312 -0.0256
   40POPC  C218 5394   5.002   1.066   7.774  0.1958 -0.1973 -0.2126
   40POPC  H18R 5395   5.108   1.082   7.804 -0.0921 -0.7223  1.1448
   40POPC  H18S 5396   4.995   1.008   7.680  1.9809 -0.4430 -0.2111
   40POPC  H18T 5397   4.951   1.002   7.850  2.4051 -0.8729  0.7662
   40POPC   C33 5398   5.084   1.650   6.953 -1.0860 -0.3145 -0.3694
   40POPC   H3X 5399   4.985   1.661   7.002 -0.1771  3.2288  0.7882
   40POPC   H3Y 5400   5.095   1.751   6.908 -2.3756 -0.0459 -0.1268
   40POPC   C34 5401   5.175   1.619   7.073 -0.6796 -0.1969  0.3511
   40POPC   H4X 5402   5.150   1.703   7.142  0.9161 -1.0778  2.0274
   40POPC   H4Y 5403   5.284   1.630   7.055 -0.4016  1.1311  2.6241
   40POPC   C35 5404   5.136   1.495   7.156 -0.5690  0.6962 -0.3919
   40POPC   H5X 5405   5.209   1.475   7.238 -1.6493 -0.6558  0.2723
   40POPC   H5Y 5406   5.159   1.414   7.084  0.5469 -0.9393  1.7185
   40POPC   C36 5407   4.999   1.478   7.209  0.3797  0.5592  0.0090
   40POPC   H6X 5408   4.991   1.372   7.241  1.0549  0.5832  0.2766
   40POPC   H6Y 5409   4.913   1.496   7.141 -0.6614 -0.5381  0.9973
   40POPC   C37 5410   4.962   1.563   7.339  0.6591  0.1373  0.0099
   40POPC   H7X 5411   4.854   1.544   7.353 -0.0172  0.4517 -4.0554
   40POPC   H7Y 5412   4.970   1.672   7.320 -1.0615 -0.0826 -2.1859
   40POPC   C38 5413   5.032   1.523   7.471  0.3976 -0.2466 -0.3935
   40POPC   H8X 5414   5.141   1.508   7.455  0.2479 -0.5795 -1.1368
   40POPC   H8Y 5415   4.980   1.431   7.505 -1.0878  0.0548 -1.7660
   40POPC   C39 5416   5.015   1.633   7.578 -0.0299 -0.2810  0.5399
   40POPC   H9X 5417   4.904   1.640   7.585  0.1348  1.6592  1.4743
   40POPC   H9Y 5418   5.049   1.731   7.538  0.7900 -0.6865  0.2399
   40POPC  C310 5419   5.066   1.578   7.713  0.0857 -0.0050  0.1546
   40POPC  H10X 5420   5.176   1.570   7.711  0.1267  0.3250  0.9576
   40POPC  H10Y 5421   5.031   1.474   7.730  3.9404 -1.2591  0.8081
   40POPC  C311 5422   5.022   1.665   7.827  0.2495  1.1262  0.3432
   40POPC  H11X 5423   4.913   1.655   7.845  0.0165  0.1861 -1.4991
   40POPC  H11Y 5424   5.039   1.773   7.804 -0.4648  1.0299 -0.6792
   40POPC  C312 5425   5.089   1.623   7.960  0.5365 -0.2403 -0.5529
   40POPC  H12X 5426   5.198   1.635   7.946  0.4546  1.2168  0.0287
   40POPC  H12Y 5427   5.067   1.516   7.983  3.1821 -0.1747  2.4690
   40POPC  C313 5428   5.045   1.714   8.077  0.3113  0.8024  0.7024
   40POPC  H13X 5429   4.938   1.693   8.098  0.9652 -4.2823 -0.2952
   40POPC  H13Y 5430   5.062   1.820   8.049 -1.2591  1.3377  1.7334
   40POPC  C314 5431   5.122   1.705   8.211  0.6252 -0.1455  0.0897
   40POPC  H14X 5432   5.231   1.711   8.189  0.6492  3.1274  0.9328
   40POPC  H14Y 5433   5.100   1.604   8.250 -1.0117  0.3893  0.5532
   40POPC  C315 5434   5.078   1.822   8.309  0.3385  0.5363  0.2817
   40POPC  H15X 5435   4.967   1.815   8.310  0.3577 -0.1441  2.9597
   40POPC  H15Y 5436   5.094   1.921   8.261 -0.0930 -0.4172 -1.8757
   40POPC  C316 5437   5.135   1.803   8.444 -0.5562 -0.7116  0.4081
   40POPC  H16X 5438   5.096   1.882   8.512 -0.7937 -0.7122  0.2741
   40POPC  H16Y 5439   5.245   1.812   8.431 -0.6035  1.0021  1.0971
   40POPC  H16Z 5440   5.105   1.705   8.488 -0.7630 -0.6856  0.3247
   41CHL1    C3 5441   3.548   6.062  10.062  0.1709  0.3476 -0.6252
   41CHL1    H3 5442   3.622   5.980  10.074  0.9559  0.8778 -1.7240
   41CHL1    O3 5443   3.494   6.090  10.189 -0.4139 -0.4670  0.0979
   41CHL1   H3' 5444   3.557   6.116  10.256  0.2387  1.1767 -1.1230
   41CHL1    C4 5445   3.619   6.190  10.027  0.0319 -0.8600  0.8187
   41CHL1   H4A 5446   3.550   6.274  10.051  1.7168  1.3388 -1.7422
   41CHL1   H4B 5447   3.706   6.198  10.096  0.6972  1.5139 -0.2427
   41CHL1    C5 5448   3.670   6.185   9.883  0.3355 -0.5214 -0.2664
   41CHL1    C6 5449   3.803   6.215   9.860 -0.2220 -0.1771 -0.1561
   41CHL1    H6 5450   3.864   6.233   9.949  1.9520 -0.7963 -1.4790
   41CHL1    C7 5451   3.865   6.229   9.724  0.0110 -0.4436 -0.3058
   41CHL1   H7A 5452   3.913   6.328   9.711  0.4153 -0.4014  1.3456
   41CHL1   H7B 5453   3.943   6.150   9.715  1.8864  1.4050 -0.5559
   41CHL1    C8 5454   3.758   6.216   9.615 -1.1827  1.4949  0.0956
   41CHL1    H8 5455   3.707   6.314   9.604  0.0940  2.1526 -0.0391
   41CHL1   C14 5456   3.833   6.172   9.484 -0.6226  0.5756 -0.0932
   41CHL1   H14 5457   3.866   6.068   9.508 -2.8116  0.3692  2.1740
   41CHL1   C15 5458   3.966   6.251   9.458 -0.1939  0.1506  0.4158
   41CHL1  H15A 5459   3.954   6.359   9.480 -0.0814  0.0844  0.8023
   41CHL1  H15B 5460   4.047   6.211   9.522 -1.8689  0.8445  3.0400
   41CHL1   C16 5461   3.982   6.206   9.313  0.2130 -0.4003 -0.1573
   41CHL1  H16A 5462   4.003   6.299   9.256  1.2272 -1.8327 -2.1576
   41CHL1  H16B 5463   4.080   6.154   9.309 -0.2789 -1.3242 -0.2650
   41CHL1   C17 5464   3.858   6.126   9.259 -0.1610 -0.9164  0.6450
   41CHL1   H17 5465   3.875   6.017   9.274 -0.4424 -1.3821 -2.2617
   41CHL1   C13 5466   3.747   6.166   9.359  0.0586  1.0461 -0.8243
   41CHL1   C18 5467   3.688   6.310   9.329  0.2834 -0.3235 -0.1953
   41CHL1  H18A 5468   3.770   6.376   9.295  0.6388 -1.2525 -1.1702
   41CHL1  H18B 5469   3.625   6.294   9.239  0.1271 -0.3350 -0.0837
   41CHL1  H18C 5470   3.626   6.364   9.404  0.2901  0.6679 -0.9021
   41CHL1   C12 5471   3.635   6.069   9.383 -0.3096  0.1475 -0.0076
   41CHL1  H12A 5472   3.566   6.061   9.297 -0.0291 -0.4960 -0.1752
   41CHL1  H12B 5473   3.681   5.969   9.396 -0.6162 -0.0323 -0.2993
   41CHL1   C11 5474   3.550   6.090   9.515 -0.1932 -0.0390 -0.2374
   41CHL1  H11A 5475   3.476   6.168   9.486  0.5095  0.1526 -1.5282
   41CHL1  H11B 5476   3.486   6.001   9.528  0.7033 -0.4317  1.7345
   41CHL1    C9 5477   3.641   6.114   9.637  0.1896 -0.4294  0.4873
   41CHL1    H9 5478   3.682   6.012   9.649 -1.5957 -1.1933  0.2718
   41CHL1   C10 5479   3.566   6.147   9.771  0.6218 -0.5337  0.8405
   41CHL1   C19 5480   3.463   6.257   9.742 -0.0118  0.2470  0.3740
   41CHL1  H19A 5481   3.513   6.338   9.684  1.6431 -0.8626  0.2034
   41CHL1  H19B 5482   3.374   6.225   9.683  2.2202  2.0337 -4.2393
   41CHL1  H19C 5483   3.429   6.296   9.840 -2.7368  0.9795 -0.8261
   41CHL1    C1 5484   3.487   6.021   9.812 -0.2308 -0.7256 -0.1262
   41CHL1   H1A 5485   3.416   5.992   9.731 -0.4809  0.2457 -0.2592
   41CHL1   H1B 5486   3.562   5.940   9.801  0.0871 -0.1213 -2.7977
   41CHL1    C2 5487   3.433   6.035   9.959  0.0154  0.5963  0.3901
   41CHL1   H2A 5488   3.385   5.946  10.004 -1.5411  1.3823  0.2889
   41CHL1   H2B 5489   3.359   6.118   9.960 -0.0663  0.6352 -3.2448
   41CHL1   C20 5490   3.839   6.143   9.106 -0.3802  0.3891 -0.2081
   41CHL1   H20 5491   3.808   6.245   9.076 -1.2215  0.0605 -0.4617
   41CHL1   C21 5492   3.723   6.056   9.054 -0.2393  0.0421 -0.1945
   41CHL1  H21A 5493   3.699   6.071   8.947 -1.0353 -2.1492 -0.3635
   41CHL1  H21B 5494   3.629   6.087   9.104 -1.6741  0.2995 -2.9562
   41CHL1  H21C 5495   3.751   5.950   9.075  3.3291  0.6142 -1.6822
   41CHL1   C22 5496   3.972   6.105   9.031 -0.0425 -0.2630 -0.5104
   41CHL1  H22A 5497   4.053   6.160   9.083 -0.5166  0.6680 -0.7551
   41CHL1  H22B 5498   3.991   5.999   9.059  1.2539  0.5298  1.6951
   41CHL1   C23 5499   3.970   6.137   8.886 -0.6632 -0.2695 -0.2501
   41CHL1  H23A 5500   3.899   6.086   8.817  0.4717 -2.0961 -0.1044
   41CHL1  H23B 5501   3.947   6.244   8.870  0.3788 -0.0268 -0.1800
   41CHL1   C24 5502   4.111   6.103   8.831 -0.5133  0.4777 -0.7105
   41CHL1  H24A 5503   4.195   6.134   8.897 -0.6896 -1.0578  0.2622
   41CHL1  H24B 5504   4.113   5.992   8.834  1.0842  0.5279  0.7395
   41CHL1   C25 5505   4.130   6.145   8.680  0.4717 -0.4881 -0.6109
   41CHL1   H25 5506   4.040   6.115   8.622  1.3089 -2.3445 -0.9755
   41CHL1   C26 5507   4.162   6.287   8.663 -0.7033 -0.1286  0.7876
   41CHL1  H26A 5508   4.261   6.320   8.702 -0.5086 -1.6489  1.5877
   41CHL1  H26B 5509   4.162   6.311   8.554  3.3197 -0.3389  0.6722
   41CHL1  H26C 5510   4.082   6.347   8.711 -0.5970  0.5757  0.1030
   41CHL1   C27 5511   4.238   6.057   8.620  0.3863 -0.4381 -0.1748
   41CHL1  H27A 5512   4.263   6.073   8.513  0.8722 -0.2499 -0.0395
   41CHL1  H27B 5513   4.326   6.079   8.685 -1.0882 -0.1043  1.7594
   41CHL1  H27C 5514   4.217   5.951   8.648 -0.7229 -0.2182 -0.1900
   42CHL1    C3 5515   3.183   5.628   9.792  0.5740  0.7749  0.4391
   42CHL1    H3 5516   3.212   5.522   9.775  2.9452  1.5841 -0.7943
   42CHL1    O3 5517   3.160   5.639   9.933  0.4161 -0.0405  0.8357
   42CHL1   H3' 5518   3.101   5.712   9.950  1.1949  0.6080  0.7938
   42CHL1    C4 5519   3.295   5.721   9.752 -0.4766 -0.1220  0.6174
   42CHL1   H4A 5520   3.249   5.820   9.771 -0.3923  0.0194  0.1041
   42CHL1   H4B 5521   3.388   5.723   9.812 -0.3589 -0.6203  0.4574
   42CHL1    C5 5522   3.324   5.722   9.605 -0.2829  0.1847 -0.4424
   42CHL1    C6 5523   3.448   5.692   9.570 -0.2201  0.1974  0.0832
   42CHL1    H6 5524   3.516   5.662   9.650  1.1761 -2.4509 -2.0043
   42CHL1    C7 5525   3.497   5.694   9.430 -0.2767  0.3049  0.4557
   42CHL1   H7A 5526   3.582   5.764   9.418 -0.9407  1.1658  0.7928
   42CHL1   H7B 5527   3.537   5.593   9.403 -1.2227 -0.1687  0.8098
   42CHL1    C8 5528   3.381   5.739   9.340  0.4031  0.2259  1.0014
   42CHL1    H8 5529   3.381   5.849   9.350  0.1287  0.3555 -0.3429
   42CHL1   C14 5530   3.425   5.706   9.193 -0.5273 -0.3677  0.1149
   42CHL1   H14 5531   3.422   5.597   9.168 -1.3680  0.3665 -3.3135
   42CHL1   C15 5532   3.554   5.770   9.146 -0.4467  0.2891 -0.1096
   42CHL1  H15A 5533   3.546   5.876   9.175  0.1810  1.0335 -2.5551
   42CHL1  H15B 5534   3.638   5.714   9.193 -0.2734  1.1699  0.6519
   42CHL1   C16 5535   3.551   5.747   8.990  0.3268  0.3342  0.8451
   42CHL1  H16A 5536   3.601   5.839   8.950 -0.4368 -0.3282 -1.7358
   42CHL1  H16B 5537   3.607   5.654   8.969 -0.9282 -0.1676 -0.3178
   42CHL1   C17 5538   3.401   5.721   8.963  0.6484 -0.3334  0.3610
   42CHL1   H17 5539   3.386   5.614   8.938  1.6684 -0.2856 -0.5338
   42CHL1   C13 5540   3.319   5.748   9.093  0.5966 -0.0883 -0.6692
   42CHL1   C18 5541   3.296   5.901   9.097 -0.2413 -0.9242  0.5263
   42CHL1  H18A 5542   3.389   5.961   9.090 -0.9142 -0.1179 -1.8404
   42CHL1  H18B 5543   3.220   5.929   9.021 -0.5427 -0.8398  0.8593
   42CHL1  H18C 5544   3.238   5.926   9.189  0.2313 -1.3348  0.9401
   42CHL1   C12 5545   3.189   5.669   9.126 -0.6666 -0.4965 -0.3323
   42CHL1  H12A 5546   3.116   5.698   9.048 -0.9893  0.0471  0.1694
   42CHL1  H12B 5547   3.216   5.563   9.107  0.6518 -0.3168  0.5083
   42CHL1   C11 5548   3.132   5.699   9.261 -0.8066  0.5674  0.1501
   42CHL1  H11A 5549   3.091   5.802   9.265 -1.6794  0.1764  1.3772
   42CHL1  H11B 5550   3.050   5.627   9.279  2.0331 -2.5230  1.1756
   42CHL1    C9 5551   3.247   5.681   9.369 -0.0909 -0.1268 -0.4141
   42CHL1    H9 5552   3.261   5.571   9.379 -0.5811 -0.3905 -2.4189
   42CHL1   C10 5553   3.201   5.735   9.508 -0.1212 -0.2680  0.0018
   42CHL1   C19 5554   3.166   5.886   9.507  0.1006  0.2769 -0.2352
   42CHL1  H19A 5555   3.070   5.905   9.454  0.1695  1.5177  0.0545
   42CHL1  H19B 5556   3.156   5.924   9.611 -3.5473 -0.5422 -0.2117
   42CHL1  H19C 5557   3.242   5.952   9.459 -0.9925  2.8851  1.4940
   42CHL1    C1 5558   3.070   5.652   9.560  0.6211 -0.0787  0.4753
   42CHL1   H1A 5559   2.981   5.694   9.509  0.7256  0.4695  0.7391
   42CHL1   H1B 5560   3.089   5.545   9.537  0.0961 -0.7616  3.0558
   42CHL1    C2 5561   3.056   5.659   9.717  0.5679  0.2177  0.6485
   42CHL1   H2A 5562   2.986   5.576   9.738 -0.4665  0.7183 -0.7556
   42CHL1   H2B 5563   3.023   5.763   9.742  0.8767  0.5015 -0.1131
   42CHL1   C20 5564   3.351   5.783   8.827 -0.3929 -0.1431 -0.2737
   42CHL1   H20 5565   3.350   5.893   8.836  1.5661 -0.1875  0.5872
   42CHL1   C21 5566   3.206   5.732   8.786 -0.2037  0.2083  0.1804
   42CHL1  H21A 5567   3.189   5.758   8.680 -1.8024  0.8862  0.5806
   42CHL1  H21B 5568   3.120   5.766   8.848  0.4954  2.2374  0.0934
   42CHL1  H21C 5569   3.213   5.622   8.793  2.8806  0.3190 -0.8113
   42CHL1   C22 5570   3.438   5.769   8.707 -0.0810 -0.4204 -0.2960
   42CHL1  H22A 5571   3.413   5.852   8.638 -1.5385  0.0659  0.7810
   42CHL1  H22B 5572   3.543   5.793   8.735  0.2207 -5.0148  3.2856
   42CHL1   C23 5573   3.443   5.635   8.628 -0.4118 -0.2088  0.0589
   42CHL1  H23A 5574   3.448   5.551   8.701 -1.0354  0.2664  0.6606
   42CHL1  H23B 5575   3.343   5.620   8.581 -0.4005 -2.1542  0.5915
   42CHL1   C24 5576   3.557   5.626   8.533  0.3396 -0.0831 -0.1656
   42CHL1  H24A 5577   3.570   5.727   8.489 -1.4899  1.0667  1.8079
   42CHL1  H24B 5578   3.646   5.601   8.595  0.2470  0.0873  0.0372
   42CHL1   C25 5579   3.529   5.515   8.424 -0.7456 -0.4341  0.2098
   42CHL1   H25 5580   3.441   5.536   8.359 -2.0710  0.9201  2.3963
   42CHL1   C26 5581   3.650   5.505   8.335  0.4770 -0.5220 -0.3688
   42CHL1  H26A 5582   3.661   5.584   8.258  0.4142 -1.2432 -1.1159
   42CHL1  H26B 5583   3.731   5.515   8.410 -1.1412  2.0442  1.1363
   42CHL1  H26C 5584   3.648   5.404   8.288 -0.4915 -1.7154  2.1034
   42CHL1   C27 5585   3.488   5.378   8.476  0.7826  0.0169  0.3737
   42CHL1  H27A 5586   3.547   5.344   8.564 -1.6037 -1.6332  1.4149
   42CHL1  H27B 5587   3.381   5.385   8.506 -0.2770  1.4420 -3.5316
   42CHL1  H27C 5588   3.502   5.299   8.400  2.7856  0.1977  0.5462
   43CHL1    C3 5589   3.933   5.663  10.131  0.2153  0.3347  0.3970
   43CHL1    H3 5590   4.022   5.727  10.110  1.0271 -0.3229  1.7927
   43CHL1    O3 5591   3.911   5.679  10.270  0.0839 -0.1175  0.8523
   43CHL1   H3' 5592   3.871   5.595  10.295 -2.8221  0.8094 -0.3963
   43CHL1    C4 5593   3.815   5.707  10.044  0.1546  0.7241  0.3715
   43CHL1   H4A 5594   3.717   5.663  10.072 -0.1490  0.9338 -0.3691
   43CHL1   H4B 5595   3.800   5.813  10.076 -0.1192  0.9213 -0.4148
   43CHL1    C5 5596   3.850   5.683   9.900 -0.0704 -0.2711  0.5933
   43CHL1    C6 5597   3.844   5.787   9.814 -0.2496  0.3630  0.3345
   43CHL1    H6 5598   3.784   5.877   9.833  0.5859  0.9285  0.3506
   43CHL1    C7 5599   3.888   5.776   9.666  0.3821  0.2476 -0.3332
   43CHL1   H7A 5600   3.816   5.834   9.604 -1.4591  0.2297  1.7209
   43CHL1   H7B 5601   3.987   5.825   9.665 -0.0647  1.2405  1.5357
   43CHL1    C8 5602   3.894   5.634   9.613  0.2099 -0.7841  0.2823
   43CHL1    H8 5603   3.788   5.601   9.606 -0.2300  0.1581  2.2377
   43CHL1   C14 5604   3.964   5.632   9.473 -0.7451  0.3486  0.4804
   43CHL1   H14 5605   4.070   5.649   9.503 -1.0273 -0.2939  1.8490
   43CHL1   C15 5606   3.937   5.738   9.356 -0.3463 -0.1185 -1.0185
   43CHL1  H15A 5607   3.828   5.754   9.343 -0.2248  1.6553 -0.0349
   43CHL1  H15B 5608   3.994   5.829   9.384 -0.3154 -0.8262  1.3299
   43CHL1   C16 5609   3.988   5.667   9.225  0.3033  0.1480  0.0119
   43CHL1  H16A 5610   3.909   5.661   9.148  1.0481 -0.6895 -0.6984
   43CHL1  H16B 5611   4.071   5.728   9.184 -0.2354  0.3682 -0.7459
   43CHL1   C17 5612   4.035   5.523   9.276  0.0117 -0.0149  0.4676
   43CHL1   H17 5613   4.138   5.539   9.312  0.4562  2.2697 -1.6995
   43CHL1   C13 5614   3.968   5.493   9.407  0.0587 -0.3227 -0.0689
   43CHL1   C18 5615   3.820   5.454   9.379 -0.1918 -0.1599  0.1807
   43CHL1  H18A 5616   3.807   5.364   9.316  1.8699  0.0625 -0.6023
   43CHL1  H18B 5617   3.767   5.446   9.477  4.1164  1.0051  2.7406
   43CHL1  H18C 5618   3.773   5.528   9.312  1.1952 -0.8301 -1.5847
   43CHL1   C12 5619   4.033   5.397   9.503  0.1391 -0.4738  0.5574
   43CHL1  H12A 5620   4.026   5.293   9.462 -1.5860  0.3308 -1.2767
   43CHL1  H12B 5621   4.139   5.419   9.528  0.5099 -0.6889 -0.7480
   43CHL1   C11 5622   3.962   5.391   9.643  0.3374 -0.3925  0.7222
   43CHL1  H11A 5623   3.863   5.348   9.615  0.0882  0.7905 -0.2682
   43CHL1  H11B 5624   4.027   5.321   9.699 -0.1640 -3.3604 -2.2114
   43CHL1    C9 5625   3.949   5.532   9.711 -0.2139 -0.1330  0.3080
   43CHL1    H9 5626   4.053   5.570   9.720  0.3739 -2.4114  4.1464
   43CHL1   C10 5627   3.900   5.537   9.855  0.1637 -0.6436 -0.8677
   43CHL1   C19 5628   3.784   5.445   9.875 -0.0148  0.1277 -0.0668
   43CHL1  H19A 5629   3.738   5.437   9.976  0.4779 -1.1013  0.0654
   43CHL1  H19B 5630   3.699   5.477   9.812  0.0660  0.1341 -0.1742
   43CHL1  H19C 5631   3.807   5.342   9.842 -2.2806  0.2771 -2.2520
   43CHL1    C1 5632   4.013   5.493   9.956  0.4626  0.0746  0.7956
   43CHL1   H1A 5633   4.030   5.386   9.933  0.3758  0.1378  0.4393
   43CHL1   H1B 5634   4.105   5.550   9.932  0.2730  0.3411  0.7046
   43CHL1    C2 5635   3.974   5.517  10.103  0.3548 -0.4266  0.8187
   43CHL1   H2A 5636   4.052   5.485  10.175 -0.0237 -0.8132  1.0586
   43CHL1   H2B 5637   3.885   5.455  10.128  1.2446 -2.3209 -0.6244
   43CHL1   C20 5638   4.045   5.407   9.174 -0.7299 -0.0137  0.2309
   43CHL1   H20 5639   3.968   5.328   9.189  0.3935 -1.3655 -0.9434
   43CHL1   C21 5640   4.185   5.350   9.196 -0.3485  0.5859 -0.2592
   43CHL1  H21A 5641   4.254   5.412   9.134  0.0768 -2.1919 -2.6529
   43CHL1  H21B 5642   4.187   5.245   9.160  0.4910 -0.5067  2.8487
   43CHL1  H21C 5643   4.222   5.359   9.300  1.5292  1.1359 -0.9407
   43CHL1   C22 5644   4.021   5.447   9.027 -0.2460 -0.4255  0.3191
   43CHL1  H22A 5645   3.917   5.483   9.031  0.0033  0.2266  0.8806
   43CHL1  H22B 5646   4.083   5.536   9.004 -0.7161 -0.0480  0.5178
   43CHL1   C23 5647   4.036   5.340   8.924  0.3874 -0.0211  0.5961
   43CHL1  H23A 5648   4.142   5.311   8.910  0.2972 -0.0730  0.0194
   43CHL1  H23B 5649   3.972   5.252   8.947 -0.2665  1.1918  3.7446
   43CHL1   C24 5650   3.985   5.396   8.790 -0.3109 -0.3508 -0.3388
   43CHL1  H24A 5651   3.881   5.432   8.808  0.3004  0.4124  1.8023
   43CHL1  H24B 5652   4.048   5.484   8.765  0.6269 -0.9408 -0.0769
   43CHL1   C25 5653   3.975   5.300   8.671 -0.3846  0.5970  0.1265
   43CHL1   H25 5654   3.957   5.359   8.578  2.5012  0.3051 -0.6604
   43CHL1   C26 5655   4.105   5.219   8.649  0.2892 -0.5240 -0.4492
   43CHL1  H26A 5656   4.105   5.157   8.557  0.3346 -0.3195 -0.5861
   43CHL1  H26B 5657   4.195   5.285   8.645  0.2022 -0.4533 -1.3463
   43CHL1  H26C 5658   4.121   5.143   8.728  1.6724 -0.1581 -0.3572
   43CHL1   C27 5659   3.851   5.214   8.686 -0.5561  0.0879 -0.2713
   43CHL1  H27A 5660   3.856   5.147   8.775 -0.4599 -0.7191 -0.8758
   43CHL1  H27B 5661   3.760   5.276   8.697 -1.7581 -1.7207  0.2501
   43CHL1  H27C 5662   3.829   5.146   8.601 -1.4490  0.3099 -0.2287
   44CHL1    C3 5663   4.461   6.738  10.278  0.3270 -0.9691 -0.3363
   44CHL1    H3 5664   4.353   6.723  10.296  0.3755  1.4069  2.1761
   44CHL1    O3 5665   4.528   6.765  10.400  0.3129 -0.0525 -0.2138
   44CHL1   H3' 5666   4.619   6.778  10.374 -0.0733  0.0647 -1.6030
   44CHL1    C4 5667   4.522   6.613  10.213 -0.4213  0.7086  1.1796
   44CHL1   H4A 5668   4.633   6.607  10.214 -0.4066  0.4257 -0.4405
   44CHL1   H4B 5669   4.490   6.527  10.277 -1.8544  0.3487  0.0183
   44CHL1    C5 5670   4.471   6.591  10.068 -1.1374  0.8462 -0.5481
   44CHL1    C6 5671   4.403   6.484  10.033 -0.1090 -0.3244 -0.7071
   44CHL1    H6 5672   4.374   6.411  10.110  4.1923  0.6990  2.0475
   44CHL1    C7 5673   4.357   6.453   9.889  0.0052 -0.3429 -0.0999
   44CHL1   H7A 5674   4.385   6.350   9.859  0.7954 -0.5258  1.2139
   44CHL1   H7B 5675   4.249   6.474   9.872  0.1135  1.3848  1.1752
   44CHL1    C8 5676   4.431   6.547   9.785  0.2890 -0.2120 -0.0004
   44CHL1    H8 5677   4.535   6.510   9.772 -0.0646 -0.7762 -1.3223
   44CHL1   C14 5678   4.362   6.529   9.649  0.6180 -0.1319 -0.1214
   44CHL1   H14 5679   4.261   6.569   9.671 -0.3082 -3.4169  1.9386
   44CHL1   C15 5680   4.342   6.387   9.593  0.7868 -0.4318  0.1531
   44CHL1  H15A 5681   4.421   6.318   9.630  0.3055 -2.1464 -1.8884
   44CHL1  H15B 5682   4.236   6.356   9.613  0.7539 -0.8015 -0.5862
   44CHL1   C16 5683   4.349   6.412   9.439  0.0933  0.2506 -0.3594
   44CHL1  H16A 5684   4.434   6.372   9.380 -1.1012 -1.1440 -1.1706
   44CHL1  H16B 5685   4.260   6.358   9.401 -0.7698 -0.0267  1.9631
   44CHL1   C17 5686   4.334   6.564   9.426 -0.4917 -0.5770  0.4291
   44CHL1   H17 5687   4.229   6.596   9.443  0.2150  2.2858 -0.3552
   44CHL1   C13 5688   4.418   6.625   9.543  0.1356  1.1183  1.2128
   44CHL1   C18 5689   4.568   6.596   9.521  0.3402  1.2350 -0.4632
   44CHL1  H18A 5690   4.591   6.492   9.488 -4.6012  0.6420 -2.4252
   44CHL1  H18B 5691   4.609   6.663   9.442  2.4301  1.2473  0.5794
   44CHL1  H18C 5692   4.629   6.614   9.613 -2.5627 -1.1534  2.0669
   44CHL1   C12 5693   4.401   6.775   9.586 -0.0551  0.6264  0.3560
   44CHL1  H12A 5694   4.440   6.844   9.509 -0.9444  0.2612 -0.4338
   44CHL1  H12B 5695   4.293   6.799   9.583 -0.0306  1.3320  3.2924
   44CHL1   C11 5696   4.455   6.800   9.720 -0.4768  0.1222  0.5353
   44CHL1  H11A 5697   4.566   6.799   9.708 -0.4742 -0.3141  0.5730
   44CHL1  H11B 5698   4.428   6.900   9.758 -1.9003 -0.4655  1.1215
   44CHL1    C9 5699   4.424   6.692   9.830 -0.1509 -0.3843  0.2171
   44CHL1    H9 5700   4.317   6.713   9.850 -0.2607  0.4920 -1.1984
   44CHL1   C10 5701   4.505   6.705   9.968  0.8062 -0.0156 -0.4678
   44CHL1   C19 5702   4.656   6.709   9.926 -0.6095 -0.3547  0.1796
   44CHL1  H19A 5703   4.703   6.806   9.901  0.2056 -0.3870  1.4672
   44CHL1  H19B 5704   4.722   6.676  10.010  1.3367  2.7870 -0.0432
   44CHL1  H19C 5705   4.677   6.634   9.847 -1.0960  0.3006 -0.5645
   44CHL1    C1 5706   4.450   6.829  10.044  0.5146 -0.5386  1.0805
   44CHL1   H1A 5707   4.473   6.922   9.987  0.1850 -0.0370  1.7591
   44CHL1   H1B 5708   4.340   6.817  10.049  0.5602 -0.8109  1.4494
   44CHL1    C2 5709   4.489   6.855  10.188  0.0437 -0.5192 -0.5571
   44CHL1   H2A 5710   4.443   6.950  10.223  0.6364  0.0366 -1.2995
   44CHL1   H2B 5711   4.597   6.879  10.183  0.3254 -1.7331 -0.4545
   44CHL1   C20 5712   4.376   6.614   9.288  0.2110 -0.6079  0.0552
   44CHL1   H20 5713   4.483   6.589   9.274 -0.0458 -0.9354 -1.3885
   44CHL1   C21 5714   4.368   6.769   9.279 -0.6675 -0.4478  0.7885
   44CHL1  H21A 5715   4.463   6.822   9.301  0.0474 -1.5068  0.2551
   44CHL1  H21B 5716   4.278   6.817   9.325  0.1152 -0.4031  2.3188
   44CHL1  H21C 5717   4.355   6.791   9.171  1.7775  0.3674  0.6347
   44CHL1   C22 5718   4.309   6.550   9.156 -0.1855 -0.4891 -0.3615
   44CHL1  H22A 5719   4.363   6.596   9.071  1.4149 -1.8068 -0.0860
   44CHL1  H22B 5720   4.341   6.444   9.162 -1.3181 -0.7498  1.8081
   44CHL1   C23 5721   4.159   6.577   9.139 -0.0873 -0.0647 -0.0607
   44CHL1  H23A 5722   4.098   6.549   9.228 -1.2789  0.2318 -0.7678
   44CHL1  H23B 5723   4.158   6.687   9.122  0.8533  0.0882  0.8170
   44CHL1   C24 5724   4.098   6.510   9.023  1.0711  0.0526 -0.0394
   44CHL1  H24A 5725   4.171   6.507   8.939  1.1553  3.7664 -0.1985
   44CHL1  H24B 5726   4.077   6.406   9.057  0.9012  0.5094  1.2790
   44CHL1   C25 5727   3.971   6.585   8.974 -0.8210 -0.1803 -0.0125
   44CHL1   H25 5728   3.998   6.693   8.976 -3.6345  0.5568  0.6820
   44CHL1   C26 5729   3.923   6.548   8.839  0.6101  0.6189  0.2560
   44CHL1  H26A 5730   3.855   6.624   8.794 -1.3004 -2.5398 -2.4430
   44CHL1  H26B 5731   4.009   6.553   8.769  1.5890 -0.0642  1.3883
   44CHL1  H26C 5732   3.886   6.443   8.835  0.6255  0.5910  0.8026
   44CHL1   C27 5733   3.856   6.568   9.072  0.1072  0.4292 -0.4823
   44CHL1  H27A 5734   3.878   6.608   9.174  1.2721 -0.0778 -0.5260
   44CHL1  H27B 5735   3.758   6.610   9.040 -0.5567 -1.5107 -1.0607
   44CHL1  H27C 5736   3.831   6.462   9.092  1.3739  0.6385  2.4661
   45CHL1    C3 5737   1.224   4.542  10.198 -0.4697 -0.0428 -0.0363
   45CHL1    H3 5738   1.130   4.485  10.214 -0.7579  0.9953  2.2133
   45CHL1    O3 5739   1.282   4.548  10.327  0.1100  0.0072 -0.6039
   45CHL1   H3' 5740   1.220   4.584  10.392  0.3277 -2.4166  1.0272
   45CHL1    C4 5741   1.320   4.473  10.098  0.6803  0.3718  0.8546
   45CHL1   H4A 5742   1.427   4.503  10.093  0.2894  1.8716  1.2574
   45CHL1   H4B 5743   1.324   4.364  10.120 -0.2104 -0.0295 -0.8872
   45CHL1    C5 5744   1.252   4.473   9.963  0.1909 -0.7636  0.1986
   45CHL1    C6 5745   1.214   4.358   9.905  0.3894  0.5142 -0.5502
   45CHL1    H6 5746   1.255   4.261   9.936  2.1837  1.7276  1.0387
   45CHL1    C7 5747   1.161   4.341   9.765  0.0217 -0.3358 -0.1551
   45CHL1   H7A 5748   1.218   4.257   9.720  1.3947  0.4778  0.0360
   45CHL1   H7B 5749   1.051   4.321   9.765 -0.3480  1.5213 -0.1318
   45CHL1    C8 5750   1.170   4.471   9.685  0.1962  0.0660 -0.3989
   45CHL1    H8 5751   1.096   4.457   9.604  1.4181 -1.1308 -1.3305
   45CHL1   C14 5752   1.301   4.484   9.603  0.1476  0.4137 -0.5194
   45CHL1   H14 5753   1.384   4.482   9.677 -1.0842  0.0474  0.8746
   45CHL1   C15 5754   1.312   4.367   9.501 -0.3297  0.0886  0.2505
   45CHL1  H15A 5755   1.419   4.372   9.471 -0.9238 -1.1812 -2.2313
   45CHL1  H15B 5756   1.299   4.258   9.521 -1.0672  0.0234 -0.5410
   45CHL1   C16 5757   1.225   4.401   9.381  0.3488 -0.0841 -0.4741
   45CHL1  H16A 5758   1.284   4.368   9.293  0.2850 -0.5261 -0.3515
   45CHL1  H16B 5759   1.125   4.352   9.389  0.2615 -0.0047 -1.0280
   45CHL1   C17 5760   1.214   4.560   9.395  0.1972  0.6544 -0.2903
   45CHL1   H17 5761   1.115   4.579   9.441  0.9062 -0.1915  1.6735
   45CHL1   C13 5762   1.303   4.605   9.511  0.0792 -0.3438 -0.2311
   45CHL1   C18 5763   1.454   4.630   9.465  0.2868  0.4706  0.3003
   45CHL1  H18A 5764   1.454   4.728   9.413  3.4516 -0.3553 -1.3649
   45CHL1  H18B 5765   1.525   4.632   9.550  0.0616  1.5135  0.4672
   45CHL1  H18C 5766   1.483   4.554   9.389 -1.2316  1.4303 -1.2782
   45CHL1   C12 5767   1.254   4.733   9.580 -0.3513  0.2769 -0.9681
   45CHL1  H12A 5768   1.344   4.769   9.635  0.7023 -0.9969 -1.8230
   45CHL1  H12B 5769   1.239   4.812   9.504  1.3796  2.2504  0.6966
   45CHL1   C11 5770   1.143   4.725   9.683 -0.1628 -0.0916 -0.1777
   45CHL1  H11A 5771   1.137   4.825   9.732  0.8465  1.0678 -2.3476
   45CHL1  H11B 5772   1.051   4.731   9.621  1.1681 -0.2118 -2.1910
   45CHL1    C9 5773   1.142   4.600   9.772  0.3500 -0.2597  0.0672
   45CHL1    H9 5774   1.036   4.584   9.800 -0.0657 -0.6021 -1.6471
   45CHL1   C10 5775   1.217   4.611   9.904  0.2722 -0.3291 -0.4759
   45CHL1   C19 5776   1.350   4.687   9.893 -0.3391 -0.3228 -0.3595
   45CHL1  H19A 5777   1.405   4.652   9.804  0.0675  0.3147 -0.3561
   45CHL1  H19B 5778   1.330   4.796   9.897 -0.6144 -0.4317  2.3337
   45CHL1  H19C 5779   1.417   4.679   9.981 -2.1131  1.4629  1.2095
   45CHL1    C1 5780   1.130   4.688  10.011  0.2647 -0.0166  0.6258
   45CHL1   H1A 5781   1.096   4.790   9.983 -0.3815 -0.4809 -0.2806
   45CHL1   H1B 5782   1.041   4.621  10.011  1.4518 -1.6443  0.3413
   45CHL1    C2 5783   1.193   4.692  10.152  0.0432 -0.1572 -0.0825
   45CHL1   H2A 5784   1.116   4.725  10.225 -1.0642 -1.6011 -0.5498
   45CHL1   H2B 5785   1.290   4.744  10.145  0.1742 -0.6346 -2.1835
   45CHL1   C20 5786   1.214   4.643   9.266  0.2625  0.0572 -0.5837
   45CHL1   H20 5787   1.282   4.731   9.274  0.5512 -0.3114  1.2588
   45CHL1   C21 5788   1.075   4.716   9.270 -0.0463  0.0460  0.1071
   45CHL1  H21A 5789   1.058   4.776   9.362 -1.2861 -0.4746  0.2229
   45CHL1  H21B 5790   0.996   4.638   9.265  0.3769 -0.3840  0.1275
   45CHL1  H21C 5791   1.071   4.781   9.180  0.6615 -1.2251 -0.8569
   45CHL1   C22 5792   1.234   4.561   9.129  0.1973  0.8036 -0.5332
   45CHL1  H22A 5793   1.319   4.490   9.140  0.7550  1.8200  2.0636
   45CHL1  H22B 5794   1.141   4.508   9.099  1.9106 -1.8253 -1.3302
   45CHL1   C23 5795   1.284   4.645   9.015  0.0404 -0.1434  0.8846
   45CHL1  H23A 5796   1.199   4.716   8.999 -0.2542 -0.7735 -0.3833
   45CHL1  H23B 5797   1.381   4.694   9.038 -0.3179  2.1220 -2.0986
   45CHL1   C24 5798   1.277   4.570   8.876 -0.1458 -0.3208 -0.5898
   45CHL1  H24A 5799   1.272   4.462   8.901 -1.6629  0.0290  0.7222
   45CHL1  H24B 5800   1.174   4.594   8.841 -0.3171 -0.1022  0.0568
   45CHL1   C25 5801   1.388   4.592   8.765  0.3212  0.3158 -0.4275
   45CHL1   H25 5802   1.389   4.701   8.740 -0.3965  0.8331  1.7239
   45CHL1   C26 5803   1.529   4.554   8.825 -0.0469 -0.2451 -0.1997
   45CHL1  H26A 5804   1.606   4.572   8.748  1.0093  1.4688  1.2081
   45CHL1  H26B 5805   1.537   4.619   8.916  3.7014  0.1241 -0.7242
   45CHL1  H26C 5806   1.527   4.447   8.854 -2.3386 -0.3172 -0.5394
   45CHL1   C27 5807   1.352   4.508   8.635 -0.4501  0.1368 -0.4401
   45CHL1  H27A 5808   1.254   4.538   8.592 -1.8856  0.9226  3.1801
   45CHL1  H27B 5809   1.437   4.515   8.563  1.4830  0.3287  1.7813
   45CHL1  H27C 5810   1.355   4.404   8.675  0.9640  0.3226 -0.0384
   46CHL1    C3 5811   4.543   2.723  10.021  0.1046 -0.3742 -0.8418
   46CHL1    H3 5812   4.518   2.616  10.010  0.7244 -0.8842  2.1458
   46CHL1    O3 5813   4.553   2.758  10.158 -0.5474  0.0529 -0.2175
   46CHL1   H3' 5814   4.470   2.721  10.189 -1.2572  1.6742 -0.1197
   46CHL1    C4 5815   4.680   2.748   9.947  0.1351 -0.1122  0.3231
   46CHL1   H4A 5816   4.703   2.856   9.959 -0.0330  0.4782 -3.9768
   46CHL1   H4B 5817   4.771   2.694   9.980 -0.2594 -1.2347 -0.4200
   46CHL1    C5 5818   4.656   2.724   9.798  0.4113 -0.0774  0.6505
   46CHL1    C6 5819   4.728   2.638   9.727  0.6742  0.8566 -0.6797
   46CHL1    H6 5820   4.795   2.568   9.778 -0.0946  0.7401  0.1990
   46CHL1    C7 5821   4.719   2.620   9.583  0.2760 -0.5576  0.0002
   46CHL1   H7A 5822   4.818   2.598   9.537  0.2422 -0.1954 -0.2480
   46CHL1   H7B 5823   4.663   2.527   9.559 -1.5627  0.1020  1.6335
   46CHL1    C8 5824   4.641   2.734   9.510 -0.4306 -0.7290 -0.4028
   46CHL1    H8 5825   4.706   2.824   9.515 -1.8025  0.2761 -0.4291
   46CHL1   C14 5826   4.617   2.685   9.365 -0.2634  0.2690  0.0273
   46CHL1   H14 5827   4.549   2.598   9.372 -0.2221  0.1869 -0.5826
   46CHL1   C15 5828   4.732   2.628   9.287  0.5026 -0.3776 -0.4671
   46CHL1  H15A 5829   4.812   2.704   9.296 -0.1819 -0.0496  3.3714
   46CHL1  H15B 5830   4.770   2.531   9.326  0.0997 -1.4469 -2.6239
   46CHL1   C16 5831   4.685   2.627   9.137  0.3399 -0.0681  0.5623
   46CHL1  H16A 5832   4.760   2.669   9.066  1.6447 -0.5339  1.6475
   46CHL1  H16B 5833   4.658   2.524   9.106  0.0326  0.6181 -1.5294
   46CHL1   C17 5834   4.550   2.701   9.141  0.1100 -0.4749 -0.3672
   46CHL1   H17 5835   4.472   2.623   9.160 -0.9568  1.3074  2.9378
   46CHL1   C13 5836   4.552   2.788   9.273  1.0347 -0.0635  0.1367
   46CHL1   C18 5837   4.650   2.902   9.250 -0.0385 -0.7361  0.2496
   46CHL1  H18A 5838   4.743   2.867   9.200  1.3200  1.4241  1.1788
   46CHL1  H18B 5839   4.609   2.983   9.185  1.8176 -0.0282 -0.0944
   46CHL1  H18C 5840   4.679   2.943   9.349 -0.1017  0.0699 -0.0566
   46CHL1   C12 5841   4.422   2.835   9.342  0.4732 -0.4680 -0.0591
   46CHL1  H12A 5842   4.370   2.915   9.285  0.6869 -0.1480  0.1954
   46CHL1  H12B 5843   4.350   2.751   9.331 -0.7453  0.4267  1.0715
   46CHL1   C11 5844   4.435   2.880   9.491 -0.1435 -0.6761  0.2948
   46CHL1  H11A 5845   4.503   2.968   9.493 -3.3676  2.0091 -1.3009
   46CHL1  H11B 5846   4.340   2.914   9.538 -1.1370 -0.9513 -1.4352
   46CHL1    C9 5847   4.511   2.780   9.584 -0.2922  0.9303 -0.4006
   46CHL1    H9 5848   4.458   2.682   9.584  2.1342 -0.4383 -2.2590
   46CHL1   C10 5849   4.544   2.820   9.732 -0.2460 -0.3544  0.3703
   46CHL1   C19 5850   4.580   2.967   9.741 -0.0509  0.3041  0.8614
   46CHL1  H19A 5851   4.502   3.029   9.692 -0.2680 -0.2078  0.5618
   46CHL1  H19B 5852   4.578   3.001   9.847  1.2679 -1.7426  1.5592
   46CHL1  H19C 5853   4.675   2.990   9.688 -0.0820  0.3415  0.8235
   46CHL1    C1 5854   4.408   2.798   9.814  1.2774  0.2666 -0.1274
   46CHL1   H1A 5855   4.334   2.873   9.781 -1.6126 -1.6229  1.8224
   46CHL1   H1B 5856   4.365   2.700   9.786  1.7636 -0.0201  0.1033
   46CHL1    C2 5857   4.424   2.801   9.965 -0.0177  0.4863  0.0306
   46CHL1   H2A 5858   4.332   2.777  10.021 -0.1920  0.3340 -0.3208
   46CHL1   H2B 5859   4.455   2.904   9.996  1.7326 -0.5803  1.9476
   46CHL1   C20 5860   4.502   2.766   9.010 -0.9051 -0.6761  0.7769
   46CHL1   H20 5861   4.560   2.859   8.991  1.4481 -2.0590  1.0653
   46CHL1   C21 5862   4.352   2.808   9.008  0.0171  0.8628 -0.4097
   46CHL1  H21A 5863   4.311   2.827   8.906 -1.4344  4.9667  0.8431
   46CHL1  H21B 5864   4.333   2.904   9.061  1.3452  0.0150  1.6546
   46CHL1  H21C 5865   4.284   2.732   9.053 -0.2040  0.3409 -1.6041
   46CHL1   C22 5866   4.544   2.684   8.871  0.8154 -0.3106 -0.1886
   46CHL1  H22A 5867   4.537   2.763   8.793 -1.0214 -1.4762 -1.2341
   46CHL1  H22B 5868   4.651   2.655   8.878  0.7207 -1.9919 -4.1913
   46CHL1   C23 5869   4.438   2.578   8.834  0.5889 -0.3446 -0.3753
   46CHL1  H23A 5870   4.425   2.500   8.912  1.0987  0.9465  1.0268
   46CHL1  H23B 5871   4.342   2.632   8.820  0.0617 -0.7203  1.7210
   46CHL1   C24 5872   4.472   2.500   8.702  0.2741 -0.8090  0.0760
   46CHL1  H24A 5873   4.581   2.501   8.683  0.1639 -0.4728 -0.5545
   46CHL1  H24B 5874   4.437   2.395   8.697  0.2211 -0.7917  0.0779
   46CHL1   C25 5875   4.404   2.575   8.580  0.1774 -0.3150 -0.3965
   46CHL1   H25 5876   4.412   2.685   8.596 -0.8535 -0.6081  2.4992
   46CHL1   C26 5877   4.467   2.533   8.450  0.3983 -0.0772 -0.0330
   46CHL1  H26A 5878   4.402   2.559   8.364  0.3348  0.2214  0.1051
   46CHL1  H26B 5879   4.568   2.579   8.447  0.3870  0.1612  2.2488
   46CHL1  H26C 5880   4.467   2.421   8.451 -1.0060 -0.0783  0.5059
   46CHL1   C27 5881   4.257   2.545   8.575  0.0258 -0.3597  1.1651
   46CHL1  H27A 5882   4.248   2.441   8.537  2.7947 -0.2667  0.1682
   46CHL1  H27B 5883   4.199   2.566   8.667 -1.4414 -0.9069  0.3852
   46CHL1  H27C 5884   4.216   2.618   8.502  2.0567 -1.0509 -0.7288
   47CHL1    C3 5885   4.348   5.935   9.945  0.7323 -0.1268 -0.0379
   47CHL1    H3 5886   4.429   5.860   9.961 -0.7001 -1.9063 -0.9771
   47CHL1    O3 5887   4.308   5.983  10.069  0.8605  0.1670  0.8428
   47CHL1   H3' 5888   4.223   6.019  10.043  0.5324 -0.2033  1.4100
   47CHL1    C4 5889   4.385   6.061   9.856  0.4789  0.2223  0.1914
   47CHL1   H4A 5890   4.299   6.131   9.851  1.1631  1.0152 -0.4956
   47CHL1   H4B 5891   4.467   6.111   9.912  1.0773 -0.0738 -0.4136
   47CHL1    C5 5892   4.434   6.012   9.723 -0.1982 -0.6614  0.0944
   47CHL1    C6 5893   4.557   6.048   9.684 -0.2978  0.1898  0.2075
   47CHL1    H6 5894   4.621   6.110   9.748  2.0600 -0.1023 -1.7961
   47CHL1    C7 5895   4.617   5.993   9.553 -0.4874 -0.0658  0.1625
   47CHL1   H7A 5896   4.674   6.076   9.507  1.5684 -2.1004 -1.1069
   47CHL1   H7B 5897   4.685   5.907   9.573  1.2927  1.1568 -0.5710
   47CHL1    C8 5898   4.508   5.957   9.454  0.2318  0.2796 -0.1520
   47CHL1    H8 5899   4.469   6.057   9.428 -0.0113  0.5681  1.2575
   47CHL1   C14 5900   4.558   5.892   9.326 -0.2990  0.4457  0.7612
   47CHL1   H14 5901   4.606   5.795   9.351 -1.4228 -0.3180 -0.0300
   47CHL1   C15 5902   4.656   5.972   9.238 -0.1328 -0.1089 -0.5616
   47CHL1  H15A 5903   4.621   6.077   9.229 -1.1449 -0.2543  1.3886
   47CHL1  H15B 5904   4.757   5.978   9.284  0.8772  1.8074 -2.9101
   47CHL1   C16 5905   4.651   5.897   9.102  0.0555 -0.8102  0.6867
   47CHL1  H16A 5906   4.625   5.989   9.046  4.9432  1.6589  2.1599
   47CHL1  H16B 5907   4.742   5.850   9.060 -0.5783  0.5906 -2.3510
   47CHL1   C17 5908   4.534   5.804   9.106  0.6290 -0.0210 -0.3338
   47CHL1   H17 5909   4.560   5.700   9.136  0.3359  0.0849  0.3007
   47CHL1   C13 5910   4.447   5.852   9.227  0.1084  0.0777 -0.2534
   47CHL1   C18 5911   4.354   5.976   9.186 -0.2623  0.7187 -0.5885
   47CHL1  H18A 5912   4.253   5.936   9.162  1.1745 -2.5346 -1.4648
   47CHL1  H18B 5913   4.331   6.040   9.273  1.7240  0.3256  0.2244
   47CHL1  H18C 5914   4.395   6.039   9.104  0.6654  0.0853 -0.6233
   47CHL1   C12 5915   4.374   5.735   9.287  0.1538 -0.1843 -0.5762
   47CHL1  H12A 5916   4.294   5.698   9.220  0.0228 -1.0666  0.0578
   47CHL1  H12B 5917   4.438   5.654   9.328 -0.0021  0.3584  0.7542
   47CHL1   C11 5918   4.312   5.783   9.421 -0.3011  0.4752  0.1082
   47CHL1  H11A 5919   4.220   5.840   9.396  0.5466  1.2995 -1.1730
   47CHL1  H11B 5920   4.280   5.690   9.474  1.7638 -0.2574  0.1364
   47CHL1    C9 5921   4.403   5.853   9.521 -0.4039  0.4140  0.7215
   47CHL1    H9 5922   4.470   5.771   9.554 -1.4672 -0.7569 -0.0092
   47CHL1   C10 5923   4.335   5.919   9.642 -0.2537  0.2559  0.1536
   47CHL1   C19 5924   4.213   6.002   9.597 -0.2062  0.4830  0.5148
   47CHL1  H19A 5925   4.259   6.077   9.529  2.3957  0.0483  1.7059
   47CHL1  H19B 5926   4.135   5.940   9.549  1.1604 -1.5727  0.8974
   47CHL1  H19C 5927   4.165   6.065   9.675  1.0008  0.9380  0.9144
   47CHL1    C1 5928   4.286   5.809   9.738 -0.0462 -0.4276 -0.5370
   47CHL1   H1A 5929   4.207   5.758   9.679 -1.2814 -1.1878  1.7426
   47CHL1   H1B 5930   4.369   5.736   9.752  0.3912 -0.1503 -1.5925
   47CHL1    C2 5931   4.234   5.866   9.876  0.0382 -0.8783 -0.3716
   47CHL1   H2A 5932   4.205   5.779   9.939 -1.0371  1.5867  2.6985
   47CHL1   H2B 5933   4.140   5.921   9.852  0.6757  1.1692  1.6617
   47CHL1   C20 5934   4.460   5.773   8.973  0.2537  0.5555 -0.0440
   47CHL1   H20 5935   4.370   5.837   8.961 -0.5047 -0.6422 -0.7577
   47CHL1   C21 5936   4.414   5.623   8.974 -0.8046 -0.3174 -0.5741
   47CHL1  H21A 5937   4.338   5.607   9.053 -0.2750  0.5549  0.1138
   47CHL1  H21B 5938   4.494   5.551   9.002 -0.6981 -0.5812 -1.5654
   47CHL1  H21C 5939   4.377   5.603   8.871  2.2982  0.8087 -1.9676
   47CHL1   C22 5940   4.541   5.801   8.841 -0.2694  0.0902  0.1176
   47CHL1  H22A 5941   4.474   5.790   8.753  1.2512  2.3592 -1.3951
   47CHL1  H22B 5942   4.579   5.905   8.835  1.5706 -0.6481 -2.3152
   47CHL1   C23 5943   4.656   5.700   8.823 -0.7141  0.4170  0.0421
   47CHL1  H23A 5944   4.730   5.709   8.906 -0.6544 -0.6540  0.1157
   47CHL1  H23B 5945   4.619   5.596   8.824  1.1778 -0.2796  0.3017
   47CHL1   C24 5946   4.729   5.704   8.692  0.0879  0.1418 -0.7407
   47CHL1  H24A 5947   4.669   5.664   8.608  1.3931 -0.4152 -1.4368
   47CHL1  H24B 5948   4.754   5.810   8.667 -0.1181 -0.2029 -2.4977
   47CHL1   C25 5949   4.864   5.621   8.690 -0.0061  0.4492  0.4467
   47CHL1   H25 5950   4.848   5.522   8.737  0.0372  1.3040  2.2949
   47CHL1   C26 5951   4.909   5.595   8.548  0.5838 -0.1602 -0.1753
   47CHL1  H26A 5952   4.857   5.518   8.486  0.9368 -0.3684 -0.2122
   47CHL1  H26B 5953   5.018   5.574   8.540  1.1060  2.4264 -0.3042
   47CHL1  H26C 5954   4.904   5.691   8.493  1.1745 -0.5276 -0.8741
   47CHL1   C27 5955   4.975   5.702   8.771  0.3043  0.1053  0.2566
   47CHL1  H27A 5956   5.067   5.641   8.771  0.1228 -0.1711  0.3251
   47CHL1  H27B 5957   4.998   5.798   8.721 -0.7003  1.3824  2.2062
   47CHL1  H27C 5958   4.934   5.725   8.872  0.7016  0.8724  0.2419
   48CHL1    C3 5959   5.462   6.654  10.164  0.4486 -0.0178  0.5421
   48CHL1    H3 5960   5.352   6.666  10.172  0.5103  1.4654 -0.7138
   48CHL1    O3 5961   5.514   6.644  10.292 -0.1238  0.0677  0.4806
   48CHL1   H3' 5962   5.490   6.553  10.312 -2.3726  1.0822  2.6834
   48CHL1    C4 5963   5.520   6.540  10.082  0.7559  0.7474  0.8796
   48CHL1   H4A 5964   5.630   6.554  10.075  0.8889 -1.1096 -1.1376
   48CHL1   H4B 5965   5.495   6.446  10.137 -1.7192  1.7251  1.4670
   48CHL1    C5 5966   5.459   6.538   9.947  0.1615  0.0123  0.0635
   48CHL1    C6 5967   5.395   6.426   9.898 -0.3156 -1.0578 -0.3401
   48CHL1    H6 5968   5.386   6.341   9.966 -0.3344  0.7523  1.9977
   48CHL1    C7 5969   5.336   6.418   9.764 -0.6456 -0.0895 -0.0135
   48CHL1   H7A 5970   5.359   6.317   9.723  2.3682  0.5152  0.0872
   48CHL1   H7B 5971   5.226   6.434   9.767 -0.4192  1.5214  0.2525
   48CHL1    C8 5972   5.398   6.523   9.666  0.8867  0.3642  0.9579
   48CHL1    H8 5973   5.505   6.498   9.650  1.0679  2.6197 -1.7699
   48CHL1   C14 5974   5.324   6.528   9.537 -0.4362 -0.2613  0.3943
   48CHL1   H14 5975   5.217   6.556   9.547  0.1417  1.7109  1.3125
   48CHL1   C15 5976   5.313   6.392   9.459  0.0892  0.6125  0.4496
   48CHL1  H15A 5977   5.402   6.326   9.454 -0.2850  0.2533 -1.9151
   48CHL1  H15B 5978   5.217   6.350   9.495  0.0338  2.0231  2.0489
   48CHL1   C16 5979   5.294   6.433   9.315 -0.0523  0.0672 -0.6148
   48CHL1  H16A 5980   5.388   6.411   9.259  0.1168 -1.2991  0.1821
   48CHL1  H16B 5981   5.211   6.379   9.264  0.3800 -0.6431 -0.5688
   48CHL1   C17 5982   5.280   6.589   9.309 -0.0383  0.3903 -0.3585
   48CHL1   H17 5983   5.182   6.629   9.343  0.4794 -1.4621  3.6859
   48CHL1   C13 5984   5.370   6.625   9.434  0.8243 -0.1944 -0.8652
   48CHL1   C18 5985   5.521   6.606   9.395  0.4702  0.1597  0.3541
   48CHL1  H18A 5986   5.553   6.692   9.332 -1.0909 -1.1493 -2.3643
   48CHL1  H18B 5987   5.581   6.593   9.487  0.8450 -0.7887 -0.0149
   48CHL1  H18C 5988   5.534   6.514   9.334  1.1093 -0.2477  1.0986
   48CHL1   C12 5989   5.353   6.774   9.493 -0.8827  0.6008  0.1706
   48CHL1  H12A 5990   5.393   6.860   9.436  1.7955 -0.3258  0.6077
   48CHL1  H12B 5991   5.243   6.787   9.506 -0.7534  0.5339  1.4038
   48CHL1   C11 5992   5.432   6.774   9.633 -0.2192 -0.8600 -0.1652
   48CHL1  H11A 5993   5.539   6.766   9.606 -0.5371  0.3952 -1.8986
   48CHL1  H11B 5994   5.420   6.878   9.673  2.3631 -1.0748  1.2504
   48CHL1    C9 5995   5.393   6.665   9.728  0.0250 -0.3805 -0.0924
   48CHL1    H9 5996   5.291   6.689   9.764  0.5392  0.2826  0.9345
   48CHL1   C10 5997   5.478   6.668   9.859 -0.1219 -0.1636 -0.0275
   48CHL1   C19 5998   5.636   6.685   9.831  0.0954 -0.3792 -0.0001
   48CHL1  H19A 5999   5.675   6.610   9.758 -3.1784 -2.0568 -0.1661
   48CHL1  H19B 6000   5.651   6.783   9.782  1.7211 -1.8680 -2.6358
   48CHL1  H19C 6001   5.691   6.674   9.927 -0.0775  1.0170  0.2594
   48CHL1    C1 6002   5.437   6.792   9.952 -0.1635  0.3855  0.5013
   48CHL1   H1A 6003   5.474   6.880   9.895  1.9031 -0.9854 -0.3236
   48CHL1   H1B 6004   5.327   6.795   9.958 -0.1259 -0.4439  1.8212
   48CHL1    C2 6005   5.495   6.790  10.097 -0.1022 -0.2074 -0.3976
   48CHL1   H2A 6006   5.444   6.874  10.148  1.1566  0.2119  0.1926
   48CHL1   H2B 6007   5.601   6.823  10.087 -0.6045  1.2275 -1.2493
   48CHL1   C20 6008   5.314   6.649   9.169 -0.0317 -0.5170  0.7810
   48CHL1   H20 6009   5.421   6.628   9.144 -0.5029  0.5318 -2.2320
   48CHL1   C21 6010   5.294   6.801   9.155  0.1767 -0.0052  0.1406
   48CHL1  H21A 6011   5.185   6.814   9.174  0.4192  0.1343  1.4536
   48CHL1  H21B 6012   5.320   6.846   9.057 -3.6084 -1.3167 -1.5825
   48CHL1  H21C 6013   5.340   6.863   9.234  0.9467 -1.9868  1.2883
   48CHL1   C22 6014   5.234   6.572   9.057  0.1797  0.0877 -1.0174
   48CHL1  H22A 6015   5.257   6.463   9.068  0.8551  0.4950  1.9863
   48CHL1  H22B 6016   5.123   6.579   9.068  0.4571  2.2761  0.6047
   48CHL1   C23 6017   5.262   6.619   8.912 -0.8198 -0.0904 -0.1438
   48CHL1  H23A 6018   5.270   6.729   8.900  0.2200 -0.2171 -0.6069
   48CHL1  H23B 6019   5.366   6.595   8.880 -0.3073  3.0906 -1.0369
   48CHL1   C24 6020   5.165   6.557   8.810 -0.5114 -0.4130  0.4308
   48CHL1  H24A 6021   5.062   6.575   8.847  0.8689 -0.0580  4.2595
   48CHL1  H24B 6022   5.181   6.601   8.709 -1.0310 -0.2966  0.3980
   48CHL1   C25 6023   5.155   6.400   8.783 -0.0171  0.2515  0.3054
   48CHL1   H25 6024   5.139   6.348   8.879 -0.0914  1.4468  0.9512
   48CHL1   C26 6025   5.041   6.364   8.689 -0.4948 -0.6331  0.0072
   48CHL1  H26A 6026   4.940   6.391   8.728 -0.8890  0.2664 -1.6163
   48CHL1  H26B 6027   5.058   6.419   8.595 -0.3092  0.7640  0.8408
   48CHL1  H26C 6028   5.049   6.257   8.660  0.1045 -0.6152  0.1074
   48CHL1   C27 6029   5.276   6.339   8.717 -0.1291 -0.2632 -0.5131
   48CHL1  H27A 6030   5.375   6.360   8.763 -1.4680 -0.4507  2.5326
   48CHL1  H27B 6031   5.273   6.229   8.703 -0.1869 -0.1989 -1.0087
   48CHL1  H27C 6032   5.277   6.375   8.612 -1.7336 -0.1228 -0.4879
   49CHL1    C3 6033   3.947   2.723   9.961  0.5783  0.3979 -0.7036
   49CHL1    H3 6034   4.055   2.745   9.961  1.0445 -1.6899  1.7385
   49CHL1    O3 6035   3.904   2.694  10.090 -0.0797  0.2117 -0.4466
   49CHL1   H3' 6036   3.896   2.777  10.138  0.4912 -1.3405  2.4937
   49CHL1    C4 6037   3.863   2.832   9.896 -0.5399 -0.6374  0.5303
   49CHL1   H4A 6038   3.756   2.807   9.910 -0.2177 -2.1393  0.3350
   49CHL1   H4B 6039   3.878   2.926   9.953 -0.9813 -0.2865  0.0789
   49CHL1    C5 6040   3.905   2.852   9.751  0.8664 -0.1310 -0.7854
   49CHL1    C6 6041   3.923   2.977   9.698 -0.4201 -0.7650 -0.2812
   49CHL1    H6 6042   3.903   3.058   9.770  0.0116 -0.8674 -0.0487
   49CHL1    C7 6043   3.950   3.011   9.556 -0.2381 -1.0957 -0.0431
   49CHL1   H7A 6044   3.884   3.095   9.524 -0.2690 -1.1417 -0.1011
   49CHL1   H7B 6045   4.054   3.041   9.533 -1.5321  2.7887 -1.1325
   49CHL1    C8 6046   3.926   2.888   9.474  0.4379  0.1215  0.3538
   49CHL1    H8 6047   3.815   2.878   9.478  0.4121  0.8409  2.0825
   49CHL1   C14 6048   3.982   2.903   9.329  0.5123  0.2230  0.8086
   49CHL1   H14 6049   4.093   2.905   9.328  0.5471  1.5475  3.1969
   49CHL1   C15 6050   3.936   3.027   9.247  0.4833 -0.1535 -0.1246
   49CHL1  H15A 6051   3.826   3.036   9.257  0.3366 -1.6476 -0.2360
   49CHL1  H15B 6052   3.981   3.120   9.287 -2.0892  1.0501  0.0915
   49CHL1   C16 6053   3.965   2.989   9.102  0.2330  0.0680 -0.4569
   49CHL1  H16A 6054   3.889   3.033   9.033  1.6308 -0.4213 -2.3478
   49CHL1  H16B 6055   4.055   3.046   9.072  1.3273 -1.6200 -0.4169
   49CHL1   C17 6056   3.988   2.834   9.097 -0.1725 -0.0968 -0.5885
   49CHL1   H17 6057   4.098   2.822   9.085  0.0411 -1.3083  2.2663
   49CHL1   C13 6058   3.946   2.785   9.236  0.5493 -0.3219 -0.9566
   49CHL1   C18 6059   3.798   2.748   9.227 -0.3425 -0.5085  0.5518
   49CHL1  H18A 6060   3.730   2.824   9.184 -1.2364 -0.4638  2.0420
   49CHL1  H18B 6061   3.788   2.655   9.166  1.7365  0.1407 -0.8554
   49CHL1  H18C 6062   3.762   2.732   9.330 -0.4556 -0.4071  0.5269
   49CHL1   C12 6063   4.034   2.668   9.288 -0.4868 -0.0306  0.3059
   49CHL1  H12A 6064   4.004   2.583   9.223 -1.2198 -0.2318  0.8906
   49CHL1  H12B 6065   4.139   2.695   9.264 -0.5683  1.0770  1.1367
   49CHL1   C11 6066   4.004   2.636   9.435 -0.4678 -0.5550  0.6748
   49CHL1  H11A 6067   3.907   2.582   9.432 -2.8286  3.5073  0.8277
   49CHL1  H11B 6068   4.072   2.564   9.486 -1.4990 -1.2691  1.0598
   49CHL1    C9 6069   3.990   2.765   9.538  0.2115  0.0142  0.1262
   49CHL1    H9 6070   4.094   2.796   9.561  0.1644 -0.5534  1.1630
   49CHL1   C10 6071   3.923   2.726   9.671  0.2042  0.0448 -0.0136
   49CHL1   C19 6072   3.771   2.685   9.661  0.3772  0.1232 -0.7195
   49CHL1  H19A 6073   3.725   2.631   9.746  1.2723  0.7586  0.1715
   49CHL1  H19B 6074   3.708   2.773   9.632  0.2862 -0.2147 -1.5788
   49CHL1  H19C 6075   3.756   2.604   9.586  1.8944 -1.7156  0.9215
   49CHL1    C1 6076   4.011   2.620   9.744  0.3383 -0.3059 -0.5106
   49CHL1   H1A 6077   3.989   2.525   9.689 -2.7343  0.3594 -0.5047
   49CHL1   H1B 6078   4.119   2.641   9.730  0.1675  1.3150  0.5306
   49CHL1    C2 6079   3.962   2.593   9.888 -0.2325 -0.6946 -0.0403
   49CHL1   H2A 6080   4.039   2.536   9.944  1.0370  0.7991 -0.2459
   49CHL1   H2B 6081   3.864   2.541   9.884 -1.0886  0.9833 -1.5275
   49CHL1   C20 6082   3.935   2.753   8.969 -0.3148 -0.0632 -0.0169
   49CHL1   H20 6083   3.825   2.740   8.968 -0.3400  0.0041  1.1564
   49CHL1   C21 6084   3.987   2.611   8.958  0.3084 -0.0686 -0.7271
   49CHL1  H21A 6085   4.097   2.608   8.974  0.1011 -0.9297  0.6092
   49CHL1  H21B 6086   3.955   2.572   8.859 -2.0783  0.4597 -0.2054
   49CHL1  H21C 6087   3.942   2.542   9.032  0.1355 -0.7469 -1.4511
   49CHL1   C22 6088   3.969   2.838   8.845 -0.5254  0.8615 -0.0848
   49CHL1  H22A 6089   3.930   2.941   8.859  0.2108  1.0558  0.6270
   49CHL1  H22B 6090   4.080   2.851   8.842 -0.4406  0.4832  1.0250
   49CHL1   C23 6091   3.904   2.791   8.720 -0.3295  0.0433  0.9274
   49CHL1  H23A 6092   3.942   2.693   8.682 -1.3668 -0.2408  0.5922
   49CHL1  H23B 6093   3.794   2.778   8.734 -0.5449 -0.4460 -0.9609
   49CHL1   C24 6094   3.930   2.885   8.595  0.0436  0.0690 -0.7240
   49CHL1  H24A 6095   3.903   2.990   8.620 -0.9905 -0.2243 -0.5852
   49CHL1  H24B 6096   4.040   2.882   8.584  0.2915  2.3194  0.8915
   49CHL1   C25 6097   3.873   2.829   8.461  0.2397  0.1098  0.0703
   49CHL1   H25 6098   3.888   2.719   8.468 -1.4498 -0.1469 -0.1281
   49CHL1   C26 6099   3.721   2.856   8.442  0.0191  0.2761  0.8578
   49CHL1  H26A 6100   3.683   2.960   8.441 -1.7254 -0.3590 -1.8056
   49CHL1  H26B 6101   3.685   2.815   8.346  1.0208  1.8943 -0.2336
   49CHL1  H26C 6102   3.672   2.790   8.518 -0.4799 -0.2793  0.0579
   49CHL1   C27 6103   3.961   2.888   8.350  0.1015  0.3809 -0.0573
   49CHL1  H27A 6104   3.924   2.866   8.248 -0.0915  0.6126 -0.0388
   49CHL1  H27B 6105   3.970   2.998   8.364 -0.5797  0.6384 -1.6102
   49CHL1  H27C 6106   4.064   2.848   8.358  0.7956  1.6525 -2.2822
   50CHL1    C3 6107   0.387   3.664  10.130 -1.1407  0.3765 -0.3036
   50CHL1    H3 6108   0.363   3.772  10.125  0.7091  0.7715 -1.2152
   50CHL1    O3 6109   0.383   3.624  10.264  0.6923  0.0902 -0.2716
   50CHL1   H3' 6110   0.424   3.537  10.262  2.7879  0.9848  1.4612
   50CHL1    C4 6111   0.284   3.582  10.045  0.2232  0.3057  0.4362
   50CHL1   H4A 6112   0.298   3.474  10.067 -2.0952  0.1401  1.1533
   50CHL1   H4B 6113   0.182   3.604  10.082 -0.3874 -3.1517  1.0199
   50CHL1    C5 6114   0.296   3.612   9.900 -0.1977  0.3716  0.0403
   50CHL1    C6 6115   0.191   3.667   9.834  0.5078  0.3602  0.2406
   50CHL1    H6 6116   0.092   3.676   9.882 -0.8165 -1.9670 -1.9314
   50CHL1    C7 6117   0.191   3.702   9.686  0.1732 -0.4297 -0.4593
   50CHL1   H7A 6118   0.100   3.649   9.650 -2.1815  2.1661  1.4621
   50CHL1   H7B 6119   0.172   3.811   9.672  0.9392 -0.4271 -1.5350
   50CHL1    C8 6120   0.313   3.645   9.609 -0.5095  0.0595  0.5167
   50CHL1    H8 6121   0.297   3.536   9.599  2.5238 -0.2535 -1.4778
   50CHL1   C14 6122   0.320   3.717   9.479 -0.5621  0.1102 -0.1035
   50CHL1   H14 6123   0.336   3.822   9.510 -1.2073  0.1233  0.1930
   50CHL1   C15 6124   0.194   3.738   9.393  0.1058  0.1687 -0.1775
   50CHL1  H15A 6125   0.123   3.653   9.403 -1.5159  1.7121  2.1166
   50CHL1  H15B 6126   0.138   3.830   9.423  1.1058  0.1852  1.6460
   50CHL1   C16 6127   0.252   3.765   9.254 -0.1387 -0.1888  0.7621
   50CHL1  H16A 6128   0.234   3.670   9.199  4.3407  0.0302 -1.2820
   50CHL1  H16B 6129   0.211   3.863   9.223 -3.6304 -1.7297  0.1722
   50CHL1   C17 6130   0.404   3.761   9.260  0.3386  0.1290  0.3752
   50CHL1   H17 6131   0.440   3.864   9.279  0.4929 -0.0999  1.3521
   50CHL1   C13 6132   0.431   3.675   9.385  0.1608  0.9959 -0.0624
   50CHL1   C18 6133   0.415   3.524   9.351  0.1630 -0.5447  0.2350
   50CHL1  H18A 6134   0.493   3.494   9.278  1.6663 -0.9716  1.9831
   50CHL1  H18B 6135   0.425   3.475   9.450  0.5626  1.3741  1.1799
   50CHL1  H18C 6136   0.316   3.484   9.318  1.2149 -2.5303 -0.5665
   50CHL1   C12 6137   0.569   3.698   9.473  0.4131 -0.4674 -0.0226
   50CHL1  H12A 6138   0.657   3.669   9.413 -0.0124 -1.9114  0.0484
   50CHL1  H12B 6139   0.588   3.807   9.481  0.4300 -0.5192  0.6702
   50CHL1   C11 6140   0.568   3.637   9.610 -0.0062  0.3667 -0.4466
   50CHL1  H11A 6141   0.573   3.528   9.592  1.3457  0.5125 -0.9967
   50CHL1  H11B 6142   0.651   3.667   9.678 -0.1353 -0.8072  0.2458
   50CHL1    C9 6143   0.441   3.667   9.695 -0.6346  0.5893  0.2345
   50CHL1    H9 6144   0.447   3.775   9.719 -1.3791  0.4644  1.0044
   50CHL1   C10 6145   0.433   3.596   9.835 -0.5697 -0.5874 -0.7911
   50CHL1   C19 6146   0.459   3.444   9.836  0.3067  0.4849  0.5988
   50CHL1  H19A 6147   0.563   3.418   9.867  1.2933  0.8388 -2.2834
   50CHL1  H19B 6148   0.401   3.389   9.913 -0.0570 -2.3192 -1.5974
   50CHL1  H19C 6149   0.432   3.405   9.736  3.2076 -1.2930  0.4440
   50CHL1    C1 6150   0.543   3.672   9.921  0.3088 -0.2582  0.7635
   50CHL1   H1A 6151   0.643   3.634   9.891 -0.6132 -0.4581 -2.1556
   50CHL1   H1B 6152   0.531   3.782   9.915  3.0372  0.0415  0.3849
   50CHL1    C2 6153   0.532   3.643  10.071 -0.3767  0.4822 -0.8194
   50CHL1   H2A 6154   0.605   3.705  10.128  1.2284 -1.5185 -0.6863
   50CHL1   H2B 6155   0.560   3.538  10.094  0.0815  1.2671  2.5382
   50CHL1   C20 6156   0.455   3.714   9.123 -0.0948 -0.5645 -0.1626
   50CHL1   H20 6157   0.425   3.608   9.116 -3.3425  0.2411  0.7746
   50CHL1   C21 6158   0.610   3.716   9.132  0.1808  0.5912  0.1191
   50CHL1  H21A 6159   0.647   3.643   9.207  0.2137 -0.1510 -0.6131
   50CHL1  H21B 6160   0.638   3.821   9.158 -0.4988  0.9852 -0.7341
   50CHL1  H21C 6161   0.661   3.697   9.035 -1.2921 -1.0799 -0.3453
   50CHL1   C22 6162   0.401   3.794   8.999  0.4152 -0.1509  0.2847
   50CHL1  H22A 6163   0.296   3.831   9.005  0.5649  0.1620  1.0603
   50CHL1  H22B 6164   0.454   3.891   8.998 -1.7003  1.0637  1.3314
   50CHL1   C23 6165   0.436   3.724   8.866  0.3803 -0.6040  0.6014
   50CHL1  H23A 6166   0.541   3.691   8.856  0.6739 -0.4499  2.8667
   50CHL1  H23B 6167   0.370   3.635   8.875  1.1209 -1.1837  0.3255
   50CHL1   C24 6168   0.405   3.808   8.743 -0.3253 -0.3664 -0.8038
   50CHL1  H24A 6169   0.297   3.832   8.730  0.4536  2.3855 -2.7371
   50CHL1  H24B 6170   0.459   3.905   8.754  1.4054 -1.5436  1.3650
   50CHL1   C25 6171   0.438   3.749   8.608 -0.5585 -0.2198  0.2140
   50CHL1   H25 6172   0.537   3.699   8.616  0.2031  0.4830 -3.6838
   50CHL1   C26 6173   0.335   3.653   8.551 -0.2383  0.2554 -0.9557
   50CHL1  H26A 6174   0.235   3.703   8.555  0.6384  2.0426 -0.7607
   50CHL1  H26B 6175   0.351   3.622   8.445 -1.8818 -2.7892 -0.3776
   50CHL1  H26C 6176   0.337   3.560   8.612  0.0491  0.4451 -0.6767
   50CHL1   C27 6177   0.461   3.865   8.514  0.3080  0.1134 -0.1538
   50CHL1  H27A 6178   0.500   3.830   8.416  0.9306  1.9895 -0.6074
   50CHL1  H27B 6179   0.367   3.913   8.478  0.4469 -0.8538 -1.9042
   50CHL1  H27C 6180   0.537   3.937   8.553  0.2382  0.5011 -0.7231
   51CHL1    C3 6181   1.252   6.173  10.170  0.3061  0.1432  0.3931
   51CHL1    H3 6182   1.301   6.270  10.191  1.7392 -0.4975  0.0486
   51CHL1    O3 6183   1.241   6.109  10.292  0.6542 -0.1270  0.4213
   51CHL1   H3' 6184   1.226   6.015  10.274 -1.3220  0.5404 -1.7346
   51CHL1    C4 6185   1.118   6.201  10.108  0.4023 -0.5790  0.3160
   51CHL1   H4A 6186   1.071   6.102  10.088  1.1044 -0.6713 -0.9327
   51CHL1   H4B 6187   1.055   6.261  10.177 -1.4293 -2.1516  0.0515
   51CHL1    C5 6188   1.124   6.267   9.968  0.1281  0.4045 -0.1670
   51CHL1    C6 6189   1.053   6.377   9.937  0.3366  0.0568  0.2435
   51CHL1    H6 6190   0.989   6.417  10.017  1.4529  0.8266  0.7680
   51CHL1    C7 6191   1.047   6.442   9.804 -0.0894  0.2970  0.1723
   51CHL1   H7A 6192   0.944   6.456   9.764 -0.2687 -0.5804  0.3221
   51CHL1   H7B 6193   1.094   6.541   9.823 -0.2838  0.1248  1.6107
   51CHL1    C8 6194   1.124   6.356   9.697  0.9475  0.0191 -0.2252
   51CHL1    H8 6195   1.048   6.280   9.667  0.0509  1.3455 -1.3747
   51CHL1   C14 6196   1.156   6.444   9.576 -0.5798  0.0795 -0.4108
   51CHL1   H14 6197   1.234   6.510   9.619  1.9168 -2.0358 -1.5364
   51CHL1   C15 6198   1.042   6.520   9.510  0.1666 -0.7887  0.3072
   51CHL1  H15A 6199   0.952   6.458   9.494 -0.7173  0.6821 -0.4521
   51CHL1  H15B 6200   1.018   6.613   9.566  0.5338 -1.2660  1.2814
   51CHL1   C16 6201   1.099   6.559   9.373 -0.2338 -0.3900  0.0612
   51CHL1  H16A 6202   1.039   6.506   9.296  2.8210  0.3455 -2.9119
   51CHL1  H16B 6203   1.091   6.667   9.350  0.4511 -0.2865  0.3022
   51CHL1   C17 6204   1.241   6.499   9.371 -0.2631  0.5320 -0.0597
   51CHL1   H17 6205   1.306   6.575   9.420 -0.6045 -0.2656  1.6863
   51CHL1   C13 6206   1.234   6.379   9.464 -0.2856  0.0610  0.6055
   51CHL1   C18 6207   1.158   6.249   9.409 -0.2125 -0.1995  0.2588
   51CHL1  H18A 6208   1.226   6.201   9.335 -0.7798  0.7293 -0.8728
   51CHL1  H18B 6209   1.136   6.189   9.499  2.6372 -0.5575  0.7743
   51CHL1  H18C 6210   1.065   6.280   9.357  0.0960 -1.0148 -0.8108
   51CHL1   C12 6211   1.372   6.338   9.532  0.9667  0.2623  0.9082
   51CHL1  H12A 6212   1.427   6.276   9.458  1.8874  2.1400 -0.0272
   51CHL1  H12B 6213   1.424   6.429   9.571 -0.6984  2.2696 -1.4708
   51CHL1   C11 6214   1.350   6.242   9.644  0.1336 -0.7890 -0.1377
   51CHL1  H11A 6215   1.301   6.153   9.599 -0.7241  0.5806 -1.9845
   51CHL1  H11B 6216   1.442   6.218   9.701  1.5454  4.0956 -0.1822
   51CHL1    C9 6217   1.249   6.295   9.753 -0.0954  0.3767 -0.0817
   51CHL1    H9 6218   1.308   6.378   9.799 -0.1375 -0.6362  1.8765
   51CHL1   C10 6219   1.224   6.194   9.871 -0.4868  0.2255 -0.5851
   51CHL1   C19 6220   1.158   6.068   9.815  0.1363  0.4252  0.0165
   51CHL1  H19A 6221   1.233   6.015   9.752 -0.5124  0.3727 -0.7142
   51CHL1  H19B 6222   1.114   6.000   9.891 -2.5901  0.0048 -1.8887
   51CHL1  H19C 6223   1.066   6.094   9.759 -1.2118 -2.4655  0.7976
   51CHL1    C1 6224   1.360   6.146   9.937  0.0715  0.3487  0.0838
   51CHL1   H1A 6225   1.404   6.070   9.869 -0.1082 -0.4877  0.9078
   51CHL1   H1B 6226   1.430   6.233   9.939  0.1838  0.2542  0.3313
   51CHL1    C2 6227   1.343   6.084  10.078 -0.8839  0.9705 -1.1502
   51CHL1   H2A 6228   1.435   6.061  10.136  1.3290  0.8382 -4.5245
   51CHL1   H2B 6229   1.294   5.985  10.074 -1.5319  1.2276  0.3402
   51CHL1   C20 6230   1.299   6.478   9.224  0.0376 -0.5734 -0.1571
   51CHL1   H20 6231   1.249   6.388   9.182  1.0278 -0.7572 -0.9400
   51CHL1   C21 6232   1.449   6.474   9.233  0.0486 -0.6289  0.2924
   51CHL1  H21A 6233   1.482   6.398   9.308  4.0931  1.4506  0.7533
   51CHL1  H21B 6234   1.482   6.575   9.266 -1.7939  0.3404 -0.7876
   51CHL1  H21C 6235   1.499   6.445   9.139 -0.6265 -0.3727 -0.1521
   51CHL1   C22 6236   1.255   6.586   9.123 -0.4562  0.1033  0.1408
   51CHL1  H22A 6237   1.144   6.575   9.125 -0.6172  1.6640  2.9608
   51CHL1  H22B 6238   1.283   6.688   9.158 -1.0172  0.5674 -0.7298
   51CHL1   C23 6239   1.314   6.578   8.980 -0.2473 -0.0412 -0.4441
   51CHL1  H23A 6240   1.424   6.569   8.991 -0.2617 -2.3560 -1.8216
   51CHL1  H23B 6241   1.278   6.482   8.938  0.9165 -0.3637 -0.7089
   51CHL1   C24 6242   1.277   6.691   8.885  0.7955  0.3896  0.2450
   51CHL1  H24A 6243   1.167   6.689   8.869  1.1446  0.4941 -2.3857
   51CHL1  H24B 6244   1.295   6.787   8.937 -0.7055  1.0558 -0.4253
   51CHL1   C25 6245   1.339   6.683   8.734 -0.4459 -0.6012  0.1969
   51CHL1   H25 6246   1.450   6.686   8.734 -0.4895  1.5459  0.8256
   51CHL1   C26 6247   1.296   6.555   8.659  0.0143  0.3876  0.7048
   51CHL1  H26A 6248   1.316   6.470   8.728 -0.4777 -0.6448 -0.4006
   51CHL1  H26B 6249   1.189   6.561   8.631 -0.2296  1.7095  1.9077
   51CHL1  H26C 6250   1.364   6.542   8.572 -0.9101 -1.4035  0.2329
   51CHL1   C27 6251   1.293   6.804   8.653 -0.2195 -0.2519  0.6570
   51CHL1  H27A 6252   1.192   6.794   8.607  0.6524  0.9628 -1.6164
   51CHL1  H27B 6253   1.300   6.901   8.706 -0.0533 -0.5769  1.2336
   51CHL1  H27C 6254   1.363   6.818   8.568 -0.9077  1.1246  0.3039
   52CHL1    C3 6255   4.601   5.760  10.264 -0.6859  0.1786 -0.3506
   52CHL1    H3 6256   4.518   5.826  10.230 -0.4322  1.5356  1.5923
   52CHL1    O3 6257   4.626   5.776  10.403 -0.0764  0.1913 -0.4442
   52CHL1   H3' 6258   4.714   5.738  10.409  0.5627  1.8852  1.3814
   52CHL1    C4 6259   4.557   5.611  10.240 -0.2262 -0.4538  0.1568
   52CHL1   H4A 6260   4.635   5.550  10.292 -0.3063  0.1002  0.9393
   52CHL1   H4B 6261   4.459   5.595  10.289 -1.0322  1.7401 -0.6972
   52CHL1    C5 6262   4.563   5.568  10.092 -0.4464  0.2076 -0.2478
   52CHL1    C6 6263   4.458   5.506  10.034  0.7696  0.1165 -0.2275
   52CHL1    H6 6264   4.366   5.485  10.091  0.4725  1.9295  0.0054
   52CHL1    C7 6265   4.462   5.465   9.893 -0.1483 -0.1783  0.6136
   52CHL1   H7A 6266   4.428   5.360   9.879 -0.1463  0.1502 -2.1887
   52CHL1   H7B 6267   4.385   5.528   9.842 -1.0207 -3.2928 -2.1004
   52CHL1    C8 6268   4.594   5.472   9.819  0.5863  0.0578  0.4156
   52CHL1    H8 6269   4.664   5.397   9.862  2.0104  0.0811 -1.7714
   52CHL1   C14 6270   4.578   5.455   9.668  0.2625 -0.1806  0.4022
   52CHL1   H14 6271   4.529   5.548   9.633  0.3503 -0.1074  0.4718
   52CHL1   C15 6272   4.497   5.333   9.618  0.9455  0.3187  0.4261
   52CHL1  H15A 6273   4.540   5.236   9.650  0.2429 -0.3725 -0.6840
   52CHL1  H15B 6274   4.391   5.354   9.642  0.6832 -0.3018 -0.1539
   52CHL1   C16 6275   4.522   5.342   9.467  0.3250  0.4216  0.3620
   52CHL1  H16A 6276   4.540   5.236   9.439  1.0340  0.1704  1.7296
   52CHL1  H16B 6277   4.432   5.372   9.409 -0.2536  2.5217  2.2724
   52CHL1   C17 6278   4.649   5.445   9.447 -0.4177  0.2627 -0.1504
   52CHL1   H17 6279   4.606   5.544   9.421 -2.5094 -0.1973  1.4734
   52CHL1   C13 6280   4.710   5.467   9.582  0.3895  0.1594  0.3075
   52CHL1   C18 6281   4.805   5.352   9.628  0.0223 -0.0735  0.1407
   52CHL1  H18A 6282   4.863   5.390   9.715 -2.1205 -0.4780  1.7822
   52CHL1  H18B 6283   4.745   5.262   9.650 -0.0818  0.0891  0.5300
   52CHL1  H18C 6284   4.885   5.329   9.555  0.9374  0.2859  1.0095
   52CHL1   C12 6285   4.765   5.607   9.622 -0.2527 -0.4205 -0.3338
   52CHL1  H12A 6286   4.858   5.630   9.564  0.2314  1.5963  1.1659
   52CHL1  H12B 6287   4.693   5.683   9.587 -0.6202 -1.1466 -1.1750
   52CHL1   C11 6288   4.792   5.625   9.770 -0.5329  0.5757  0.7052
   52CHL1  H11A 6289   4.875   5.563   9.810  0.2488 -0.0424 -1.7871
   52CHL1  H11B 6290   4.823   5.730   9.790 -1.2254  0.9511 -0.1362
   52CHL1    C9 6291   4.663   5.602   9.853 -0.1085  0.2081 -0.1957
   52CHL1    H9 6292   4.594   5.680   9.814  0.6444  1.4610  0.9086
   52CHL1   C10 6293   4.682   5.617  10.008  0.8381 -0.5773  0.9145
   52CHL1   C19 6294   4.810   5.540  10.056 -0.5575 -0.8126  0.0660
   52CHL1  H19A 6295   4.794   5.436  10.020 -0.9991 -0.4419 -0.8262
   52CHL1  H19B 6296   4.900   5.584  10.009 -0.8661 -0.8801 -0.5954
   52CHL1  H19C 6297   4.830   5.530  10.165  1.1898  0.4775 -0.1212
   52CHL1    C1 6298   4.714   5.768  10.042 -0.0912  0.0105  0.0935
   52CHL1   H1A 6299   4.815   5.779   9.999  0.3498 -0.4078  1.0187
   52CHL1   H1B 6300   4.648   5.839   9.986 -0.8628 -0.8109 -0.0448
   52CHL1    C2 6301   4.731   5.796  10.192 -0.8048 -0.4671 -0.2119
   52CHL1   H2A 6302   4.749   5.904  10.211  0.6861 -0.7897  0.2866
   52CHL1   H2B 6303   4.820   5.744  10.234 -1.1019 -0.0802  0.9189
   52CHL1   C20 6304   4.741   5.408   9.333  0.8838 -0.0228 -0.0109
   52CHL1   H20 6305   4.791   5.310   9.348  1.7629  0.0084 -2.4928
   52CHL1   C21 6306   4.846   5.518   9.303  0.1328 -0.6393  0.7785
   52CHL1  H21A 6307   4.790   5.609   9.273  1.8111 -0.1699 -1.0893
   52CHL1  H21B 6308   4.893   5.474   9.212 -1.4490  0.3967 -0.5529
   52CHL1  H21C 6309   4.915   5.530   9.389 -1.4734  3.1870  1.6097
   52CHL1   C22 6310   4.662   5.389   9.194 -0.1493 -0.1715 -0.0161
   52CHL1  H22A 6311   4.602   5.481   9.182 -2.6370 -1.6078  0.9596
   52CHL1  H22B 6312   4.739   5.406   9.116  2.2653  1.5235  2.6198
   52CHL1   C23 6313   4.594   5.254   9.165 -0.1773 -0.0109 -0.2995
   52CHL1  H23A 6314   4.646   5.178   9.227  1.3433  0.5181 -0.8996
   52CHL1  H23B 6315   4.492   5.252   9.210 -0.5569  1.0135 -1.0899
   52CHL1   C24 6316   4.584   5.232   9.009 -0.0124 -0.2234 -0.2320
   52CHL1  H24A 6317   4.522   5.314   8.965  1.1145  0.9502  0.3298
   52CHL1  H24B 6318   4.687   5.254   8.973  0.2803 -2.4487 -0.8013
   52CHL1   C25 6319   4.535   5.097   8.953  0.8972  0.6208 -0.5090
   52CHL1   H25 6320   4.536   5.103   8.842  2.2926  0.2186 -0.5304
   52CHL1   C26 6321   4.629   4.979   8.985 -0.6064 -0.2095  0.0004
   52CHL1  H26A 6322   4.734   5.001   8.959 -0.5630 -0.1544  0.2148
   52CHL1  H26B 6323   4.640   4.956   9.094 -0.7149 -2.9432 -0.5088
   52CHL1  H26C 6324   4.587   4.889   8.935 -0.4167  0.6551 -1.7491
   52CHL1   C27 6325   4.397   5.056   9.006  0.0013 -0.2316 -0.5862
   52CHL1  H27A 6326   4.360   4.970   8.946  0.9113 -0.1293 -1.3043
   52CHL1  H27B 6327   4.398   5.031   9.114  1.6900  3.1040  0.2221
   52CHL1  H27C 6328   4.332   5.144   8.990 -1.0509 -0.6214  1.3477
   53CHL1    C3 6329   6.053   4.429  10.053  0.3721  0.0936  0.3896
   53CHL1    H3 6330   5.977   4.349  10.038 -0.3236  1.1943 -2.1949
   53CHL1    O3 6331   6.095   4.452  10.184 -0.3995 -0.1425 -0.1585
   53CHL1   H3' 6332   6.154   4.377  10.188 -2.1190 -1.7958 -3.4042
   53CHL1    C4 6333   6.173   4.373   9.968  0.2204  0.3439 -0.6745
   53CHL1   H4A 6334   6.257   4.444   9.985  0.5734 -0.5314  1.5049
   53CHL1   H4B 6335   6.211   4.275  10.004  0.4880  0.9732  0.8263
   53CHL1    C5 6336   6.151   4.359   9.823 -0.4525  0.8022  0.1465
   53CHL1    C6 6337   6.162   4.248   9.764 -0.0177  0.4608 -0.1865
   53CHL1    H6 6338   6.185   4.159   9.824  1.3868  1.0884  0.2287
   53CHL1    C7 6339   6.146   4.231   9.615  0.0548  0.0032 -0.1951
   53CHL1   H7A 6340   6.219   4.162   9.569 -1.4459 -0.5347 -1.8106
   53CHL1   H7B 6341   6.051   4.176   9.597  0.1620 -0.4246  0.5249
   53CHL1    C8 6342   6.140   4.366   9.534  0.4183  0.1058  0.2569
   53CHL1    H8 6343   6.241   4.410   9.527 -0.2846  1.6979 -0.1954
   53CHL1   C14 6344   6.076   4.345   9.396 -0.3671  0.7360 -0.0856
   53CHL1   H14 6345   5.980   4.297   9.425  0.8015 -0.5926  1.6784
   53CHL1   C15 6346   6.140   4.240   9.302  0.4160  0.2286 -0.0622
   53CHL1  H15A 6347   6.249   4.257   9.287  0.6134 -1.8776 -1.1338
   53CHL1  H15B 6348   6.131   4.136   9.339 -1.2566 -0.4152 -2.1447
   53CHL1   C16 6349   6.071   4.266   9.170 -0.2671  0.6024  0.2064
   53CHL1  H16A 6350   6.142   4.264   9.084 -0.6390 -3.0502 -0.0898
   53CHL1  H16B 6351   6.012   4.180   9.132 -1.0989  0.8797  0.8696
   53CHL1   C17 6352   5.988   4.397   9.186  0.3323 -0.1499  0.3883
   53CHL1   H17 6353   5.884   4.366   9.212  0.6755 -1.5191  0.1545
   53CHL1   C13 6354   6.044   4.470   9.309 -0.0364 -0.3019  0.0039
   53CHL1   C18 6355   6.175   4.542   9.265 -0.3406 -0.0201 -0.0299
   53CHL1  H18A 6356   6.242   4.503   9.186  0.2187  0.0731  0.3961
   53CHL1  H18B 6357   6.135   4.638   9.226  0.0888 -0.3151 -1.2089
   53CHL1  H18C 6358   6.238   4.570   9.352  0.2596  0.2110 -0.5313
   53CHL1   C12 6359   5.943   4.550   9.394 -0.2991  0.9395 -0.0895
   53CHL1  H12A 6360   5.895   4.637   9.345 -3.5321 -0.9745 -0.4394
   53CHL1  H12B 6361   5.859   4.480   9.415 -1.8166  2.6030 -0.4470
   53CHL1   C11 6362   6.008   4.590   9.526  0.2328  0.3921  1.1328
   53CHL1  H11A 6363   6.086   4.663   9.494  1.6935 -2.3744 -1.8589
   53CHL1  H11B 6364   5.934   4.646   9.587 -1.5331 -1.8068  1.0440
   53CHL1    C9 6365   6.055   4.467   9.611  0.3627 -0.0310  0.2181
   53CHL1    H9 6366   5.959   4.411   9.619 -0.5408  1.6653  1.6103
   53CHL1   C10 6367   6.109   4.493   9.756  0.4074 -0.2954 -0.8144
   53CHL1   C19 6368   6.229   4.591   9.743 -0.1697 -0.0573 -0.5210
   53CHL1  H19A 6369   6.187   4.691   9.720  0.1846  0.3769  0.7214
   53CHL1  H19B 6370   6.289   4.581   9.836 -0.8401 -0.8554 -0.1623
   53CHL1  H19C 6371   6.293   4.579   9.653  1.1736  1.5036  0.2088
   53CHL1    C1 6372   5.990   4.552   9.840 -0.0338  0.1006 -0.0578
   53CHL1   H1A 6373   5.968   4.652   9.796 -0.4959  0.4993  1.0490
   53CHL1   H1B 6374   5.904   4.483   9.828 -0.1328 -0.1784  2.0066
   53CHL1    C2 6375   6.015   4.561   9.999  0.2007 -0.1946  0.6154
   53CHL1   H2A 6376   5.924   4.606  10.044 -0.7224 -0.1510 -1.2456
   53CHL1   H2B 6377   6.099   4.633  10.005  0.9169 -0.8872 -0.7345
   53CHL1   C20 6378   5.981   4.470   9.052  0.0918  0.9488 -0.8435
   53CHL1   H20 6379   6.085   4.503   9.030  1.0333 -2.0104 -1.0494
   53CHL1   C21 6380   5.889   4.599   9.061  0.1343  0.2207  0.4993
   53CHL1  H21A 6381   5.870   4.650   8.965  0.9434 -1.6860 -0.7019
   53CHL1  H21B 6382   5.939   4.669   9.131 -0.9683  0.5443  0.9849
   53CHL1  H21C 6383   5.790   4.574   9.105 -0.2102  1.4912  0.4536
   53CHL1   C22 6384   5.934   4.388   8.934  0.1764 -0.1192 -0.5208
   53CHL1  H22A 6385   5.956   4.279   8.938  0.3497 -0.1931 -2.8676
   53CHL1  H22B 6386   5.825   4.381   8.916  0.6322 -2.0698 -2.7378
   53CHL1   C23 6387   5.984   4.436   8.803  0.1920 -0.6905 -0.0828
   53CHL1  H23A 6388   5.933   4.531   8.774  0.9271 -0.5928 -1.0503
   53CHL1  H23B 6389   6.091   4.463   8.809  0.2946  0.0173 -3.8311
   53CHL1   C24 6390   5.967   4.329   8.697  0.5082  0.0772  0.7823
   53CHL1  H24A 6391   6.025   4.237   8.719 -1.2743 -1.0631  0.7880
   53CHL1  H24B 6392   5.860   4.301   8.699  0.5128 -0.1183 -1.0676
   53CHL1   C25 6393   5.995   4.377   8.551  0.0168 -0.4252 -0.1064
   53CHL1   H25 6394   6.103   4.403   8.543 -0.1558 -0.0480 -1.3573
   53CHL1   C26 6395   5.976   4.257   8.451  0.9144 -0.5417 -0.6484
   53CHL1  H26A 6396   6.011   4.162   8.496 -2.9341 -1.5771  0.3131
   53CHL1  H26B 6397   5.865   4.259   8.450  0.8727  1.2075  2.3716
   53CHL1  H26C 6398   6.021   4.272   8.350 -1.4466 -0.2367 -1.6978
   53CHL1   C27 6399   5.913   4.499   8.503 -0.2690  0.0179 -0.5498
   53CHL1  H27A 6400   5.804   4.481   8.514 -0.7020  1.3942 -2.3122
   53CHL1  H27B 6401   5.936   4.587   8.567  1.7120 -2.3671  2.1546
   53CHL1  H27C 6402   5.917   4.523   8.394 -1.2313 -0.4395 -0.6859
   54CHL1    C3 6403   5.606   5.971  10.190 -0.7277  1.0070 -0.2782
   54CHL1    H3 6404   5.705   5.984  10.238 -0.5658  3.2404 -1.1704
   54CHL1    O3 6405   5.522   5.937  10.300  0.0617  0.3723  0.3216
   54CHL1   H3' 6406   5.576   5.868  10.339 -1.4855 -0.5718  0.8349
   54CHL1    C4 6407   5.562   6.106  10.132  0.6140 -0.2684 -0.0220
   54CHL1   H4A 6408   5.454   6.091  10.111  0.9225 -2.1460 -0.3061
   54CHL1   H4B 6409   5.569   6.195  10.198 -1.0611  1.1729 -1.6938
   54CHL1    C5 6410   5.630   6.135   9.996  0.4934 -0.4467 -0.0173
   54CHL1    C6 6411   5.701   6.249   9.974 -0.5351 -0.9051 -0.1701
   54CHL1    H6 6412   5.698   6.334  10.044 -0.6452 -0.3084 -0.8811
   54CHL1    C7 6413   5.770   6.290   9.839  0.2168  0.6718 -0.4980
   54CHL1   H7A 6414   5.734   6.394   9.823 -0.8026  0.5075  0.6926
   54CHL1   H7B 6415   5.881   6.295   9.838  0.2726 -0.5693 -1.2889
   54CHL1    C8 6416   5.732   6.195   9.726 -0.2569 -0.1925  0.1291
   54CHL1    H8 6417   5.629   6.232   9.708  0.5601  1.1653 -1.8979
   54CHL1   C14 6418   5.834   6.224   9.621  0.0293 -0.8260  0.0776
   54CHL1   H14 6419   5.925   6.172   9.659  0.3926 -0.5046 -0.3453
   54CHL1   C15 6420   5.875   6.372   9.586 -0.4563 -0.0036 -0.0129
   54CHL1  H15A 6421   5.782   6.432   9.584 -0.8204 -0.4489  2.2908
   54CHL1  H15B 6422   5.941   6.414   9.665  1.1829 -0.3921 -1.1307
   54CHL1   C16 6423   5.931   6.356   9.439  0.2971  0.1584 -0.2988
   54CHL1  H16A 6424   5.869   6.417   9.370  0.2066 -0.3840 -0.7044
   54CHL1  H16B 6425   6.034   6.398   9.432 -1.0393  3.5257 -0.8092
   54CHL1   C17 6426   5.913   6.208   9.406 -0.1321 -0.2929 -0.1640
   54CHL1   H17 6427   6.005   6.156   9.441 -0.8454 -1.3833  0.0945
   54CHL1   C13 6428   5.802   6.152   9.489  0.0577  0.5429  0.2146
   54CHL1   C18 6429   5.665   6.210   9.444 -0.9151 -0.7672  0.0653
   54CHL1  H18A 6430   5.653   6.242   9.339 -0.3406 -3.3229 -0.8145
   54CHL1  H18B 6431   5.582   6.139   9.465 -0.9328 -1.1903 -1.3773
   54CHL1  H18C 6432   5.627   6.295   9.505 -2.3379  0.2088 -2.1475
   54CHL1   C12 6433   5.804   6.005   9.530  0.0950  0.7874 -0.6111
   54CHL1  H12A 6434   5.785   5.935   9.445  1.4856 -1.5951  1.0021
   54CHL1  H12B 6435   5.904   5.993   9.576 -0.0214 -2.0259 -1.0128
   54CHL1   C11 6436   5.710   5.960   9.649 -0.1398  0.3367 -0.7324
   54CHL1  H11A 6437   5.615   5.974   9.594  0.3502 -0.1251 -1.7085
   54CHL1  H11B 6438   5.729   5.851   9.659 -2.0968 -0.1400 -1.8301
   54CHL1    C9 6439   5.729   6.051   9.772  0.0870 -0.0250  0.6029
   54CHL1    H9 6440   5.833   6.021   9.797  0.9190  2.4219  0.2195
   54CHL1   C10 6441   5.637   6.022   9.892  0.5731 -0.7132  0.6294
   54CHL1   C19 6442   5.493   6.010   9.833 -0.1624 -0.0431 -0.3349
   54CHL1  H19A 6443   5.417   6.002   9.914  0.1379 -1.7445 -0.2026
   54CHL1  H19B 6444   5.467   6.096   9.769  0.0820  1.1446  1.1230
   54CHL1  H19C 6445   5.486   5.918   9.771  0.3709 -0.0894 -0.3260
   54CHL1    C1 6446   5.680   5.889   9.963 -0.3148  0.0579 -0.0255
   54CHL1   H1A 6447   5.665   5.806   9.891 -0.8292  1.0331 -1.0574
   54CHL1   H1B 6448   5.791   5.888   9.973 -0.3144 -1.9281  0.0582
   54CHL1    C2 6449   5.596   5.859  10.088  0.0551 -0.2228 -0.1126
   54CHL1   H2A 6450   5.636   5.765  10.132  0.3604 -0.7304 -1.4603
   54CHL1   H2B 6451   5.491   5.840  10.059  0.6335  0.9053 -3.1544
   54CHL1   C20 6452   5.907   6.178   9.259  0.6749  0.3449  0.5304
   54CHL1   H20 6453   5.829   6.248   9.223  1.0932  0.3656 -0.3578
   54CHL1   C21 6454   5.855   6.035   9.216  0.6726  0.3394  0.3616
   54CHL1  H21A 6455   5.746   6.029   9.239  0.0532  0.2998 -2.4963
   54CHL1  H21B 6456   5.916   5.953   9.260 -1.1618 -1.5025 -0.4164
   54CHL1  H21C 6457   5.862   6.020   9.107 -1.3515  0.1897  0.2394
   54CHL1   C22 6458   6.037   6.214   9.189  0.5190 -0.2096  0.0047
   54CHL1  H22A 6459   6.058   6.321   9.212 -1.5428  0.0107  1.0164
   54CHL1  H22B 6460   6.118   6.145   9.221  1.3603  0.8145  0.1020
   54CHL1   C23 6461   6.037   6.200   9.039 -0.5900 -0.6262  0.5621
   54CHL1  H23A 6462   6.020   6.097   9.001 -1.7738 -0.0307 -0.5625
   54CHL1  H23B 6463   5.956   6.265   8.999 -0.2391  0.4758  1.6217
   54CHL1   C24 6464   6.171   6.251   8.982  0.3568  0.1221  0.7262
   54CHL1  H24A 6465   6.179   6.353   9.024 -1.8841  0.4500  0.4272
   54CHL1  H24B 6466   6.247   6.183   9.027  0.7165 -1.0956 -1.6592
   54CHL1   C25 6467   6.184   6.258   8.835  0.3637  0.6588  0.3113
   54CHL1   H25 6468   6.172   6.154   8.799 -0.5308  0.2516  1.7275
   54CHL1   C26 6469   6.083   6.354   8.769 -0.6606  0.0814  0.4524
   54CHL1  H26A 6470   6.096   6.344   8.659  1.4555 -1.3965  0.7902
   54CHL1  H26B 6471   5.982   6.319   8.798 -0.4983 -0.3860  0.4608
   54CHL1  H26C 6472   6.106   6.455   8.810  0.9283  0.4639 -1.3134
   54CHL1   C27 6473   6.331   6.304   8.793 -0.2943 -0.3968 -0.4269
   54CHL1  H27A 6474   6.398   6.228   8.838  1.2866  1.2226  0.0220
   54CHL1  H27B 6475   6.345   6.302   8.683  2.0500  1.1031 -0.2003
   54CHL1  H27C 6476   6.345   6.409   8.828  1.5573 -0.6455 -0.3718
   55CHL1    C3 6477   6.724   3.164  10.034 -0.0049 -0.0940  0.1884
   55CHL1    H3 6478   6.623   3.119  10.039 -0.2618  0.4906  0.3146
   55CHL1    O3 6479   6.788   3.164  10.167 -0.1082  0.5028 -0.2725
   55CHL1   H3' 6480   6.822   3.074  10.175  0.7159  1.0053  1.9498
   55CHL1    C4 6481   6.819   3.084   9.938  0.0208 -0.1648 -0.0574
   55CHL1   H4A 6482   6.919   3.125   9.965 -0.3722 -0.4890  1.9397
   55CHL1   H4B 6483   6.812   2.979   9.972 -0.6333 -0.3232 -0.6691
   55CHL1    C5 6484   6.792   3.105   9.790 -0.2028  0.3412 -0.0343
   55CHL1    C6 6485   6.775   2.997   9.706  0.0023 -0.7595  0.0248
   55CHL1    H6 6486   6.775   2.897   9.750  0.1900 -2.2100 -3.1768
   55CHL1    C7 6487   6.745   3.010   9.561  0.0341  0.5259 -0.2400
   55CHL1   H7A 6488   6.801   2.948   9.488 -1.3614 -2.4863  1.1607
   55CHL1   H7B 6489   6.636   2.994   9.541 -0.0646  2.1237 -1.0836
   55CHL1    C8 6490   6.784   3.156   9.514  0.0952  0.2186  0.4265
   55CHL1    H8 6491   6.895   3.162   9.514  0.0625  0.9306  0.2875
   55CHL1   C14 6492   6.744   3.179   9.367 -0.2862  0.4333  0.0546
   55CHL1   H14 6493   6.633   3.184   9.372 -0.1116  4.2090  1.2896
   55CHL1   C15 6494   6.788   3.076   9.263 -0.1974 -0.3285  0.2493
   55CHL1  H15A 6495   6.896   3.061   9.284 -0.5109 -1.7543  0.8410
   55CHL1  H15B 6496   6.723   2.986   9.266  0.4968 -0.7956  2.9787
   55CHL1   C16 6497   6.779   3.152   9.124  0.2919  1.0652  0.5456
   55CHL1  H16A 6498   6.875   3.143   9.068 -1.1290 -1.8081 -1.5508
   55CHL1  H16B 6499   6.694   3.104   9.071  1.3632 -0.1461 -0.1104
   55CHL1   C17 6500   6.737   3.300   9.162  0.0315 -0.8950 -0.3478
   55CHL1   H17 6501   6.627   3.292   9.155  0.0853 -2.1048  0.0714
   55CHL1   C13 6502   6.779   3.319   9.313  0.4635 -0.2393 -0.0275
   55CHL1   C18 6503   6.930   3.346   9.317 -0.0070  0.0446 -1.0374
   55CHL1  H18A 6504   6.976   3.323   9.416 -1.2976  0.4323 -0.3240
   55CHL1  H18B 6505   6.983   3.281   9.245 -0.1712  0.5578 -1.6267
   55CHL1  H18C 6506   6.952   3.451   9.289  1.2087  0.1228  0.1325
   55CHL1   C12 6507   6.696   3.422   9.390 -0.3312 -0.3746 -0.3325
   55CHL1  H12A 6508   6.717   3.528   9.363  0.8386 -0.6588 -0.5730
   55CHL1  H12B 6509   6.587   3.423   9.370 -0.6066 -2.2143  0.9705
   55CHL1   C11 6510   6.716   3.407   9.541  0.4430 -0.3407  0.6236
   55CHL1  H11A 6511   6.804   3.472   9.562 -0.2475  0.8941 -0.3105
   55CHL1  H11B 6512   6.637   3.466   9.592  2.4529  1.4665  1.7334
   55CHL1    C9 6513   6.718   3.264   9.601 -0.0949  0.4241 -0.0886
   55CHL1    H9 6514   6.609   3.239   9.607 -0.0488 -0.0882 -1.3872
   55CHL1   C10 6515   6.773   3.245   9.742 -0.1277  0.0411  0.0444
   55CHL1   C19 6516   6.921   3.297   9.749 -0.5002 -0.8628 -0.0664
   55CHL1  H19A 6517   6.994   3.243   9.686 -0.1796 -1.2607  0.6395
   55CHL1  H19B 6518   6.927   3.407   9.730  1.9973 -1.2747 -1.7906
   55CHL1  H19C 6519   6.966   3.289   9.850  1.4263 -2.3552 -1.0330
   55CHL1    C1 6520   6.672   3.325   9.834 -1.0053  0.2271  0.0712
   55CHL1   H1A 6521   6.682   3.430   9.798  2.3612 -0.0762 -0.0461
   55CHL1   H1B 6522   6.572   3.282   9.814  0.2206 -2.2494 -0.9692
   55CHL1    C2 6523   6.702   3.310   9.989 -0.2174 -0.0044  0.8404
   55CHL1   H2A 6524   6.626   3.370  10.042 -0.7179 -0.6223  0.8328
   55CHL1   H2B 6525   6.802   3.356  10.007  0.1126 -0.9472  1.4650
   55CHL1   C20 6526   6.792   3.398   9.059  0.5584  0.6620 -0.0773
   55CHL1   H20 6527   6.902   3.382   9.061  0.4460 -0.1889 -0.3545
   55CHL1   C21 6528   6.750   3.542   9.103  0.6215 -0.0922 -0.2454
   55CHL1  H21A 6529   6.640   3.560   9.103  0.5765 -0.2912  1.7727
   55CHL1  H21B 6530   6.790   3.611   9.025  1.7039 -0.8172 -0.3441
   55CHL1  H21C 6531   6.802   3.564   9.198  1.0902 -0.5011 -0.4069
   55CHL1   C22 6532   6.753   3.375   8.909 -0.0460  0.2360  0.2275
   55CHL1  H22A 6533   6.735   3.269   8.882 -1.5574  0.6913 -0.6100
   55CHL1  H22B 6534   6.656   3.427   8.896 -1.2785 -1.7592  1.2589
   55CHL1   C23 6535   6.855   3.426   8.805  0.5408  0.0524 -0.2123
   55CHL1  H23A 6536   6.843   3.536   8.807 -1.6478 -0.1348 -1.7345
   55CHL1  H23B 6537   6.959   3.403   8.836 -0.3320 -2.6181  0.9913
   55CHL1   C24 6538   6.826   3.369   8.665  0.0513  0.7399  0.7907
   55CHL1  H24A 6539   6.898   3.412   8.591  1.4168 -0.9643  1.0955
   55CHL1  H24B 6540   6.836   3.259   8.669 -1.2026  0.3705 -3.9368
   55CHL1   C25 6541   6.680   3.397   8.609 -0.0725  0.1929 -0.5335
   55CHL1   H25 6542   6.599   3.363   8.677  0.1063 -2.1825 -1.4782
   55CHL1   C26 6543   6.680   3.548   8.577  0.5557  0.2432 -0.1031
   55CHL1  H26A 6544   6.698   3.616   8.663 -0.7602 -0.1601  0.5139
   55CHL1  H26B 6545   6.752   3.567   8.494  1.0561 -3.1142 -0.4964
   55CHL1  H26C 6546   6.577   3.576   8.546 -0.6823 -0.4737  3.1970
   55CHL1   C27 6547   6.652   3.311   8.481 -0.9367 -0.7291 -0.0735
   55CHL1  H27A 6548   6.739   3.329   8.414  0.9952 -0.9179  2.2706
   55CHL1  H27B 6549   6.630   3.205   8.506 -1.5373 -0.4034  0.8048
   55CHL1  H27C 6550   6.558   3.356   8.444 -0.4912 -1.9351 -2.7188
   56CHL1    C3 6551   4.337   2.198  10.004  0.6023 -0.1694 -0.1174
   56CHL1    H3 6552   4.446   2.185   9.986  0.3981 -0.8088 -0.9297
   56CHL1    O3 6553   4.326   2.214  10.146  0.2005 -0.1826  1.1549
   56CHL1   H3' 6554   4.230   2.207  10.156 -0.0763 -1.4798 -1.7390
   56CHL1    C4 6555   4.298   2.331   9.931 -0.2028  0.0958  0.4194
   56CHL1   H4A 6556   4.197   2.371   9.957 -0.1670  0.3548  0.1657
   56CHL1   H4B 6557   4.370   2.409   9.966  1.1801 -2.1216  2.6314
   56CHL1    C5 6558   4.299   2.319   9.780 -0.3619  0.1756  0.1447
   56CHL1    C6 6559   4.385   2.387   9.704 -0.0326 -0.0334  0.2743
   56CHL1    H6 6560   4.455   2.457   9.751  2.7768 -1.5627 -1.4930
   56CHL1    C7 6561   4.393   2.373   9.552 -0.1519 -0.2945 -0.0053
   56CHL1   H7A 6562   4.409   2.466   9.494  4.2307 -1.2405 -0.4824
   56CHL1   H7B 6563   4.481   2.311   9.525  1.4256  1.3731  1.1707
   56CHL1    C8 6564   4.272   2.310   9.493  0.2503  0.3088 -0.2301
   56CHL1    H8 6565   4.180   2.369   9.510 -0.0245 -0.3842  0.6904
   56CHL1   C14 6566   4.295   2.281   9.345  0.5260 -0.6359 -0.1335
   56CHL1   H14 6567   4.383   2.213   9.334  0.0630 -1.1079 -0.9561
   56CHL1   C15 6568   4.331   2.398   9.244  0.2480 -0.0784 -0.7600
   56CHL1  H15A 6569   4.280   2.494   9.266 -0.6647 -1.0109  1.2822
   56CHL1  H15B 6570   4.439   2.421   9.258 -0.2352  0.4088  2.5677
   56CHL1   C16 6571   4.291   2.345   9.109  0.2244 -0.5336 -0.0937
   56CHL1  H16A 6572   4.230   2.417   9.051 -0.9215 -0.2447  1.4466
   56CHL1  H16B 6573   4.386   2.320   9.056 -0.0540 -2.5496  0.3179
   56CHL1   C17 6574   4.215   2.211   9.134 -0.3013 -0.4693 -0.0422
   56CHL1   H17 6575   4.292   2.131   9.128 -0.3452 -0.5458  0.3621
   56CHL1   C13 6576   4.174   2.205   9.283 -0.2777  0.0290 -0.8885
   56CHL1   C18 6577   4.043   2.292   9.290 -0.2920  0.5882 -0.1722
   56CHL1  H18A 6578   4.033   2.360   9.378 -1.6528  0.7720 -0.4587
   56CHL1  H18B 6579   4.039   2.363   9.205  1.2962  1.0344  0.1133
   56CHL1  H18C 6580   3.957   2.223   9.295  1.1627 -1.2629 -0.2999
   56CHL1   C12 6581   4.161   2.073   9.357  0.1454 -0.0117  0.7464
   56CHL1  H12A 6582   4.070   2.022   9.319 -1.5031  3.0898  0.3459
   56CHL1  H12B 6583   4.257   2.019   9.346  2.2697  4.0897 -2.3225
   56CHL1   C11 6584   4.139   2.097   9.505  0.1588 -0.2642 -0.2909
   56CHL1  H11A 6585   4.050   2.163   9.515 -0.0967 -0.7287  0.5857
   56CHL1  H11B 6586   4.130   2.011   9.574  1.5836  1.7255  2.5156
   56CHL1    C9 6587   4.245   2.179   9.573 -0.3018  0.0867  0.4017
   56CHL1    H9 6588   4.346   2.131   9.571 -1.1726 -1.7904  0.6647
   56CHL1   C10 6589   4.221   2.205   9.723  0.8865  0.2985 -0.2129
   56CHL1   C19 6590   4.070   2.223   9.744  0.1743  0.1231 -0.0333
   56CHL1  H19A 6591   4.045   2.271   9.841  0.4444 -0.7656  0.4794
   56CHL1  H19B 6592   4.033   2.309   9.683 -2.5128 -1.3361 -0.5212
   56CHL1  H19C 6593   4.004   2.134   9.735  0.4767  0.0500 -1.7398
   56CHL1    C1 6594   4.264   2.070   9.801 -0.0888 -0.6497 -0.4291
   56CHL1   H1A 6595   4.201   1.982   9.776 -1.7304  0.9192 -1.9158
   56CHL1   H1B 6596   4.370   2.055   9.772  0.0401  0.1560 -0.3653
   56CHL1    C2 6597   4.258   2.081   9.957 -0.5761  0.1939 -0.2499
   56CHL1   H2A 6598   4.291   1.981   9.991  1.3130 -0.0586 -2.6644
   56CHL1   H2B 6599   4.154   2.079   9.995  0.0361  1.0529  1.4894
   56CHL1   C20 6600   4.119   2.167   9.022  0.4617 -0.0354  0.4718
   56CHL1   H20 6601   4.037   2.243   9.025  0.9907  0.5824 -0.4790
   56CHL1   C21 6602   4.064   2.021   9.033  0.2120  0.0675  0.2238
   56CHL1  H21A 6603   4.148   1.949   9.045  2.9732  3.0761 -0.3820
   56CHL1  H21B 6604   4.019   1.990   8.936  1.0981 -2.0824  0.4648
   56CHL1  H21C 6605   3.994   2.004   9.117  0.9116 -1.5533  0.4890
   56CHL1   C22 6606   4.180   2.188   8.879 -0.3338  1.0873  0.0482
   56CHL1  H22A 6607   4.106   2.144   8.809  0.8697  0.8043 -1.0493
   56CHL1  H22B 6608   4.175   2.295   8.852 -1.7322  0.5592 -1.8605
   56CHL1   C23 6609   4.312   2.115   8.862 -0.2919  0.1402  0.4846
   56CHL1  H23A 6610   4.399   2.162   8.912  2.1782 -2.5109 -1.1189
   56CHL1  H23B 6611   4.302   2.007   8.885 -3.4797  0.0129 -1.1554
   56CHL1   C24 6612   4.343   2.116   8.704  0.0532 -0.1454 -0.1805
   56CHL1  H24A 6613   4.252   2.078   8.652 -0.7042 -0.4871  1.3804
   56CHL1  H24B 6614   4.349   2.224   8.679 -3.0551  0.0683 -0.1198
   56CHL1   C25 6615   4.460   2.039   8.656 -0.0372 -0.6370 -0.0516
   56CHL1   H25 6616   4.445   1.931   8.682 -1.0403 -0.8765 -1.5713
   56CHL1   C26 6617   4.445   2.041   8.509  0.1941  0.1671 -0.5696
   56CHL1  H26A 6618   4.527   1.995   8.450  1.4799  1.6043  0.0602
   56CHL1  H26B 6619   4.354   1.987   8.473  0.7772 -1.0230 -0.2616
   56CHL1  H26C 6620   4.429   2.147   8.478 -2.3738 -0.5125 -1.7658
   56CHL1   C27 6621   4.594   2.102   8.687 -0.5456  0.0579 -0.0765
   56CHL1  H27A 6622   4.610   2.106   8.797 -2.8570 -1.0736  0.3446
   56CHL1  H27B 6623   4.680   2.049   8.641 -1.8054 -0.2853 -2.1276
   56CHL1  H27C 6624   4.590   2.208   8.653 -0.6273 -0.1258 -0.6425
   57CHL1    C3 6625   0.315   4.195  10.223 -0.2760  0.5413  0.2178
   57CHL1    H3 6626   0.407   4.257  10.233 -0.0502  0.0766  1.0044
   57CHL1    O3 6627   0.262   4.168  10.352  0.2028  0.1453 -0.5325
   57CHL1   H3' 6628   0.263   4.072  10.360  1.4483  0.3090  1.4282
   57CHL1    C4 6629   0.199   4.269  10.149  0.3789  0.1468  0.9673
   57CHL1   H4A 6630   0.116   4.196  10.146  1.2331 -0.9514  3.0860
   57CHL1   H4B 6631   0.158   4.356  10.204 -1.3208 -0.2313  0.3143
   57CHL1    C5 6632   0.237   4.297  10.003 -0.4886 -0.4212  1.0135
   57CHL1    C6 6633   0.213   4.418   9.944 -0.7732 -0.6221 -0.3235
   57CHL1    H6 6634   0.171   4.506   9.995  1.1495 -0.2712  0.7109
   57CHL1    C7 6635   0.233   4.453   9.797 -0.4004  0.4099 -0.8156
   57CHL1   H7A 6636   0.145   4.515   9.769  0.2427  1.8488  0.2421
   57CHL1   H7B 6637   0.328   4.508   9.775 -2.0764  2.9360 -2.0028
   57CHL1    C8 6638   0.244   4.319   9.719  0.9416  0.1110  0.4484
   57CHL1    H8 6639   0.143   4.274   9.706  1.1641 -0.3957  0.4429
   57CHL1   C14 6640   0.294   4.353   9.575  0.0679  0.5621  0.4303
   57CHL1   H14 6641   0.389   4.409   9.592  0.7678  0.2396 -2.2013
   57CHL1   C15 6642   0.208   4.453   9.490  0.4607  0.3057  0.0665
   57CHL1  H15A 6643   0.101   4.423   9.498 -0.4582  2.6022 -2.7096
   57CHL1  H15B 6644   0.222   4.559   9.521 -0.6092  0.5286 -0.1808
   57CHL1   C16 6645   0.266   4.435   9.346 -0.0995  0.6670 -0.0047
   57CHL1  H16A 6646   0.181   4.412   9.278  0.3324  0.0931 -0.3516
   57CHL1  H16B 6647   0.299   4.537   9.316 -3.2387  1.8804  0.4492
   57CHL1   C17 6648   0.367   4.317   9.357  0.0537 -0.5115 -0.2651
   57CHL1   H17 6649   0.467   4.361   9.374 -1.1818  2.8884 -1.3030
   57CHL1   C13 6650   0.326   4.238   9.484  0.2325 -0.0318 -0.2211
   57CHL1   C18 6651   0.205   4.154   9.460  0.8317 -0.0847 -0.3770
   57CHL1  H18A 6652   0.234   4.058   9.413 -0.6505 -0.2982 -0.8964
   57CHL1  H18B 6653   0.169   4.124   9.561 -1.7879  0.2884 -1.1615
   57CHL1  H18C 6654   0.139   4.220   9.400 -0.5834  0.4896  1.7502
   57CHL1   C12 6655   0.434   4.157   9.557  0.3443  0.6010  0.5717
   57CHL1  H12A 6656   0.460   4.062   9.504 -1.0264  0.3794  0.2881
   57CHL1  H12B 6657   0.527   4.217   9.567  0.4156  0.2866  1.8692
   57CHL1   C11 6658   0.393   4.105   9.698  0.3175 -0.1335 -0.4110
   57CHL1  H11A 6659   0.310   4.033   9.682 -0.1528  0.4093 -0.4078
   57CHL1  H11B 6660   0.472   4.053   9.757  0.4741  0.6074  0.0402
   57CHL1    C9 6661   0.336   4.221   9.787 -0.5507  0.1891  0.2122
   57CHL1    H9 6662   0.429   4.278   9.808  0.2268 -0.6351 -0.8641
   57CHL1   C10 6663   0.280   4.171   9.927  0.7475  0.0416 -0.6940
   57CHL1   C19 6664   0.165   4.075   9.900 -0.1173  0.4412  0.4457
   57CHL1  H19A 6665   0.083   4.119   9.840  1.1090  1.2455 -0.6646
   57CHL1  H19B 6666   0.200   3.981   9.854 -2.4533  0.2144 -0.8843
   57CHL1  H19C 6667   0.114   4.044   9.994 -2.7457 -0.0763 -1.1204
   57CHL1    C1 6668   0.389   4.092  10.001  0.3405  0.1593  0.3387
   57CHL1   H1A 6669   0.415   3.992   9.960 -0.6170 -0.4647  1.2321
   57CHL1   H1B 6670   0.480   4.156  10.008  0.1006  0.8193 -2.0155
   57CHL1    C2 6671   0.352   4.066  10.152 -0.7157  0.3581  0.3186
   57CHL1   H2A 6672   0.443   4.030  10.205 -0.5091  1.8575  0.9993
   57CHL1   H2B 6673   0.275   3.987  10.149  1.2205 -1.7297  3.1497
   57CHL1   C20 6674   0.383   4.236   9.228 -0.6269 -0.3506  1.0682
   57CHL1   H20 6675   0.307   4.155   9.231 -0.3434 -0.5970  1.7598
   57CHL1   C21 6676   0.526   4.173   9.234  0.3467  0.0337  0.1939
   57CHL1  H21A 6677   0.604   4.251   9.221 -0.1635  0.8681  1.9276
   57CHL1  H21B 6678   0.544   4.102   9.150 -1.8682  0.9286 -1.0704
   57CHL1  H21C 6679   0.546   4.119   9.330 -1.8478 -1.7568 -0.3071
   57CHL1   C22 6680   0.370   4.318   9.097 -0.3611 -0.1905 -1.0670
   57CHL1  H22A 6681   0.262   4.344   9.092  0.4072  3.0293 -2.3459
   57CHL1  H22B 6682   0.420   4.416   9.112 -0.0708  0.0915 -3.7620
   57CHL1   C23 6683   0.410   4.248   8.967 -0.6366  0.4153 -0.3470
   57CHL1  H23A 6684   0.520   4.259   8.960 -0.4566 -1.2057 -0.2363
   57CHL1  H23B 6685   0.388   4.140   8.982 -3.4983  0.8474 -1.1658
   57CHL1   C24 6686   0.333   4.301   8.847 -0.0874 -0.5445 -0.6612
   57CHL1  H24A 6687   0.226   4.279   8.869  0.4011 -1.7298  0.6746
   57CHL1  H24B 6688   0.341   4.411   8.852  0.3869 -0.5597 -1.0249
   57CHL1   C25 6689   0.381   4.231   8.718  0.2619 -0.3077  0.8394
   57CHL1   H25 6690   0.381   4.121   8.733  0.5463 -0.2751  1.0804
   57CHL1   C26 6691   0.284   4.263   8.607  0.3994  0.1903 -0.8389
   57CHL1  H26A 6692   0.179   4.267   8.643  0.1445  1.4994 -1.7041
   57CHL1  H26B 6693   0.304   4.360   8.557  1.3042  1.3427  1.6698
   57CHL1  H26C 6694   0.297   4.190   8.524  0.0049 -1.6500  0.6677
   57CHL1   C27 6695   0.521   4.280   8.675  0.0527  0.3282  0.1952
   57CHL1  H27A 6696   0.541   4.231   8.578 -0.0373  2.9575 -1.2010
   57CHL1  H27B 6697   0.526   4.391   8.666  1.3140  0.3278  0.7377
   57CHL1  H27C 6698   0.613   4.249   8.728  1.1522  2.4952 -0.3833
   58CHL1    C3 6699   2.695   3.085  10.218 -0.1687 -0.1967 -0.3969
   58CHL1    H3 6700   2.694   3.178  10.158  2.3695 -0.7149 -1.2847
   58CHL1    O3 6701   2.705   3.115  10.357  0.1349 -0.4220  0.0059
   58CHL1   H3' 6702   2.730   3.208  10.354 -0.4164 -0.2467  0.8379
   58CHL1    C4 6703   2.574   2.997  10.194 -0.3439  0.2147  0.0989
   58CHL1   H4A 6704   2.589   2.903  10.250  2.4803 -1.3533 -3.1354
   58CHL1   H4B 6705   2.490   3.055  10.238 -0.2274  0.3501  0.1458
   58CHL1    C5 6706   2.553   2.975  10.049 -0.9536 -0.1088 -0.5162
   58CHL1    C6 6707   2.448   3.024   9.985 -0.0732 -0.2934  0.0018
   58CHL1    H6 6708   2.367   3.075  10.039  0.7002  1.7743 -0.7466
   58CHL1    C7 6709   2.432   3.018   9.834 -0.0177  0.0589 -0.7683
   58CHL1   H7A 6710   2.326   3.001   9.807 -0.3014 -0.2839  0.5413
   58CHL1   H7B 6711   2.457   3.115   9.787  0.4198 -1.2768 -3.3980
   58CHL1    C8 6712   2.525   2.905   9.777  0.5988 -0.2120  0.2216
   58CHL1    H8 6713   2.487   2.808   9.815  0.3125 -0.3951 -0.5221
   58CHL1   C14 6714   2.522   2.909   9.624 -0.2493  0.1317 -0.1609
   58CHL1   H14 6715   2.559   3.008   9.590 -0.4382  1.2162  2.6748
   58CHL1   C15 6716   2.384   2.903   9.556 -0.9426  0.4489  0.3717
   58CHL1  H15A 6717   2.319   2.821   9.593 -1.1198 -0.2579 -1.4620
   58CHL1  H15B 6718   2.328   2.999   9.561 -0.9000  0.5546 -1.0530
   58CHL1   C16 6719   2.409   2.884   9.407 -0.4451 -0.4758  0.0494
   58CHL1  H16A 6720   2.352   2.791   9.382  1.8204 -2.6610  2.7017
   58CHL1  H16B 6721   2.394   2.973   9.342  1.3866  0.6686  1.1568
   58CHL1   C17 6722   2.560   2.846   9.400  0.0559  0.3976 -0.5612
   58CHL1   H17 6723   2.607   2.946   9.383  2.7003 -1.1197 -2.7235
   58CHL1   C13 6724   2.604   2.810   9.547 -0.2825  0.3108  0.1335
   58CHL1   C18 6725   2.562   2.670   9.581  0.5011  0.0627 -0.2537
   58CHL1  H18A 6726   2.462   2.634   9.549  1.7339 -3.2889 -0.5194
   58CHL1  H18B 6727   2.640   2.608   9.531 -0.6432  0.3018 -2.4056
   58CHL1  H18C 6728   2.557   2.653   9.691  0.1143 -2.3162 -0.6126
   58CHL1   C12 6729   2.748   2.828   9.591  0.3167 -1.1441  0.5147
   58CHL1  H12A 6730   2.810   2.745   9.552  0.9608 -0.0152 -0.9336
   58CHL1  H12B 6731   2.792   2.922   9.551 -2.5862  0.7002  1.4669
   58CHL1   C11 6732   2.758   2.824   9.749 -0.4276 -0.9239  0.5258
   58CHL1  H11A 6733   2.742   2.716   9.770  0.8821 -1.7173 -2.3592
   58CHL1  H11B 6734   2.861   2.844   9.787 -0.1520 -1.4689  0.0694
   58CHL1    C9 6735   2.665   2.914   9.823  0.1781 -0.0488 -0.3083
   58CHL1    H9 6736   2.690   3.020   9.804  0.2489 -0.1414 -0.7398
   58CHL1   C10 6737   2.678   2.907   9.973  0.5160 -0.1845 -0.1939
   58CHL1   C19 6738   2.681   2.760  10.022 -0.2324  0.1481  0.0829
   58CHL1  H19A 6739   2.781   2.718   9.999  0.5764  0.8277  2.1575
   58CHL1  H19B 6740   2.671   2.737  10.131 -0.5143 -1.7380 -0.3260
   58CHL1  H19C 6741   2.594   2.711   9.974 -0.8633 -0.3247  1.6819
   58CHL1    C1 6742   2.806   2.975  10.016 -0.4545 -0.4126 -0.7584
   58CHL1   H1A 6743   2.894   2.916   9.981 -0.7092 -0.8691 -0.6278
   58CHL1   H1B 6744   2.812   3.076   9.968  4.3987 -0.4040 -0.3670
   58CHL1    C2 6745   2.820   3.006  10.169  0.5825 -0.5289 -0.2198
   58CHL1   H2A 6746   2.911   3.070  10.175 -0.3867  0.9960 -1.3342
   58CHL1   H2B 6747   2.839   2.917  10.232 -0.3363 -0.4826  0.1254
   58CHL1   C20 6748   2.604   2.753   9.284 -0.0727  0.8145 -0.0429
   58CHL1   H20 6749   2.571   2.652   9.315  0.9438  0.4433 -0.1813
   58CHL1   C21 6750   2.759   2.754   9.264  0.3699 -0.2248 -0.4610
   58CHL1  H21A 6751   2.811   2.699   9.346  0.9833 -0.2761 -0.8804
   58CHL1  H21B 6752   2.785   2.861   9.252 -1.7378  0.2256 -1.1979
   58CHL1  H21C 6753   2.788   2.697   9.173 -0.5246 -2.9292  0.9045
   58CHL1   C22 6754   2.532   2.782   9.143 -0.6889  0.7991 -0.3367
   58CHL1  H22A 6755   2.421   2.783   9.152 -0.6711  1.6172 -0.1631
   58CHL1  H22B 6756   2.558   2.881   9.100 -0.1370  0.4359 -0.8546
   58CHL1   C23 6757   2.571   2.690   9.028 -0.6458  0.4944 -0.5400
   58CHL1  H23A 6758   2.678   2.699   9.000 -0.1352 -1.3668  0.7094
   58CHL1  H23B 6759   2.563   2.585   9.064  3.8897 -0.1707 -1.1580
   58CHL1   C24 6760   2.480   2.693   8.905 -0.4062 -0.3414 -0.4263
   58CHL1  H24A 6761   2.499   2.611   8.833 -0.5089 -1.1808  0.5052
   58CHL1  H24B 6762   2.379   2.677   8.948  0.8272 -1.7161  2.0097
   58CHL1   C25 6763   2.493   2.835   8.836 -1.1918 -0.6058  0.1112
   58CHL1   H25 6764   2.471   2.913   8.911 -2.0078  1.0993 -1.8527
   58CHL1   C26 6765   2.625   2.856   8.759 -0.1986 -0.1313 -0.8560
   58CHL1  H26A 6766   2.718   2.839   8.819 -1.4039  0.5013  1.2585
   58CHL1  H26B 6767   2.631   2.796   8.667  0.6862  1.1226 -1.6323
   58CHL1  H26C 6768   2.624   2.961   8.722  1.5358  0.4740  0.6819
   58CHL1   C27 6769   2.377   2.848   8.735  0.0602  0.4744  0.1835
   58CHL1  H27A 6770   2.281   2.825   8.785 -0.2649  1.5925  0.0910
   58CHL1  H27B 6771   2.378   2.955   8.708  0.4107  0.8970  1.8153
   58CHL1  H27C 6772   2.401   2.775   8.654 -0.9004 -0.0893  0.4000
   59CHL1    C3 6773   2.006   1.916  10.350 -0.3710  0.2132  0.7930
   59CHL1    H3 6774   1.986   1.809  10.370 -1.4470  0.4343  0.9574
   59CHL1    O3 6775   1.987   1.990  10.471 -0.1988  0.2142 -0.1662
   59CHL1   H3' 6776   1.898   1.964  10.495 -1.1578 -0.5110 -4.0680
   59CHL1    C4 6777   2.150   1.933  10.305 -0.3555 -0.6020  0.3209
   59CHL1   H4A 6778   2.178   2.039  10.320 -0.1690 -0.5203 -0.5996
   59CHL1   H4B 6779   2.219   1.883  10.377  1.8175  3.0099  0.8783
   59CHL1    C5 6780   2.179   1.883  10.165  0.1255 -1.2035 -0.5734
   59CHL1    C6 6781   2.283   1.805  10.145 -0.0882 -0.6345 -0.0254
   59CHL1    H6 6782   2.342   1.770  10.230 -0.3530  0.7744  0.7664
   59CHL1    C7 6783   2.305   1.751  10.003  0.3227 -0.1942 -0.6967
   59CHL1   H7A 6784   2.414   1.736   9.988  0.6172  1.2073 -0.1452
   59CHL1   H7B 6785   2.276   1.645   9.990 -1.8845  0.5155 -1.7192
   59CHL1    C8 6786   2.241   1.827   9.892 -0.9840  0.4921  0.0571
   59CHL1    H8 6787   2.309   1.914   9.888 -0.4228  0.1759  2.0065
   59CHL1   C14 6788   2.249   1.746   9.769  0.5144 -0.2481 -0.2252
   59CHL1   H14 6789   2.197   1.652   9.797 -0.2614  0.0204 -0.7472
   59CHL1   C15 6790   2.387   1.691   9.728 -0.1696 -0.2208  1.0555
   59CHL1  H15A 6791   2.462   1.773   9.729 -0.4111  0.0373 -0.3680
   59CHL1  H15B 6792   2.415   1.606   9.794  0.3882 -0.5606  0.3919
   59CHL1   C16 6793   2.349   1.634   9.589 -0.5131  0.0311 -0.3778
   59CHL1  H16A 6794   2.432   1.661   9.520  0.3977  0.8853  1.0345
   59CHL1  H16B 6795   2.345   1.524   9.604  0.0147  0.2874  1.7477
   59CHL1   C17 6796   2.204   1.681   9.556  0.2417 -0.7287 -0.0901
   59CHL1   H17 6797   2.130   1.603   9.582 -0.2897 -0.5322 -0.9871
   59CHL1   C13 6798   2.171   1.802   9.655 -0.0762  0.9164  0.5982
   59CHL1   C18 6799   2.249   1.926   9.602 -0.3043 -0.1571  0.8606
   59CHL1  H18A 6800   2.287   1.987   9.687 -0.9884  0.4457  0.7358
   59CHL1  H18B 6801   2.343   1.902   9.548 -1.4064 -0.2727 -1.0698
   59CHL1  H18C 6802   2.186   1.988   9.535  2.0579  1.6218  0.1923
   59CHL1   C12 6803   2.022   1.825   9.687 -0.2407  0.2185 -0.1125
   59CHL1  H12A 6804   1.955   1.864   9.607 -0.3287  0.6643  0.1833
   59CHL1  H12B 6805   1.977   1.729   9.719  0.4077 -0.1767 -0.3533
   59CHL1   C11 6806   2.018   1.926   9.807  0.0653  0.3843  0.0925
   59CHL1  H11A 6807   2.062   2.019   9.763 -2.6203  0.0928 -3.5110
   59CHL1  H11B 6808   1.908   1.928   9.818 -0.0807  1.5078 -1.4203
   59CHL1    C9 6809   2.096   1.864   9.922  1.4293  0.2353  0.1191
   59CHL1    H9 6810   2.042   1.770   9.949  0.5093  0.5744 -0.5237
   59CHL1   C10 6811   2.083   1.939  10.060  0.9832  0.0861  0.9365
   59CHL1   C19 6812   2.125   2.087  10.041  0.2214  0.6748 -0.3843
   59CHL1  H19A 6813   2.118   2.153  10.131 -0.1077 -0.2708  0.2917
   59CHL1  H19B 6814   2.227   2.086   9.997  0.4544  0.1051  0.1582
   59CHL1  H19C 6815   2.063   2.135   9.962  1.3025  1.2432 -0.9078
   59CHL1    C1 6816   1.935   1.938  10.106  0.2902  0.4680  0.7859
   59CHL1   H1A 6817   1.860   1.996  10.047 -0.7111 -1.9893 -0.4307
   59CHL1   H1B 6818   1.901   1.832  10.101  0.6615  0.4004 -0.5522
   59CHL1    C2 6819   1.915   1.984  10.254  0.7024  0.0792 -0.4137
   59CHL1   H2A 6820   1.809   1.965  10.282  0.7099  1.5105  0.6927
   59CHL1   H2B 6821   1.938   2.093  10.255 -0.3694  0.3120 -0.0991
   59CHL1   C20 6822   2.186   1.703   9.406 -0.2790  0.3717  0.3073
   59CHL1   H20 6823   2.253   1.790   9.389 -1.0457  1.1214  1.1136
   59CHL1   C21 6824   2.036   1.734   9.365 -0.3979 -0.1077  0.0832
   59CHL1  H21A 6825   1.960   1.661   9.400  0.1136 -0.2995  0.7954
   59CHL1  H21B 6826   2.020   1.746   9.256  2.2715  4.5745  0.0464
   59CHL1  H21C 6827   2.000   1.830   9.408 -1.4232 -0.1898 -0.5778
   59CHL1   C22 6828   2.260   1.599   9.314 -0.0280 -0.4019  1.0492
   59CHL1  H22A 6829   2.364   1.570   9.339  0.7922 -1.0535 -2.8790
   59CHL1  H22B 6830   2.197   1.507   9.310  0.6821 -0.7998 -2.8930
   59CHL1   C23 6831   2.260   1.641   9.173  0.4265  0.5138  1.1464
   59CHL1  H23A 6832   2.272   1.557   9.102 -1.4439  1.0123  0.1981
   59CHL1  H23B 6833   2.162   1.687   9.148  0.1304 -0.6954  0.0570
   59CHL1   C24 6834   2.359   1.750   9.141 -0.3752  0.0751 -0.3777
   59CHL1  H24A 6835   2.340   1.834   9.212 -2.3699  0.5101 -1.3955
   59CHL1  H24B 6836   2.461   1.715   9.167 -0.2273  0.7318 -0.0396
   59CHL1   C25 6837   2.363   1.795   8.993  0.6553 -0.2078 -0.1267
   59CHL1   H25 6838   2.446   1.869   8.979  0.0700  0.3350 -0.7625
   59CHL1   C26 6839   2.387   1.677   8.902  0.0838 -0.6820  1.0344
   59CHL1  H26A 6840   2.474   1.622   8.943  2.3383  0.1976 -2.3296
   59CHL1  H26B 6841   2.301   1.606   8.904 -0.3155 -0.2649 -0.4493
   59CHL1  H26C 6842   2.406   1.709   8.797 -0.5518  0.5126  1.2791
   59CHL1   C27 6843   2.230   1.862   8.945 -0.5735 -0.4468  0.7589
   59CHL1  H27A 6844   2.228   1.885   8.836  0.2413  2.7651  1.3588
   59CHL1  H27B 6845   2.136   1.815   8.981 -1.4622 -0.3173 -1.3087
   59CHL1  H27C 6846   2.242   1.961   8.994 -2.7996  0.5182 -0.6003
   60CHL1    C3 6847   1.569   1.094  10.294 -0.4900 -0.1719 -0.4709
   60CHL1    H3 6848   1.627   1.188  10.281 -0.7643 -0.1749 -1.7518
   60CHL1    O3 6849   1.547   1.070  10.430  0.6884 -0.7024 -0.3480
   60CHL1   H3' 6850   1.507   0.982  10.430  1.1119 -0.9014 -0.8851
   60CHL1    C4 6851   1.432   1.117  10.220 -0.1217 -0.8885  0.3418
   60CHL1   H4A 6852   1.352   1.042  10.238 -0.4236 -0.7832 -0.5248
   60CHL1   H4B 6853   1.402   1.213  10.266 -0.0261 -0.5958 -0.2044
   60CHL1    C5 6854   1.460   1.133  10.068  0.4992  0.1580 -0.1989
   60CHL1    C6 6855   1.418   1.242  10.008  0.1172  0.1558 -0.7803
   60CHL1    H6 6856   1.360   1.324  10.055 -0.6044 -0.5844 -0.3660
   60CHL1    C7 6857   1.435   1.252   9.859 -0.3894 -0.6045 -0.3390
   60CHL1   H7A 6858   1.347   1.300   9.811 -0.3143 -1.1896 -1.0794
   60CHL1   H7B 6859   1.505   1.333   9.832 -1.4099 -0.1008 -1.5359
   60CHL1    C8 6860   1.479   1.126   9.784 -0.5822 -0.1057 -0.2951
   60CHL1    H8 6861   1.392   1.058   9.789 -1.4779  1.1835  2.9667
   60CHL1   C14 6862   1.525   1.166   9.647  0.6028  0.2525  0.2818
   60CHL1   H14 6863   1.604   1.243   9.665  0.8760  0.0160  0.0971
   60CHL1   C15 6864   1.429   1.240   9.554 -0.1617  0.2742  0.3882
   60CHL1  H15A 6865   1.326   1.198   9.558  0.0493 -0.3480 -0.5582
   60CHL1  H15B 6866   1.427   1.349   9.577  2.2384  0.2960  0.6449
   60CHL1   C16 6867   1.505   1.229   9.413  0.1730 -0.4213  0.7204
   60CHL1  H16A 6868   1.436   1.201   9.331  1.6004  1.7753 -1.2933
   60CHL1  H16B 6869   1.543   1.327   9.377  0.9133 -1.4193 -1.3317
   60CHL1   C17 6870   1.625   1.135   9.433 -0.3751  0.4540 -0.5561
   60CHL1   H17 6871   1.705   1.211   9.446 -0.2714  0.5182 -1.5416
   60CHL1   C13 6872   1.590   1.051   9.558  0.1076  0.3740 -0.5964
   60CHL1   C18 6873   1.469   0.952   9.523 -0.5413  0.4212 -0.0753
   60CHL1  H18A 6874   1.384   1.006   9.476 -0.3476 -1.1517 -2.3420
   60CHL1  H18B 6875   1.494   0.877   9.445 -0.9413  1.2563 -1.0232
   60CHL1  H18C 6876   1.440   0.898   9.616 -1.0422 -0.4322 -0.7144
   60CHL1   C12 6877   1.708   0.993   9.648  0.5257  0.2530  0.6351
   60CHL1  H12A 6878   1.743   0.904   9.592 -0.2272 -1.2296  2.4289
   60CHL1  H12B 6879   1.779   1.078   9.649  0.2727  0.4651  0.3934
   60CHL1   C11 6880   1.657   0.941   9.784 -0.2029  0.5974  0.5244
   60CHL1  H11A 6881   1.582   0.861   9.763  1.0327 -0.5505  0.4085
   60CHL1  H11B 6882   1.742   0.904   9.845  0.4353  1.5315  0.2129
   60CHL1    C9 6883   1.590   1.060   9.867 -0.7232  0.2598  0.8867
   60CHL1    H9 6884   1.671   1.134   9.886  0.9448 -1.4224  0.4615
   60CHL1   C10 6885   1.549   1.018  10.014  0.5042 -0.4357 -1.0988
   60CHL1   C19 6886   1.461   0.893  10.012 -0.4993  0.3066  0.6102
   60CHL1  H19A 6887   1.415   0.868  10.110 -1.6961 -0.9891 -0.2491
   60CHL1  H19B 6888   1.366   0.901   9.954  0.0572 -1.7750 -0.6783
   60CHL1  H19C 6889   1.518   0.802   9.983  0.6342  0.7124  1.5428
   60CHL1    C1 6890   1.677   0.999  10.096 -0.0217 -0.5816  1.0594
   60CHL1   H1A 6891   1.732   0.909  10.059  2.6159  1.8599 -1.1857
   60CHL1   H1B 6892   1.747   1.085  10.085 -0.7586  0.2505  2.7181
   60CHL1    C2 6893   1.657   0.977  10.243  0.1574  0.4506  0.4733
   60CHL1   H2A 6894   1.753   0.989  10.298 -0.7608  3.1061  1.6092
   60CHL1   H2B 6895   1.611   0.879  10.268  0.5847 -0.6507 -2.8407
   60CHL1   C20 6896   1.654   1.063   9.306 -0.2178 -0.3707  0.5711
   60CHL1   H20 6897   1.563   1.002   9.286 -0.8396  0.1540  1.7280
   60CHL1   C21 6898   1.777   0.968   9.321 -0.2253 -0.0074  0.3641
   60CHL1  H21A 6899   1.861   1.031   9.356  0.3899  0.2983 -1.6406
   60CHL1  H21B 6900   1.808   0.913   9.230 -0.2185 -1.3019  1.1441
   60CHL1  H21C 6901   1.748   0.884   9.388 -1.3964  0.2343  0.1748
   60CHL1   C22 6902   1.677   1.162   9.183 -0.3211 -0.5622 -0.1859
   60CHL1  H22A 6903   1.587   1.225   9.163  0.1052  0.1010 -0.0093
   60CHL1  H22B 6904   1.760   1.233   9.200 -1.4612  1.1138 -1.4203
   60CHL1   C23 6905   1.693   1.082   9.052  0.3639  0.1730  0.4010
   60CHL1  H23A 6906   1.708   1.153   8.968 -1.2409 -1.6444 -1.4599
   60CHL1  H23B 6907   1.790   1.030   9.071 -0.1581 -0.3090  1.8136
   60CHL1   C24 6908   1.585   0.988   9.007  0.2604 -0.2291  0.5453
   60CHL1  H24A 6909   1.619   0.952   8.907  2.3871  1.0877  0.7496
   60CHL1  H24B 6910   1.599   0.898   9.071 -1.0826 -0.8480 -0.0086
   60CHL1   C25 6911   1.436   1.047   9.008 -0.1181  0.1594 -0.7773
   60CHL1   H25 6912   1.410   1.095   9.105 -1.1490 -0.0728 -0.9288
   60CHL1   C26 6913   1.425   1.160   8.897  0.0775  0.3980 -0.4271
   60CHL1  H26A 6914   1.336   1.220   8.925  0.9820  0.7705  1.7634
   60CHL1  H26B 6915   1.517   1.222   8.891 -1.5687  2.9372 -0.2302
   60CHL1  H26C 6916   1.410   1.110   8.799 -0.0564 -1.2668  0.4273
   60CHL1   C27 6917   1.332   0.929   9.000 -0.3296 -0.3978 -0.1316
   60CHL1  H27A 6918   1.341   0.874   9.097 -0.2527 -0.4944 -0.1938
   60CHL1  H27B 6919   1.230   0.971   8.985  1.8980  4.8566 -1.8692
   60CHL1  H27C 6920   1.359   0.870   8.910  0.1733  0.5448 -0.6118
   61CHL1    C3 6921   4.948   0.910  10.429 -0.6144 -1.0850  0.3812
   61CHL1    H3 6922   5.011   1.002  10.426 -1.4486 -0.5240 -0.0397
   61CHL1    O3 6923   4.906   0.894  10.562 -0.2374  0.2605 -0.0629
   61CHL1   H3' 6924   4.889   0.984  10.591  4.0681  1.1834 -0.0262
   61CHL1    C4 6925   4.827   0.932  10.337  0.2906  0.2688 -0.0849
   61CHL1   H4A 6926   4.762   0.843  10.345  0.7369 -0.1128 -0.7448
   61CHL1   H4B 6927   4.766   1.015  10.379 -2.1534 -0.5491 -1.9210
   61CHL1    C5 6928   4.870   0.953  10.192 -0.3614  0.4468 -0.2737
   61CHL1    C6 6929   4.829   1.045  10.111 -0.2598  0.0646 -0.6556
   61CHL1    H6 6930   4.770   1.129  10.152 -1.7469 -2.4819  2.6046
   61CHL1    C7 6931   4.861   1.066   9.962 -0.1825  0.5641  0.0353
   61CHL1   H7A 6932   4.765   1.083   9.909  0.2030  0.2379 -0.7791
   61CHL1   H7B 6933   4.916   1.161   9.947 -1.5081  1.7364  2.3087
   61CHL1    C8 6934   4.937   0.942   9.898  0.0052 -0.4947 -0.8310
   61CHL1    H8 6935   4.855   0.871   9.874 -1.6533  0.5492  1.5159
   61CHL1   C14 6936   4.999   0.976   9.765  0.9287  0.4234  0.7315
   61CHL1   H14 6937   5.083   1.040   9.800  0.3953  1.1226  0.7391
   61CHL1   C15 6938   4.920   1.060   9.663 -0.1143 -0.5525 -0.1721
   61CHL1  H15A 6939   4.817   1.019   9.663 -0.3597  0.0602  0.7101
   61CHL1  H15B 6940   4.929   1.169   9.686 -1.3479 -0.3963 -0.4042
   61CHL1   C16 6941   4.995   1.037   9.533 -0.6853  0.8150  0.3820
   61CHL1  H16A 6942   4.923   0.993   9.462  1.2422 -2.0484  0.1350
   61CHL1  H16B 6943   5.029   1.137   9.498 -0.9581  1.2289  1.2869
   61CHL1   C17 6944   5.116   0.933   9.559  0.1861 -0.4481 -0.8258
   61CHL1   H17 6945   5.204   1.001   9.570 -0.6752  0.6005 -0.3985
   61CHL1   C13 6946   5.072   0.863   9.692  0.2037  0.1993  0.3683
   61CHL1   C18 6947   4.973   0.752   9.644 -0.4204  0.2483 -0.2511
   61CHL1  H18A 6948   4.908   0.784   9.559  1.0763  1.9637 -0.7801
   61CHL1  H18B 6949   5.027   0.659   9.617  0.4363  1.0134 -1.2157
   61CHL1  H18C 6950   4.897   0.730   9.721  1.1559  0.0093  1.2519
   61CHL1   C12 6951   5.180   0.800   9.785 -0.3690 -0.7414  0.1603
   61CHL1  H12A 6952   5.210   0.706   9.735 -0.8571  0.4746 -2.5324
   61CHL1  H12B 6953   5.257   0.881   9.786 -1.2344  0.1006 -0.3532
   61CHL1   C11 6954   5.122   0.765   9.923 -0.2838 -0.6066 -0.1151
   61CHL1  H11A 6955   5.059   0.674   9.907 -1.5760 -0.4878  3.6875
   61CHL1  H11B 6956   5.197   0.727   9.995 -0.8895 -0.5513  0.5574
   61CHL1    C9 6957   5.032   0.878   9.993  0.5836 -0.4383 -0.8408
   61CHL1    H9 6958   5.103   0.959  10.021 -0.0524 -0.1883  0.0572
   61CHL1   C10 6959   4.973   0.847  10.135 -0.2693  0.4195  0.2562
   61CHL1   C19 6960   4.890   0.717  10.110  0.7636  0.3986 -0.1387
   61CHL1  H19A 6961   4.837   0.697  10.206  0.1506  2.6640  0.0352
   61CHL1  H19B 6962   4.812   0.729  10.032 -0.2470  0.4427  0.8574
   61CHL1  H19C 6963   4.955   0.632  10.082 -1.6873 -1.6111  0.0678
   61CHL1    C1 6964   5.084   0.817  10.243 -0.0377  0.1979 -0.4179
   61CHL1   H1A 6965   5.155   0.740  10.206 -1.0077 -0.8086 -0.2333
   61CHL1   H1B 6966   5.149   0.906  10.243 -0.3600  0.4361  0.2279
   61CHL1    C2 6967   5.037   0.792  10.382  0.6679  0.9628 -0.4835
   61CHL1   H2A 6968   5.125   0.774  10.448  0.5296  1.9291 -0.0196
   61CHL1   H2B 6969   4.978   0.699  10.387 -2.0596  2.6112 -1.0633
   61CHL1   C20 6970   5.155   0.853   9.429  0.5120 -0.2578 -0.2721
   61CHL1   H20 6971   5.077   0.779   9.401  1.8929 -1.0718 -2.0102
   61CHL1   C21 6972   5.285   0.777   9.468 -0.7033 -0.0629  0.0625
   61CHL1  H21A 6973   5.368   0.847   9.491  0.0675 -0.9348  0.0010
   61CHL1  H21B 6974   5.318   0.715   9.382 -1.4263  0.4623 -0.5965
   61CHL1  H21C 6975   5.271   0.702   9.549  1.1230  0.4548  0.8900
   61CHL1   C22 6976   5.190   0.943   9.316 -0.4663 -0.4953 -0.0889
   61CHL1  H22A 6977   5.112   1.022   9.305 -0.0635 -0.0199  0.4474
   61CHL1  H22B 6978   5.284   0.999   9.333 -0.6831  0.0753 -0.7377
   61CHL1   C23 6979   5.195   0.874   9.174 -0.8166  0.2621 -0.8176
   61CHL1  H23A 6980   5.294   0.825   9.163  0.2589  1.6988  2.0047
   61CHL1  H23B 6981   5.124   0.788   9.174 -0.0319 -0.4132  0.5465
   61CHL1   C24 6982   5.186   0.956   9.046  0.6614 -0.5362  0.4637
   61CHL1  H24A 6983   5.079   0.980   9.027  0.6174 -0.8135  0.3603
   61CHL1  H24B 6984   5.245   1.049   9.059  0.9898 -0.8734  1.4406
   61CHL1   C25 6985   5.242   0.891   8.920 -0.6398 -0.5018 -0.4262
   61CHL1   H25 6986   5.327   0.826   8.953 -0.8388  0.2756  1.6904
   61CHL1   C26 6987   5.153   0.792   8.849  0.1449  0.3448 -0.1316
   61CHL1  H26A 6988   5.134   0.712   8.925 -1.5349  1.2179  0.3896
   61CHL1  H26B 6989   5.055   0.844   8.839  1.8453  3.8454  0.8645
   61CHL1  H26C 6990   5.199   0.757   8.754  0.1606 -1.0322  0.3607
   61CHL1   C27 6991   5.296   1.003   8.824 -0.0962  0.1056 -0.4244
   61CHL1  H27A 6992   5.215   1.075   8.800  0.5442  1.2350  0.7327
   61CHL1  H27B 6993   5.377   1.057   8.878  1.3474 -0.8068 -1.6424
   61CHL1  H27C 6994   5.344   0.957   8.735  1.0654  1.8266 -0.7062
   62CHL1    C3 6995   6.598   3.743   9.966  0.2874  0.3904  0.0842
   62CHL1    H3 6996   6.662   3.664   9.921  0.7672  1.4539 -1.1237
   62CHL1    O3 6997   6.649   3.754  10.093  0.1576  0.2346 -0.1710
   62CHL1   H3' 6998   6.579   3.783  10.152 -0.2797  2.6967 -1.8034
   62CHL1    C4 6999   6.615   3.879   9.893  0.2699 -0.6852  0.0082
   62CHL1   H4A 7000   6.544   3.951   9.940  1.7697  0.1653  0.9935
   62CHL1   H4B 7001   6.719   3.906   9.919 -0.4312  0.5320  1.6353
   62CHL1    C5 7002   6.581   3.851   9.751 -1.1180  0.8560 -0.5124
   62CHL1    C6 7003   6.667   3.891   9.650  0.6205  0.5390 -0.1764
   62CHL1    H6 7004   6.755   3.948   9.683 -0.2543  0.5130  2.3685
   62CHL1    C7 7005   6.638   3.886   9.502  0.4193  0.0675 -0.2279
   62CHL1   H7A 7006   6.658   3.983   9.451  0.4908  0.7479  1.0665
   62CHL1   H7B 7007   6.709   3.811   9.461  1.6255  1.1841 -0.2097
   62CHL1    C8 7008   6.491   3.849   9.482  0.3633  0.4945  0.1931
   62CHL1    H8 7009   6.423   3.935   9.501 -2.7518 -2.0802  1.2845
   62CHL1   C14 7010   6.478   3.791   9.349 -0.2881  0.1631  0.5805
   62CHL1   H14 7011   6.540   3.699   9.341  1.5086  1.2047  2.0065
   62CHL1   C15 7012   6.545   3.876   9.237 -0.3628  0.7901  0.4028
   62CHL1  H15A 7013   6.519   3.983   9.253 -0.5987  0.5739  1.5162
   62CHL1  H15B 7014   6.656   3.866   9.238 -0.3554  0.8460  1.9902
   62CHL1   C16 7015   6.480   3.826   9.105  0.3305  0.2141 -0.8398
   62CHL1  H16A 7016   6.428   3.907   9.049 -0.8959 -0.2066 -0.3416
   62CHL1  H16B 7017   6.546   3.774   9.032  0.0955  0.7897 -1.4705
   62CHL1   C17 7018   6.375   3.727   9.141  0.4531 -0.4788 -0.0322
   62CHL1   H17 7019   6.427   3.628   9.143 -0.5351 -0.9886  1.2037
   62CHL1   C13 7020   6.343   3.752   9.292  0.0573  1.2536 -0.2213
   62CHL1   C18 7021   6.249   3.872   9.296  0.1444  0.2239 -0.0553
   62CHL1  H18A 7022   6.231   3.903   9.401  1.9949 -0.8703  0.6145
   62CHL1  H18B 7023   6.294   3.962   9.248 -0.9787  1.2862  0.8506
   62CHL1  H18C 7024   6.154   3.854   9.241 -0.2104  0.8964  0.3274
   62CHL1   C12 7025   6.285   3.644   9.384  0.2480  0.0489 -0.2101
   62CHL1  H12A 7026   6.180   3.629   9.351  0.4763  1.2303 -1.5080
   62CHL1  H12B 7027   6.343   3.551   9.371  0.0908 -0.4428  2.4094
   62CHL1   C11 7028   6.302   3.674   9.534 -0.5167 -1.1278  0.0321
   62CHL1  H11A 7029   6.217   3.738   9.566 -1.2908 -1.3825 -1.4752
   62CHL1  H11B 7030   6.286   3.580   9.589  0.5859 -2.4958 -1.9102
   62CHL1    C9 7031   6.442   3.743   9.578  1.0551  0.8658  0.1571
   62CHL1    H9 7032   6.515   3.660   9.566 -1.0749 -1.2021  0.8725
   62CHL1   C10 7033   6.437   3.791   9.723  0.2165 -0.9610 -0.1426
   62CHL1   C19 7034   6.332   3.905   9.744  0.0769  0.0149 -0.3903
   62CHL1  H19A 7035   6.345   3.986   9.669 -1.3169  1.5032  0.9420
   62CHL1  H19B 7036   6.230   3.862   9.739 -0.2305  0.5785  0.7787
   62CHL1  H19C 7037   6.340   3.958   9.842  0.1497 -0.5187 -0.1031
   62CHL1    C1 7038   6.406   3.676   9.823 -0.3490  0.2825  0.0603
   62CHL1   H1A 7039   6.297   3.656   9.833 -0.2785 -0.3336 -0.3701
   62CHL1   H1B 7040   6.463   3.585   9.795 -0.9877 -0.0495 -0.1830
   62CHL1    C2 7041   6.454   3.696   9.969  0.1684 -0.5373  0.4530
   62CHL1   H2A 7042   6.443   3.605  10.032  0.1927 -0.1109  1.0809
   62CHL1   H2B 7043   6.390   3.780  10.004 -0.5983 -0.9975  0.1652
   62CHL1   C20 7044   6.261   3.718   9.042  0.9224 -0.2465 -0.3047
   62CHL1   H20 7045   6.225   3.823   9.033  0.8171 -0.5242 -3.7633
   62CHL1   C21 7046   6.145   3.629   9.090 -0.5254  0.0177  0.7849
   62CHL1  H21A 7047   6.168   3.530   9.134  0.2722  0.1578  0.6887
   62CHL1  H21B 7048   6.067   3.614   9.013  2.3197  0.7312 -2.3462
   62CHL1  H21C 7049   6.080   3.688   9.159  1.7625 -0.8224  3.7629
   62CHL1   C22 7050   6.315   3.686   8.899 -0.2731 -0.1161  0.6468
   62CHL1  H22A 7051   6.385   3.770   8.879 -0.9236  0.7130  1.8399
   62CHL1  H22B 7052   6.373   3.593   8.918 -1.1951 -1.0332 -0.9291
   62CHL1   C23 7053   6.225   3.695   8.777 -0.2321 -0.1917  0.5793
   62CHL1  H23A 7054   6.267   3.632   8.696 -0.7336  2.4568 -1.8213
   62CHL1  H23B 7055   6.127   3.658   8.814 -1.0647  0.2405 -1.1293
   62CHL1   C24 7056   6.192   3.838   8.731  0.2693  0.1177  0.5158
   62CHL1  H24A 7057   6.105   3.823   8.664  0.5657 -1.4790  0.4661
   62CHL1  H24B 7058   6.157   3.894   8.821  2.3496  0.1806  1.3118
   62CHL1   C25 7059   6.309   3.913   8.668 -0.0033  0.0932 -0.0700
   62CHL1   H25 7060   6.407   3.899   8.718 -0.0880  0.5579  0.2321
   62CHL1   C26 7061   6.323   3.862   8.521  0.1987  0.2894 -0.2137
   62CHL1  H26A 7062   6.233   3.883   8.459 -0.4499  1.9021  1.2396
   62CHL1  H26B 7063   6.408   3.922   8.482 -0.0467 -0.2499 -1.6099
   62CHL1  H26C 7064   6.340   3.753   8.509 -1.6659 -0.1096  0.5946
   62CHL1   C27 7065   6.293   4.064   8.676 -0.1135 -0.0317 -0.5510
   62CHL1  H27A 7066   6.219   4.102   8.603  0.2859  0.3710 -0.7505
   62CHL1  H27B 7067   6.273   4.101   8.779  1.3359 -0.9582  0.0706
   62CHL1  H27C 7068   6.391   4.106   8.643 -1.6341  2.9009 -1.5564
   63CHL1    C3 7069   0.962   5.402  10.252  0.1823  0.1198 -0.3597
   63CHL1    H3 7070   1.069   5.431  10.252  0.2310  0.1956  3.3507
   63CHL1    O3 7071   0.915   5.369  10.380 -0.5932 -0.9420  0.1557
   63CHL1   H3' 7072   0.820   5.358  10.374 -0.9048 -0.3866  3.3968
   63CHL1    C4 7073   0.878   5.510  10.190 -0.5425  0.3904  0.4011
   63CHL1   H4A 7074   0.773   5.475  10.198  0.1703 -1.5940  1.2301
   63CHL1   H4B 7075   0.884   5.606  10.246  5.9509  1.1789 -1.2499
   63CHL1    C5 7076   0.908   5.534  10.042  0.4223  0.0953 -0.0331
   63CHL1    C6 7077   0.958   5.650   9.996 -0.3165 -0.2448 -0.2490
   63CHL1    H6 7078   0.962   5.738  10.062  2.3387  0.8136 -1.7303
   63CHL1    C7 7079   0.994   5.675   9.853  0.7015 -0.3306  0.0883
   63CHL1   H7A 7080   0.957   5.775   9.821  0.3933  0.4526  2.7777
   63CHL1   H7B 7081   1.105   5.674   9.844  0.8562 -1.8446  2.0484
   63CHL1    C8 7082   0.942   5.571   9.752 -0.4986  0.8779 -0.5050
   63CHL1    H8 7083   0.832   5.581   9.740 -0.9066 -1.0967  1.3749
   63CHL1   C14 7084   0.997   5.586   9.609 -0.2019  0.6579  0.0288
   63CHL1   H14 7085   1.107   5.583   9.625 -0.2305 -1.9552 -0.1046
   63CHL1   C15 7086   0.983   5.725   9.540  0.2858 -0.2461  0.2513
   63CHL1  H15A 7087   0.879   5.765   9.543  0.4067 -0.0044  3.0664
   63CHL1  H15B 7088   1.062   5.795   9.577  1.0653 -1.7927  1.5589
   63CHL1   C16 7089   1.008   5.691   9.390  0.0608 -0.5297 -0.4074
   63CHL1  H16A 7090   0.915   5.712   9.333 -0.9985  0.1066  1.5166
   63CHL1  H16B 7091   1.093   5.751   9.350  0.8042 -1.9519 -1.0103
   63CHL1   C17 7092   1.049   5.543   9.390 -0.8071 -0.8565  0.0179
   63CHL1   H17 7093   1.148   5.523   9.437 -1.5923  1.1517  2.6560
   63CHL1   C13 7094   0.964   5.481   9.511 -0.2961  0.3514  0.5183
   63CHL1   C18 7095   0.814   5.469   9.471 -0.1564  0.6106 -0.6186
   63CHL1  H18A 7096   0.774   5.566   9.436 -0.5917  1.7486  2.8378
   63CHL1  H18B 7097   0.807   5.392   9.391  1.3344  0.9742 -1.1221
   63CHL1  H18C 7098   0.756   5.441   9.561  1.2498  0.4833  0.2575
   63CHL1   C12 7099   1.014   5.348   9.570 -0.2758  0.4518  0.3300
   63CHL1  H12A 7100   0.990   5.265   9.499 -1.5936  2.3370 -1.4989
   63CHL1  H12B 7101   1.124   5.331   9.577 -0.5986 -1.6156  0.7732
   63CHL1   C11 7102   0.949   5.317   9.701  0.1293  0.8313 -1.3457
   63CHL1  H11A 7103   0.840   5.300   9.689  0.2331 -0.2695 -0.7658
   63CHL1  H11B 7104   0.988   5.219   9.738  0.9060  1.8809  0.7296
   63CHL1    C9 7105   0.975   5.431   9.803  0.3590  0.3329 -0.5127
   63CHL1    H9 7106   1.086   5.439   9.815  0.1386  1.6083  0.8808
   63CHL1   C10 7107   0.913   5.413   9.945  0.2366  0.8278  0.3465
   63CHL1   C19 7108   0.766   5.366   9.925  0.5784 -0.3039 -0.2287
   63CHL1  H19A 7109   0.702   5.388  10.013  1.7619  0.4198  0.4614
   63CHL1  H19B 7110   0.725   5.429   9.843  1.6278  0.5584 -0.0910
   63CHL1  H19C 7111   0.763   5.260   9.893  0.1056  0.0691 -1.4550
   63CHL1    C1 7112   0.993   5.305  10.029  0.0427  0.1274  0.2696
   63CHL1   H1A 7113   0.963   5.215   9.971 -1.4014  0.6442  0.1937
   63CHL1   H1B 7114   1.101   5.329  10.024 -0.2082  1.2537  0.0632
   63CHL1    C2 7115   0.948   5.272  10.174  1.0084  0.2673  0.2697
   63CHL1   H2A 7116   1.011   5.186  10.208 -1.0561 -2.1589 -1.8372
   63CHL1   H2B 7117   0.844   5.233  10.179  1.7090 -1.9409 -1.7422
   63CHL1   C20 7118   1.042   5.468   9.253  0.6799  0.1778 -0.6137
   63CHL1   H20 7119   1.016   5.362   9.277 -1.1365  0.1511 -2.5819
   63CHL1   C21 7120   1.185   5.468   9.201  1.2123 -0.4494  0.3982
   63CHL1  H21A 7121   1.195   5.432   9.097 -1.2103  0.7173 -0.2682
   63CHL1  H21B 7122   1.255   5.410   9.266 -0.6520 -0.6693  2.2434
   63CHL1  H21C 7123   1.234   5.567   9.199  0.4248 -0.0767 -0.4630
   63CHL1   C22 7124   0.939   5.521   9.139 -0.1131  0.4134  1.0442
   63CHL1  H22A 7125   0.853   5.565   9.193 -1.1296 -0.8277  0.4635
   63CHL1  H22B 7126   0.985   5.612   9.093  2.5041 -1.1864  0.3866
   63CHL1   C23 7127   0.895   5.418   9.041  0.8524  0.5022 -0.1729
   63CHL1  H23A 7128   0.980   5.388   8.977  0.5748 -1.6486  0.4529
   63CHL1  H23B 7129   0.850   5.328   9.087  0.2398  1.1404  0.4826
   63CHL1   C24 7130   0.784   5.472   8.941 -0.1192  0.3145 -0.3168
   63CHL1  H24A 7131   0.697   5.511   8.999  0.0988 -1.1286  1.0445
   63CHL1  H24B 7132   0.828   5.554   8.881  1.4764 -0.5609 -0.3636
   63CHL1   C25 7133   0.748   5.358   8.838  0.5091  0.2531  0.3627
   63CHL1   H25 7134   0.849   5.318   8.814 -0.7019 -0.9651 -2.8855
   63CHL1   C26 7135   0.648   5.256   8.888 -0.0701  0.9838  0.4415
   63CHL1  H26A 7136   0.550   5.300   8.914 -0.2068  0.9642 -0.0451
   63CHL1  H26B 7137   0.630   5.175   8.814 -0.4527  1.7414 -0.2994
   63CHL1  H26C 7138   0.681   5.210   8.984  0.5143  0.6185  0.0741
   63CHL1   C27 7139   0.684   5.417   8.708  0.2465 -0.6451  0.5748
   63CHL1  H27A 7140   0.621   5.345   8.653 -1.0502  0.6798  0.3081
   63CHL1  H27B 7141   0.612   5.496   8.740 -1.9974 -1.6157 -1.8967
   63CHL1  H27C 7142   0.767   5.463   8.650 -0.2115 -3.3570 -2.3511
   64CHL1    C3 7143   0.343   4.951  10.053 -0.7666 -0.1955 -0.6051
   64CHL1    H3 7144   0.262   5.009  10.102 -1.6417 -1.3400 -0.6448
   64CHL1    O3 7145   0.453   4.921  10.147  0.3962 -0.4159  0.4147
   64CHL1   H3' 7146   0.409   4.861  10.208 -1.0831 -0.8156 -1.0128
   64CHL1    C4 7147   0.295   4.817  10.003 -0.3033 -0.5254 -0.0054
   64CHL1   H4A 7148   0.365   4.741   9.963 -1.2367 -1.3943  0.0116
   64CHL1   H4B 7149   0.254   4.774  10.097 -1.6276  0.5110 -0.0777
   64CHL1    C5 7150   0.189   4.820   9.899  0.1309 -0.2855 -0.2773
   64CHL1    C6 7151   0.073   4.756   9.921  0.0878  0.3162  0.6205
   64CHL1    H6 7152   0.060   4.701  10.016 -0.8727  0.9541  0.8645
   64CHL1    C7 7153  -0.028   4.749   9.816 -0.0716  0.0087  0.8932
   64CHL1   H7A 7154  -0.070   4.647   9.809 -1.0668  0.2580  2.8575
   64CHL1   H7B 7155  -0.105   4.816   9.860  0.6013  1.4148 -0.0384
   64CHL1    C8 7156   0.035   4.792   9.675 -0.1785  0.0100  0.3807
   64CHL1    H8 7157   0.090   4.700   9.645  0.3241 -0.1487  1.7621
   64CHL1   C14 7158  -0.087   4.813   9.576 -0.1885 -0.6627  0.7664
   64CHL1   H14 7159  -0.137   4.900   9.623  2.8310  0.8770  1.1728
   64CHL1   C15 7160  -0.193   4.700   9.560  0.0705 -0.5420  0.4879
   64CHL1  H15A 7161  -0.135   4.606   9.546  0.3652  0.2180 -4.0969
   64CHL1  H15B 7162  -0.252   4.695   9.654  0.4329  3.1928  0.9724
   64CHL1   C16 7163  -0.265   4.749   9.437  0.5223 -0.7820  0.5890
   64CHL1  H16A 7164  -0.277   4.666   9.364 -1.0015 -0.3914  0.3660
   64CHL1  H16B 7165  -0.369   4.784   9.455  0.8650  0.4657  0.1709
   64CHL1   C17 7166  -0.194   4.871   9.370 -0.1515  0.6360 -0.3635
   64CHL1   H17 7167  -0.236   4.965   9.412  0.5422  0.1940  1.3784
   64CHL1   C13 7168  -0.050   4.856   9.434  0.6583  0.3817 -0.3524
   64CHL1   C18 7169   0.026   4.754   9.355 -0.0714 -0.3029  0.2131
   64CHL1  H18A 7170  -0.030   4.662   9.327  1.7924 -1.1445 -0.7855
   64CHL1  H18B 7171   0.075   4.799   9.267 -1.7045  1.8458  0.3615
   64CHL1  H18C 7172   0.119   4.728   9.410  2.1305  0.1716 -3.1751
   64CHL1   C12 7173   0.021   4.992   9.445  0.0440  0.7646 -0.6485
   64CHL1  H12A 7174   0.055   5.034   9.347 -0.2819  1.7195 -0.3551
   64CHL1  H12B 7175  -0.044   5.064   9.498 -0.3709 -0.1843  0.1249
   64CHL1   C11 7176   0.142   4.983   9.545 -0.0383 -0.2476  0.2125
   64CHL1  H11A 7177   0.222   4.923   9.496 -1.8511 -3.2318  0.7865
   64CHL1  H11B 7178   0.185   5.086   9.554 -0.2548 -0.3300  2.5393
   64CHL1    C9 7179   0.106   4.921   9.681  0.9491 -0.2286 -0.2853
   64CHL1    H9 7180   0.038   4.987   9.737 -0.2441 -2.8266  1.4322
   64CHL1   C10 7181   0.231   4.910   9.780  0.0425 -0.1602  0.6328
   64CHL1   C19 7182   0.347   4.832   9.698  0.0299 -0.5731  0.0865
   64CHL1  H19A 7183   0.433   4.807   9.763  0.9832  0.3625 -0.8023
   64CHL1  H19B 7184   0.310   4.730   9.676 -1.9298  0.2894 -0.7411
   64CHL1  H19C 7185   0.391   4.889   9.613  0.4598  0.0499  0.7210
   64CHL1    C1 7186   0.290   5.050   9.820  0.3354 -0.4962  1.0212
   64CHL1   H1A 7187   0.337   5.104   9.735 -1.0097  0.9315  1.1625
   64CHL1   H1B 7188   0.214   5.126   9.849  2.2796  0.4532  3.9170
   64CHL1    C2 7189   0.392   5.037   9.935  0.4377  0.3737 -0.6562
   64CHL1   H2A 7190   0.429   5.137   9.964 -1.4943  0.9649 -0.1989
   64CHL1   H2B 7191   0.486   4.989   9.900  0.7143  1.0982 -0.9148
   64CHL1   C20 7192  -0.215   4.876   9.219 -0.2106  0.2735 -0.3648
   64CHL1   H20 7193  -0.169   4.788   9.171 -0.5868  0.5443 -1.2316
   64CHL1   C21 7194  -0.151   4.999   9.149  0.1997  0.4224 -0.1709
   64CHL1  H21A 7195  -0.196   5.008   9.048  0.1527 -0.2342 -0.2114
   64CHL1  H21B 7196  -0.041   4.980   9.148  0.3069  1.0357 -0.2735
   64CHL1  H21C 7197  -0.173   5.092   9.206  1.1914  0.5577 -0.0028
   64CHL1   C22 7198  -0.368   4.861   9.187 -0.1286  0.2741 -0.2161
   64CHL1  H22A 7199  -0.397   4.758   9.215  1.6388 -0.4128 -0.8363
   64CHL1  H22B 7200  -0.426   4.946   9.229 -0.2396  0.4781 -0.7796
   64CHL1   C23 7201  -0.413   4.857   9.037  0.4201  0.2441 -0.1496
   64CHL1  H23A 7202  -0.405   4.962   8.999  2.1699 -0.5726 -2.1463
   64CHL1  H23B 7203  -0.344   4.796   8.975  1.5459  2.1363 -0.7955
   64CHL1   C24 7204  -0.565   4.816   9.016 -0.0400  0.3819 -0.1482
   64CHL1  H24A 7205  -0.578   4.706   9.030 -0.6456 -0.1298 -4.1295
   64CHL1  H24B 7206  -0.620   4.855   9.105  0.7431  2.2866 -0.4752
   64CHL1   C25 7207  -0.626   4.853   8.883 -0.4107  0.4388  0.5961
   64CHL1   H25 7208  -0.733   4.826   8.877 -0.7278  2.1225 -2.0042
   64CHL1   C26 7209  -0.631   5.004   8.839 -0.5236 -0.2064 -0.6866
   64CHL1  H26A 7210  -0.528   5.044   8.846 -1.3959  1.7382  1.9823
   64CHL1  H26B 7211  -0.659   5.003   8.732 -1.0637 -1.2595 -0.5394
   64CHL1  H26C 7212  -0.703   5.056   8.906  0.1907 -1.6009  1.2395
   64CHL1   C27 7213  -0.557   4.770   8.767  0.4080 -0.2153 -0.3462
   64CHL1  H27A 7214  -0.519   4.669   8.794  0.0622 -0.1663  0.3387
   64CHL1  H27B 7215  -0.621   4.775   8.676 -0.8982 -1.5810  0.4739
   64CHL1  H27C 7216  -0.463   4.818   8.733  0.5751 -0.8588 -0.8009
   65CHL1    C3 7217   2.502   2.083  10.241  0.3914 -0.2545 -0.8002
   65CHL1    H3 7218   2.414   2.077  10.174 -0.0123 -0.0135 -0.2974
   65CHL1    O3 7219   2.463   2.048  10.371 -0.1972 -0.1080  0.1045
   65CHL1   H3' 7220   2.515   2.112  10.421 -0.5371  0.3810 -0.1723
   65CHL1    C4 7221   2.608   1.988  10.184 -0.3894  0.1901 -0.2365
   65CHL1   H4A 7222   2.685   1.988  10.264 -0.1474 -1.3636 -0.4496
   65CHL1   H4B 7223   2.570   1.884  10.189 -0.9834  0.4251  0.3111
   65CHL1    C5 7224   2.656   2.023  10.038  0.5232 -0.3003 -0.0075
   65CHL1    C6 7225   2.641   1.940   9.935  0.0403  0.0263 -0.4039
   65CHL1    H6 7226   2.599   1.840   9.950 -1.3500  0.7483  0.6585
   65CHL1    C7 7227   2.685   1.968   9.794 -0.3942  0.1274 -0.5704
   65CHL1   H7A 7228   2.744   1.886   9.748  3.2920  2.1065  0.3607
   65CHL1   H7B 7229   2.593   1.992   9.738 -0.7867  0.9102  0.3894
   65CHL1    C8 7230   2.781   2.087   9.787  0.6267 -0.1942 -0.3951
   65CHL1    H8 7231   2.886   2.066   9.817  0.3094 -2.1550 -0.5651
   65CHL1   C14 7232   2.785   2.125   9.641  0.1779 -0.2566 -0.0633
   65CHL1   H14 7233   2.680   2.141   9.607 -0.3310  0.5006  1.8052
   65CHL1   C15 7234   2.842   2.026   9.539  0.3111  0.0541 -0.6959
   65CHL1  H15A 7235   2.943   1.994   9.572  0.2296 -0.4756 -0.9566
   65CHL1  H15B 7236   2.783   1.933   9.524 -1.0568  0.5465  1.4830
   65CHL1   C16 7237   2.847   2.111   9.409 -0.0993 -0.3727 -0.3466
   65CHL1  H16A 7238   2.941   2.095   9.351 -1.5834 -2.4812 -2.3086
   65CHL1  H16B 7239   2.762   2.087   9.341 -0.7464  3.0186 -0.8284
   65CHL1   C17 7240   2.837   2.261   9.457  0.3866 -0.2277 -0.0766
   65CHL1   H17 7241   2.731   2.295   9.452  0.8456  0.9066 -2.6096
   65CHL1   C13 7242   2.862   2.252   9.607 -0.0489  0.6948  0.0730
   65CHL1   C18 7243   3.016   2.253   9.633 -0.3419  0.3839 -0.7107
   65CHL1  H18A 7244   3.043   2.187   9.718 -0.2491  1.1180 -0.1730
   65CHL1  H18B 7245   3.073   2.209   9.547  1.3521 -0.8054  0.9750
   65CHL1  H18C 7246   3.047   2.355   9.664 -1.9262 -0.3230  3.5377
   65CHL1   C12 7247   2.792   2.367   9.692 -0.2466 -0.2636  0.1141
   65CHL1  H12A 7248   2.840   2.465   9.673  1.6102 -0.9160  1.3086
   65CHL1  H12B 7249   2.687   2.381   9.660  0.2711 -1.2841 -2.1616
   65CHL1   C11 7250   2.805   2.331   9.848 -1.0164 -0.6767 -0.2044
   65CHL1  H11A 7251   2.913   2.314   9.864 -1.0129 -1.2738 -0.8275
   65CHL1  H11B 7252   2.761   2.410   9.913 -0.8280 -0.3919 -0.4242
   65CHL1    C9 7253   2.725   2.206   9.875 -0.4721 -0.2311  0.0823
   65CHL1    H9 7254   2.627   2.223   9.826 -0.7916  0.5932  0.9828
   65CHL1   C10 7255   2.707   2.169  10.028  0.6111 -0.4608  0.3758
   65CHL1   C19 7256   2.845   2.190  10.098  0.0138 -0.4170 -0.0970
   65CHL1  H19A 7257   2.893   2.289  10.084 -0.5581  0.1401  1.6809
   65CHL1  H19B 7258   2.844   2.166  10.207  1.4418 -0.7308 -0.1419
   65CHL1  H19C 7259   2.912   2.124  10.038  2.8170  1.5726  0.7306
   65CHL1    C1 7260   2.602   2.261  10.088  0.3821  0.1507  0.0818
   65CHL1   H1A 7261   2.633   2.368  10.090  1.2845 -0.0935 -0.7161
   65CHL1   H1B 7262   2.505   2.260  10.033  0.6618 -0.0329 -0.4056
   65CHL1    C2 7263   2.554   2.226  10.234 -0.3242  0.4060 -0.5124
   65CHL1   H2A 7264   2.462   2.287  10.248  1.2450  3.0617 -1.4189
   65CHL1   H2B 7265   2.632   2.245  10.311  0.7169 -2.8732 -0.6967
   65CHL1   C20 7266   2.916   2.356   9.370  0.4233  0.0920  0.4432
   65CHL1   H20 7267   3.009   2.308   9.334  0.0100  0.0135 -0.5272
   65CHL1   C21 7268   2.940   2.495   9.432  0.1085 -0.3442  0.9786
   65CHL1  H21A 7269   2.851   2.548   9.472 -1.0693 -0.5834 -1.2232
   65CHL1  H21B 7270   2.975   2.557   9.346 -0.5971  1.0520  1.6686
   65CHL1  H21C 7271   3.024   2.518   9.500  2.2102  0.5106 -1.8232
   65CHL1   C22 7272   2.832   2.376   9.234 -0.4173 -0.0933 -0.0352
   65CHL1  H22A 7273   2.801   2.279   9.188 -2.0290 -0.3895  1.6516
   65CHL1  H22B 7274   2.749   2.448   9.247  1.5035  2.1832  0.0196
   65CHL1   C23 7275   2.920   2.423   9.118  0.5099  0.3823 -0.2928
   65CHL1  H23A 7276   2.936   2.533   9.124  1.5013  0.3999 -3.0546
   65CHL1  H23B 7277   3.022   2.381   9.124 -0.2940 -1.5947  0.0656
   65CHL1   C24 7278   2.861   2.389   8.983 -0.1978 -0.3919  0.2592
   65CHL1  H24A 7279   2.868   2.278   8.974 -1.6866 -0.7424  2.8618
   65CHL1  H24B 7280   2.754   2.416   8.972  0.2234  1.2486  0.1840
   65CHL1   C25 7281   2.946   2.449   8.863  0.8324  0.0465 -0.0461
   65CHL1   H25 7282   2.917   2.383   8.778 -2.0239  0.4017  0.6032
   65CHL1   C26 7283   2.904   2.588   8.826 -0.1027 -0.5120  1.0086
   65CHL1  H26A 7284   2.950   2.618   8.729 -0.0223 -2.3118  0.4662
   65CHL1  H26B 7285   2.794   2.593   8.809 -0.3145  1.6595  2.7764
   65CHL1  H26C 7286   2.938   2.654   8.908  1.4689  2.1805 -1.6957
   65CHL1   C27 7287   3.102   2.431   8.882 -0.6304  0.4331 -1.0330
   65CHL1  H27A 7288   3.151   2.482   8.797 -1.0811  0.4866 -1.2598
   65CHL1  H27B 7289   3.140   2.482   8.974  0.4870  2.1999 -2.4533
   65CHL1  H27C 7290   3.130   2.325   8.866 -2.4815  0.0360 -1.7645
   66CHL1    C3 7291   0.737   0.251  10.556  0.0781  0.8615 -0.1992
   66CHL1    H3 7292   0.782   0.348  10.588 -1.4503  1.1302  1.1936
   66CHL1    O3 7293   0.763   0.147  10.649 -0.3276  0.0212  0.0151
   66CHL1   H3' 7294   0.715   0.073  10.612  0.5117 -0.7505  0.4623
   66CHL1    C4 7295   0.583   0.270  10.536 -0.4753 -0.2549  0.5429
   66CHL1   H4A 7296   0.545   0.168  10.513  1.6785 -0.5808 -1.8137
   66CHL1   H4B 7297   0.544   0.304  10.634 -2.8512  2.0686 -1.1707
   66CHL1    C5 7298   0.538   0.354  10.418  0.3397  0.8077 -0.5722
   66CHL1    C6 7299   0.454   0.453  10.444  0.2634 -0.4339 -0.3581
   66CHL1    H6 7300   0.406   0.462  10.543  1.1372  0.0646  0.0252
   66CHL1    C7 7301   0.406   0.551  10.338 -0.0401  1.1587 -0.2483
   66CHL1   H7A 7302   0.297   0.572  10.339 -0.3437 -0.3471  0.1120
   66CHL1   H7B 7303   0.464   0.644  10.356  1.6815  0.1818 -0.6882
   66CHL1    C8 7304   0.443   0.508  10.193  0.6223 -0.3910  0.2763
   66CHL1    H8 7305   0.367   0.433  10.163  2.3111 -1.9205 -0.3311
   66CHL1   C14 7306   0.430   0.628  10.105  0.8536 -0.1146 -0.3505
   66CHL1   H14 7307   0.511   0.697  10.136 -0.8845  1.3760  0.9958
   66CHL1   C15 7308   0.301   0.715  10.125 -0.8515  0.0169  0.1650
   66CHL1  H15A 7309   0.215   0.650  10.148  1.6780 -3.6084 -0.2358
   66CHL1  H15B 7310   0.314   0.788  10.208  5.2257 -1.3384  0.6406
   66CHL1   C16 7311   0.281   0.778   9.987  0.1183 -0.6791  0.3658
   66CHL1  H16A 7312   0.186   0.739   9.944  0.7821  0.6741 -2.4913
   66CHL1  H16B 7313   0.289   0.889   9.978 -0.4619 -0.8505 -3.1741
   66CHL1   C17 7314   0.409   0.726   9.904  0.4244 -0.0227  0.2297
   66CHL1   H17 7315   0.496   0.786   9.936  1.6468 -1.8420  0.4331
   66CHL1   C13 7316   0.447   0.591   9.957  0.4856 -0.0548 -0.3436
   66CHL1   C18 7317   0.340   0.496   9.904  0.1200  0.0207  0.6415
   66CHL1  H18A 7318   0.239   0.539   9.917  0.0561  0.2420 -0.4886
   66CHL1  H18B 7319   0.338   0.473   9.795  0.2374 -0.7381  0.7955
   66CHL1  H18C 7320   0.338   0.396   9.952  0.9236 -1.0322 -1.4658
   66CHL1   C12 7321   0.592   0.539   9.942 -0.2118  0.1521 -0.2195
   66CHL1  H12A 7322   0.618   0.518   9.836 -1.5041 -2.4522 -0.0684
   66CHL1  H12B 7323   0.655   0.626   9.969 -0.7794  1.5951 -3.3083
   66CHL1   C11 7324   0.623   0.421  10.032 -0.6444 -0.0536 -0.4656
   66CHL1  H11A 7325   0.550   0.345   9.998 -0.6804 -0.5034  0.5838
   66CHL1  H11B 7326   0.726   0.384  10.011 -0.1051  0.2071  1.6001
   66CHL1    C9 7327   0.584   0.454  10.187  0.1195 -0.6553  0.1084
   66CHL1    H9 7328   0.662   0.528  10.215 -0.8588 -0.8653  3.5748
   66CHL1   C10 7329   0.609   0.332  10.283  0.2308 -0.0743  0.2810
   66CHL1   C19 7330   0.543   0.206  10.221  0.5326  0.4751 -0.3876
   66CHL1  H19A 7331   0.600   0.176  10.131  1.9248  0.1724  0.5791
   66CHL1  H19B 7332   0.571   0.127  10.294  3.3071  0.9949 -0.8576
   66CHL1  H19C 7333   0.432   0.200  10.225  0.5688 -1.9842 -2.1372
   66CHL1    C1 7334   0.764   0.313  10.306 -0.1916 -0.1268  0.7611
   66CHL1   H1A 7335   0.794   0.273  10.207  1.2526 -0.4722  1.3280
   66CHL1   H1B 7336   0.815   0.412  10.313  0.2759 -0.2360 -0.9747
   66CHL1    C2 7337   0.798   0.210  10.417  0.1615 -0.2918  0.5528
   66CHL1   H2A 7338   0.907   0.196  10.432 -0.0264 -1.6246  0.7447
   66CHL1   H2B 7339   0.751   0.116  10.378 -0.2771 -1.0165  2.7685
   66CHL1   C20 7340   0.408   0.739   9.747  0.1507  0.4766 -0.0779
   66CHL1   H20 7341   0.489   0.675   9.707 -0.5614 -0.4318 -0.0606
   66CHL1   C21 7342   0.466   0.881   9.716  0.2502 -0.0653 -0.6623
   66CHL1  H21A 7343   0.406   0.956   9.773 -0.5126  0.0075 -1.5525
   66CHL1  H21B 7344   0.464   0.894   9.606  1.8900 -0.7584 -0.7935
   66CHL1  H21C 7345   0.574   0.883   9.744 -0.3407  0.3750  1.7429
   66CHL1   C22 7346   0.273   0.719   9.676 -0.2611 -0.3482  0.5723
   66CHL1  H22A 7347   0.213   0.640   9.726  0.1506  0.4288  2.3409
   66CHL1  H22B 7348   0.227   0.821   9.673 -1.6205 -0.9819 -1.1735
   66CHL1   C23 7349   0.290   0.668   9.527  0.6306  0.0561 -0.0339
   66CHL1  H23A 7350   0.313   0.766   9.480 -1.4154 -0.5273 -2.3736
   66CHL1  H23B 7351   0.366   0.587   9.516  0.9015  0.5333 -1.8971
   66CHL1   C24 7352   0.155   0.624   9.464  0.4726  0.1512  0.1800
   66CHL1  H24A 7353   0.120   0.528   9.506  1.2444 -0.0722  0.3173
   66CHL1  H24B 7354   0.079   0.701   9.489  0.1217 -0.4416  0.9625
   66CHL1   C25 7355   0.154   0.600   9.308 -0.5722  0.0079 -0.2617
   66CHL1   H25 7356   0.225   0.515   9.296 -2.0213 -1.2838  0.0878
   66CHL1   C26 7357   0.016   0.545   9.255 -0.0120 -0.4120 -0.1973
   66CHL1  H26A 7358  -0.007   0.553   9.147 -1.0734  0.4567  0.0856
   66CHL1  H26B 7359   0.002   0.443   9.297  0.6497 -0.8330 -0.9821
   66CHL1  H26C 7360  -0.061   0.610   9.301 -0.1260 -1.6157  1.3773
   66CHL1   C27 7361   0.191   0.734   9.246  0.0842  0.3715 -0.0017
   66CHL1  H27A 7362   0.180   0.735   9.135  0.3976 -0.8884 -0.0505
   66CHL1  H27B 7363   0.115   0.809   9.276 -1.1101 -0.1511 -1.5965
   66CHL1  H27C 7364   0.292   0.767   9.278 -0.1527  3.3228 -2.0513
   67CHL1    C3 7365   4.359   1.083  10.393 -0.7675 -0.2734  0.0064
   67CHL1    H3 7366   4.285   1.001  10.395 -0.3821 -0.6724 -1.4260
   67CHL1    O3 7367   4.404   1.119  10.525  0.0001 -0.5137 -0.0446
   67CHL1   H3' 7368   4.478   1.061  10.544 -1.1334 -1.5236  1.4948
   67CHL1    C4 7369   4.481   1.039  10.314  0.4046 -1.0344  0.1259
   67CHL1   H4A 7370   4.560   1.114  10.335 -0.1582 -0.7914  1.4093
   67CHL1   H4B 7371   4.510   0.943  10.363  0.4709 -0.0593  2.0326
   67CHL1    C5 7372   4.459   1.010  10.168 -0.3225 -0.3946  0.0994
   67CHL1    C6 7373   4.497   0.895  10.111  0.2801 -0.5089  0.8738
   67CHL1    H6 7374   4.534   0.816  10.177  1.4839 -0.7249 -0.0377
   67CHL1    C7 7375   4.481   0.858   9.966 -0.5441  0.3037  0.2574
   67CHL1   H7A 7376   4.568   0.809   9.916 -1.0606 -0.8725  0.4921
   67CHL1   H7B 7377   4.388   0.797   9.956  0.1670 -0.8011  0.2737
   67CHL1    C8 7378   4.462   0.988   9.879  0.1824  0.0597 -0.4697
   67CHL1    H8 7379   4.555   1.048   9.884  0.1336  0.0875  0.2356
   67CHL1   C14 7380   4.431   0.948   9.738  0.5031 -0.3875  0.0370
   67CHL1   H14 7381   4.345   0.877   9.735 -0.1764  0.3670  1.3692
   67CHL1   C15 7382   4.539   0.870   9.653  0.0824 -0.2990  0.0738
   67CHL1  H15A 7383   4.632   0.925   9.680  1.3119 -1.5540 -1.4930
   67CHL1  H15B 7384   4.558   0.768   9.692  2.3802 -0.1306 -0.5084
   67CHL1   C16 7385   4.490   0.884   9.509  0.0866 -0.5470 -0.6917
   67CHL1  H16A 7386   4.578   0.903   9.444 -0.0892  2.4693 -0.1134
   67CHL1  H16B 7387   4.450   0.789   9.468 -2.1829 -0.1594  0.5019
   67CHL1   C17 7388   4.383   0.994   9.502 -0.0244  0.0829 -0.3436
   67CHL1   H17 7389   4.285   0.942   9.495 -1.2595  2.2050  0.6668
   67CHL1   C13 7390   4.394   1.064   9.639  0.1297  0.7399 -0.4808
   67CHL1   C18 7391   4.522   1.155   9.627  0.8099  0.2109 -0.3855
   67CHL1  H18A 7392   4.576   1.174   9.722  0.4768 -0.4371 -0.0667
   67CHL1  H18B 7393   4.596   1.106   9.561  1.3564  0.7896 -0.2025
   67CHL1  H18C 7394   4.493   1.259   9.599 -0.4548  0.8872  3.2088
   67CHL1   C12 7395   4.270   1.136   9.692  0.9628  0.0229 -0.4645
   67CHL1  H12A 7396   4.227   1.220   9.634 -0.4527 -1.8961 -2.2391
   67CHL1  H12B 7397   4.183   1.068   9.704 -0.3454  2.0738  2.2037
   67CHL1   C11 7398   4.298   1.179   9.839 -0.8187  0.4584  0.1019
   67CHL1  H11A 7399   4.367   1.266   9.835 -0.8989  0.5588  0.7547
   67CHL1  H11B 7400   4.198   1.216   9.869 -0.7560  1.0602 -0.4325
   67CHL1    C9 7401   4.352   1.073   9.942  0.4891 -0.1591 -0.0696
   67CHL1    H9 7402   4.268   1.001   9.955  0.3233 -0.0187 -0.3646
   67CHL1   C10 7403   4.386   1.123  10.089 -0.5265  0.2715  0.5703
   67CHL1   C19 7404   4.488   1.237  10.065 -0.2651  0.2683  0.1755
   67CHL1  H19A 7405   4.442   1.337  10.075  0.9691  0.8199  0.4324
   67CHL1  H19B 7406   4.577   1.243  10.131 -0.8321  1.2275  0.8548
   67CHL1  H19C 7407   4.528   1.236   9.962 -2.3175  0.7866 -0.6462
   67CHL1    C1 7408   4.261   1.169  10.164 -0.4908  0.1454  0.7167
   67CHL1   H1A 7409   4.215   1.256  10.114  0.0471  0.8488  1.4403
   67CHL1   H1B 7410   4.188   1.088  10.143  0.2465 -0.2357 -0.3855
   67CHL1    C2 7411   4.285   1.194  10.317 -0.0375 -0.0190 -0.2336
   67CHL1   H2A 7412   4.185   1.203  10.366  0.4845 -0.5965  0.9492
   67CHL1   H2B 7413   4.333   1.294  10.318  0.7210 -0.3684  2.2167
   67CHL1   C20 7414   4.389   1.067   9.370 -0.1496 -0.5000  0.5500
   67CHL1   H20 7415   4.479   1.133   9.376  1.1550 -2.2441  0.5996
   67CHL1   C21 7416   4.265   1.161   9.362  0.7241  0.1836  1.0783
   67CHL1  H21A 7417   4.167   1.117   9.389  0.6057  1.5282  2.9002
   67CHL1  H21B 7418   4.243   1.200   9.260 -0.9619 -1.9182  0.5781
   67CHL1  H21C 7419   4.287   1.251   9.423  0.7200  1.7341 -1.1484
   67CHL1   C22 7420   4.394   0.982   9.237  0.2874 -0.3446  0.0794
   67CHL1  H22A 7421   4.400   1.058   9.156  0.3169 -0.4929 -0.0599
   67CHL1  H22B 7422   4.484   0.918   9.231  0.1658 -0.4866 -0.3220
   67CHL1   C23 7423   4.270   0.905   9.203  0.1286 -1.3523  0.1895
   67CHL1  H23A 7424   4.238   0.830   9.279  0.9561 -0.3164  1.5907
   67CHL1  H23B 7425   4.191   0.979   9.178  1.9338  0.2258 -0.9364
   67CHL1   C24 7426   4.283   0.831   9.069 -0.4831  0.2745 -0.1885
   67CHL1  H24A 7427   4.298   0.902   8.985 -0.5177  0.6411  0.1151
   67CHL1  H24B 7428   4.375   0.769   9.071 -0.5394  0.1547 -1.1468
   67CHL1   C25 7429   4.176   0.729   9.039 -0.1867  0.5544 -0.4521
   67CHL1   H25 7430   4.132   0.685   9.131  0.3935 -0.8073 -0.7980
   67CHL1   C26 7431   4.067   0.795   8.959  0.3143 -0.9183  0.4815
   67CHL1  H26A 7432   4.024   0.888   9.003 -1.8266 -1.3510 -0.5852
   67CHL1  H26B 7433   4.105   0.824   8.859  2.3284 -1.2668  1.1211
   67CHL1  H26C 7434   3.991   0.719   8.932 -1.7160  0.9164  0.8613
   67CHL1   C27 7435   4.224   0.608   8.953  0.1770 -0.3649 -0.6070
   67CHL1  H27A 7436   4.265   0.652   8.859  1.8539  0.4894  0.5054
   67CHL1  H27B 7437   4.310   0.554   8.998 -0.7008 -1.3240 -0.0833
   67CHL1  H27C 7438   4.146   0.532   8.933  0.8187 -1.1460 -0.1814
   68CHL1    C3 7439   2.821   1.659  10.314  0.8870  0.9092 -0.2123
   68CHL1    H3 7440   2.727   1.709  10.283  1.4605  1.5785 -0.8899
   68CHL1    O3 7441   2.842   1.676  10.455  0.0655  0.2157  0.7646
   68CHL1   H3' 7442   2.821   1.766  10.480 -0.8642 -0.1297  1.2646
   68CHL1    C4 7443   2.812   1.511  10.294 -0.0556 -0.4765 -0.6603
   68CHL1   H4A 7444   2.903   1.463  10.335  1.5830  0.9318 -2.5626
   68CHL1   H4B 7445   2.725   1.474  10.352 -0.5011  1.0299 -0.3477
   68CHL1    C5 7446   2.790   1.485  10.146 -0.2649  0.1869  0.8626
   68CHL1    C6 7447   2.693   1.411  10.093 -0.2606  0.6513  0.0763
   68CHL1    H6 7448   2.620   1.362  10.160  0.0480  1.0334  0.7040
   68CHL1    C7 7449   2.683   1.373   9.948  0.5172 -0.6019 -0.2459
   68CHL1   H7A 7450   2.654   1.266   9.961 -0.3084 -0.4640 -0.8981
   68CHL1   H7B 7451   2.586   1.420   9.921 -0.3680 -2.0850  0.2845
   68CHL1    C8 7452   2.800   1.406   9.862 -0.2751 -0.5684  0.0772
   68CHL1    H8 7453   2.875   1.326   9.874  0.7379  0.3790  0.1269
   68CHL1   C14 7454   2.759   1.413   9.716 -0.3877  0.0149 -0.3413
   68CHL1   H14 7455   2.675   1.484   9.727 -1.5493 -1.6512  1.9767
   68CHL1   C15 7456   2.701   1.292   9.648 -0.1924  0.3493  0.2843
   68CHL1  H15A 7457   2.767   1.205   9.670  1.6334  1.8945  1.1008
   68CHL1  H15B 7458   2.591   1.282   9.662 -0.6826  1.2974 -2.4679
   68CHL1   C16 7459   2.703   1.330   9.497  0.0274  0.3746  0.0947
   68CHL1  H16A 7460   2.751   1.248   9.439 -0.1004  0.6615 -0.4252
   68CHL1  H16B 7461   2.599   1.344   9.459 -0.4320  0.4036  1.3612
   68CHL1   C17 7462   2.773   1.465   9.500 -0.2417 -0.4455  0.0116
   68CHL1   H17 7463   2.693   1.539   9.519 -0.0004  0.2477 -1.5366
   68CHL1   C13 7464   2.865   1.466   9.617 -0.0946 -0.4621 -0.3213
   68CHL1   C18 7465   2.973   1.360   9.596 -0.0004  0.0628  0.2768
   68CHL1  H18A 7466   2.949   1.275   9.529  0.5493  0.4595 -0.4280
   68CHL1  H18B 7467   3.063   1.414   9.559  0.6423 -0.9263  0.3821
   68CHL1  H18C 7468   3.000   1.324   9.698  2.1440  1.2861  0.1769
   68CHL1   C12 7469   2.912   1.603   9.669  0.7303 -0.4965  0.6891
   68CHL1  H12A 7470   2.996   1.640   9.606  0.5018  1.8840  1.7110
   68CHL1  H12B 7471   2.830   1.678   9.660 -0.5588 -1.9347  0.1540
   68CHL1   C11 7472   2.962   1.590   9.817  0.3425 -0.1930 -0.4206
   68CHL1  H11A 7473   3.047   1.518   9.822 -0.8854 -1.5917  0.6915
   68CHL1  H11B 7474   2.996   1.694   9.836 -0.0321 -0.2516  0.6218
   68CHL1    C9 7475   2.855   1.536   9.909 -0.4404  0.1007  0.5179
   68CHL1    H9 7476   2.767   1.605   9.907 -0.4684  0.0557  0.2590
   68CHL1   C10 7477   2.898   1.547  10.060 -0.1674 -0.6231  0.3427
   68CHL1   C19 7478   3.034   1.484  10.091  0.6330 -0.2729  0.5730
   68CHL1  H19A 7479   3.072   1.500  10.194 -1.1338 -0.5140  1.2845
   68CHL1  H19B 7480   3.029   1.373  10.077  1.7364 -0.4286  1.3916
   68CHL1  H19C 7481   3.121   1.518  10.031  0.7197  2.5184  2.2033
   68CHL1    C1 7482   2.910   1.700  10.084 -0.4980 -0.4970 -0.4814
   68CHL1   H1A 7483   2.994   1.750  10.032  0.0661 -2.4774 -1.5383
   68CHL1   H1B 7484   2.816   1.755  10.062  0.8484  1.8398 -0.5065
   68CHL1    C2 7485   2.927   1.731  10.234 -0.0409 -0.2613 -0.5070
   68CHL1   H2A 7486   2.930   1.842  10.239  1.7132 -0.2622 -1.2658
   68CHL1   H2B 7487   3.033   1.705  10.252  0.0295  1.6304  2.2606
   68CHL1   C20 7488   2.829   1.517   9.362 -0.0711  0.3629 -0.7275
   68CHL1   H20 7489   2.939   1.501   9.368 -0.5599 -2.8388  0.9663
   68CHL1   C21 7490   2.787   1.666   9.352  0.4962  0.1928 -0.8833
   68CHL1  H21A 7491   2.834   1.729   9.431  0.1180 -1.7101  0.9097
   68CHL1  H21B 7492   2.677   1.675   9.358  0.7179  2.5961  0.3501
   68CHL1  H21C 7493   2.823   1.707   9.256 -0.4618  2.1185 -0.4435
   68CHL1   C22 7494   2.774   1.452   9.237 -0.1585  0.8510  0.2351
   68CHL1  H22A 7495   2.790   1.342   9.236 -0.1179  0.8081 -3.9122
   68CHL1  H22B 7496   2.665   1.464   9.218 -0.3204  0.4962  0.9242
   68CHL1   C23 7497   2.836   1.501   9.101  0.3769 -0.6583 -0.8114
   68CHL1  H23A 7498   2.797   1.598   9.064 -0.6692 -1.3817 -1.6390
   68CHL1  H23B 7499   2.944   1.510   9.126  0.1053 -0.2074  0.2144
   68CHL1   C24 7500   2.816   1.396   8.983 -0.6640 -0.3133 -0.2407
   68CHL1  H24A 7501   2.875   1.311   9.024  0.1465 -0.0442 -0.8209
   68CHL1  H24B 7502   2.711   1.364   8.995 -0.5621 -0.6659 -0.2807
   68CHL1   C25 7503   2.874   1.442   8.850  0.7391 -0.2485 -0.2384
   68CHL1   H25 7504   2.858   1.550   8.828  1.9797  0.0568  0.3162
   68CHL1   C26 7505   3.027   1.446   8.834 -0.5475 -0.1630 -0.0034
   68CHL1  H26A 7506   3.069   1.344   8.847  0.1033 -0.2894 -2.8559
   68CHL1  H26B 7507   3.045   1.482   8.731 -2.0691  0.8899  0.0729
   68CHL1  H26C 7508   3.089   1.503   8.907  1.6204 -0.8829 -1.2396
   68CHL1   C27 7509   2.809   1.360   8.741 -0.2822 -0.7242 -0.0099
   68CHL1  H27A 7510   2.875   1.360   8.651 -2.3852 -1.7446 -1.5988
   68CHL1  H27B 7511   2.811   1.254   8.773 -1.3183 -1.0523 -1.0037
   68CHL1  H27C 7512   2.707   1.383   8.705  0.5969 -0.5987 -2.5254
   69CHL1    C3 7513   2.351   6.015   6.847  0.0523  0.2318  0.8528
   69CHL1    H3 7514   2.456   6.013   6.883 -0.0935  3.7533  1.6530
   69CHL1    O3 7515   2.353   5.967   6.714  0.2512 -0.0832  0.3887
   69CHL1   H3' 7516   2.394   5.880   6.715  3.6984  1.4649  2.8991
   69CHL1    C4 7517   2.277   5.914   6.937  0.2491 -0.3039 -0.1004
   69CHL1   H4A 7518   2.175   5.901   6.894  0.2321 -0.8880  0.1154
   69CHL1   H4B 7519   2.324   5.814   6.929 -1.4620 -1.1238 -0.1074
   69CHL1    C5 7520   2.278   5.960   7.076 -0.2026 -0.1185 -0.4879
   69CHL1    C6 7521   2.324   5.888   7.179  0.1321  0.4790 -0.0416
   69CHL1    H6 7522   2.376   5.795   7.154  0.9697  0.4455  1.7681
   69CHL1    C7 7523   2.319   5.916   7.324  0.0036  0.0074 -0.6243
   69CHL1   H7A 7524   2.282   5.833   7.388 -0.0499 -0.1193 -0.8180
   69CHL1   H7B 7525   2.419   5.948   7.361 -0.9910  2.4213  0.0606
   69CHL1    C8 7526   2.227   6.043   7.344 -0.0982 -0.2465 -0.1096
   69CHL1    H8 7527   2.121   6.010   7.334 -0.2051  0.2542 -0.6656
   69CHL1   C14 7528   2.265   6.101   7.476  0.4455 -0.3050 -0.1799
   69CHL1   H14 7529   2.367   6.146   7.474 -0.7164  2.3396 -1.9913
   69CHL1   C15 7530   2.266   6.002   7.593  0.3952  0.2674 -0.8021
   69CHL1  H15A 7531   2.179   5.933   7.592 -0.6815  1.5811 -2.7251
   69CHL1  H15B 7532   2.356   5.938   7.594 -0.0410 -0.3391  0.1210
   69CHL1   C16 7533   2.261   6.086   7.718 -0.8658 -0.5298 -0.1417
   69CHL1  H16A 7534   2.178   6.047   7.781 -0.1294  2.2523  2.6651
   69CHL1  H16B 7535   2.357   6.079   7.772 -1.2504 -0.2777  0.5842
   69CHL1   C17 7536   2.239   6.230   7.671  0.2309  0.2628  0.4077
   69CHL1   H17 7537   2.341   6.271   7.656  0.0339  0.9601  0.9443
   69CHL1   C13 7538   2.180   6.222   7.526  0.0019  0.2628 -0.0573
   69CHL1   C18 7539   2.032   6.198   7.532 -0.3874 -0.0667  0.4726
   69CHL1  H18A 7540   1.986   6.173   7.434 -1.3513  1.2467  0.5789
   69CHL1  H18B 7541   1.992   6.122   7.602 -0.9259  0.2378  0.5040
   69CHL1  H18C 7542   1.986   6.294   7.564  1.5023  0.9687  0.1189
   69CHL1   C12 7543   2.212   6.347   7.436  0.4123  0.2802  0.0138
   69CHL1  H12A 7544   2.151   6.435   7.466  0.6897  1.2688 -2.2657
   69CHL1  H12B 7545   2.322   6.367   7.440  0.0363  3.0567 -1.8098
   69CHL1   C11 7546   2.186   6.292   7.289 -0.6280 -0.9603 -0.3173
   69CHL1  H11A 7547   2.076   6.283   7.276 -0.7636  1.7278 -1.3057
   69CHL1  H11B 7548   2.226   6.373   7.223 -0.1932  0.9442  2.1906
   69CHL1    C9 7549   2.256   6.158   7.246  0.6101  0.0044 -0.0604
   69CHL1    H9 7550   2.365   6.180   7.247  0.6608 -0.2684  0.7594
   69CHL1   C10 7551   2.220   6.100   7.102 -0.4124 -0.3739 -0.3869
   69CHL1   C19 7552   2.066   6.113   7.068 -0.4863 -0.0902 -0.8105
   69CHL1  H19A 7553   2.044   6.220   7.047  1.1971  0.9722  2.4195
   69CHL1  H19B 7554   2.049   6.057   6.974  1.1713 -0.8395 -0.6922
   69CHL1  H19C 7555   1.993   6.085   7.146 -0.8113 -0.8890 -1.3978
   69CHL1    C1 7556   2.293   6.195   6.999 -0.2855  0.0960 -0.0909
   69CHL1   H1A 7557   2.253   6.297   7.015 -0.5835  0.4193 -2.7051
   69CHL1   H1B 7558   2.399   6.207   7.031 -0.3452 -0.3356  0.2724
   69CHL1    C2 7559   2.294   6.155   6.853  0.0846  0.7815 -0.0372
   69CHL1   H2A 7560   2.356   6.222   6.790  2.2844 -1.5550 -0.4477
   69CHL1   H2B 7561   2.198   6.161   6.799  1.0303  2.9481 -1.5679
   69CHL1   C20 7562   2.159   6.309   7.771  0.1211  0.7364  0.0073
   69CHL1   H20 7563   2.061   6.260   7.792  0.6462 -0.1114  0.5167
   69CHL1   C21 7564   2.128   6.449   7.720  0.2993 -0.3039  0.1030
   69CHL1  H21A 7565   2.094   6.512   7.805  0.9122  0.3532 -0.1307
   69CHL1  H21B 7566   2.050   6.464   7.643 -3.2806 -1.8691  3.2501
   69CHL1  H21C 7567   2.216   6.499   7.674  0.4490  0.2971  1.0313
   69CHL1   C22 7568   2.240   6.302   7.910 -0.0253  0.2263 -0.1434
   69CHL1  H22A 7569   2.265   6.195   7.929 -2.2694 -0.5179 -1.1432
   69CHL1  H22B 7570   2.329   6.367   7.898  1.2354 -1.1446  1.5693
   69CHL1   C23 7571   2.150   6.351   8.029  0.7367  0.2587 -0.3209
   69CHL1  H23A 7572   2.100   6.447   8.005  0.2837  0.6997  2.2084
   69CHL1  H23B 7573   2.072   6.273   8.045  0.9959 -0.4542 -2.3754
   69CHL1   C24 7574   2.233   6.379   8.151  0.4682 -0.5700 -0.7497
   69CHL1  H24A 7575   2.241   6.276   8.193  2.0378  0.2655  1.0531
   69CHL1  H24B 7576   2.335   6.418   8.129  1.6147 -1.4445  2.7784
   69CHL1   C25 7577   2.167   6.454   8.262  0.6312 -0.2657 -0.2334
   69CHL1   H25 7578   2.068   6.408   8.285  0.1373  1.1036  0.4264
   69CHL1   C26 7579   2.248   6.446   8.391  0.6347  0.6428 -0.4142
   69CHL1  H26A 7580   2.272   6.339   8.408 -0.9907  0.5024  1.1172
   69CHL1  H26B 7581   2.340   6.508   8.394 -0.4295  2.2524 -0.1509
   69CHL1  H26C 7582   2.187   6.480   8.478  0.8233 -1.7943  0.7071
   69CHL1   C27 7583   2.134   6.602   8.229  0.1386 -0.1873 -0.3126
   69CHL1  H27A 7584   2.224   6.654   8.190 -0.2972  0.3150 -0.6545
   69CHL1  H27B 7585   2.045   6.601   8.163  0.5996 -3.4381 -0.9571
   69CHL1  H27C 7586   2.099   6.643   8.327  1.6975 -1.0589  0.6278
   70CHL1    C3 7587   1.408   3.141   6.973 -0.1060  0.4807 -0.0778
   70CHL1    H3 7588   1.474   3.052   6.986  1.4795  1.9778  2.5820
   70CHL1    O3 7589   1.407   3.178   6.835 -0.1671 -0.2669 -0.4742
   70CHL1   H3' 7590   1.379   3.270   6.832  0.1858 -0.1114  0.5348
   70CHL1    C4 7591   1.266   3.098   7.028  0.0327  0.0799 -0.2904
   70CHL1   H4A 7592   1.200   3.185   7.009  1.3541  1.3096  0.6325
   70CHL1   H4B 7593   1.223   3.019   6.963 -0.9677  0.2388  0.1684
   70CHL1    C5 7594   1.287   3.053   7.167  0.8498  0.4657  0.0930
   70CHL1    C6 7595   1.268   2.926   7.201 -0.0149  0.1110  0.6898
   70CHL1    H6 7596   1.236   2.851   7.127  1.6932 -1.0194  1.0675
   70CHL1    C7 7597   1.281   2.878   7.340  0.8065 -0.3224 -0.1093
   70CHL1   H7A 7598   1.188   2.822   7.363  0.1623  0.8933  0.2410
   70CHL1   H7B 7599   1.374   2.817   7.345  0.1617 -1.3288 -0.1014
   70CHL1    C8 7600   1.290   2.992   7.440  0.3927  0.2001 -0.3668
   70CHL1    H8 7601   1.189   3.035   7.452 -1.8409 -3.8635 -3.3709
   70CHL1   C14 7602   1.342   2.927   7.568  0.5408  1.2032  0.5116
   70CHL1   H14 7603   1.444   2.895   7.536  0.1968  0.2260  0.3638
   70CHL1   C15 7604   1.272   2.807   7.626 -0.5327  0.2270  0.3332
   70CHL1  H15A 7605   1.166   2.834   7.639 -0.0934  2.7995 -1.1589
   70CHL1  H15B 7606   1.286   2.717   7.562  2.0382  1.4312 -0.8907
   70CHL1   C16 7607   1.335   2.789   7.767  0.3894 -0.5047 -0.4327
   70CHL1  H16A 7608   1.258   2.773   7.846 -0.4362  0.6040 -0.9926
   70CHL1  H16B 7609   1.415   2.713   7.778  2.3993  1.3232 -1.9712
   70CHL1   C17 7610   1.410   2.926   7.797 -0.5066  0.2070  0.1018
   70CHL1   H17 7611   1.518   2.904   7.784 -1.0152 -2.7528  0.5570
   70CHL1   C13 7612   1.360   3.022   7.682 -0.9468  0.1167  0.4898
   70CHL1   C18 7613   1.230   3.083   7.739 -0.6930  0.4911  0.1500
   70CHL1  H18A 7614   1.241   3.187   7.779 -1.4084  0.5952  0.0788
   70CHL1  H18B 7615   1.155   3.091   7.658  2.5486 -1.5953 -3.1825
   70CHL1  H18C 7616   1.178   3.010   7.805 -0.4933  0.6955  0.5405
   70CHL1   C12 7617   1.456   3.131   7.630  0.3889 -0.2373  0.3467
   70CHL1  H12A 7618   1.474   3.198   7.717  0.0159  0.5307 -0.1595
   70CHL1  H12B 7619   1.547   3.072   7.606 -0.9730 -2.6066  0.8443
   70CHL1   C11 7620   1.409   3.200   7.506  0.3828 -0.8129 -0.9641
   70CHL1  H11A 7621   1.314   3.252   7.531 -0.3676 -1.6836 -1.9559
   70CHL1  H11B 7622   1.481   3.275   7.468  2.4545 -2.4480 -0.3703
   70CHL1    C9 7623   1.384   3.095   7.393  0.2811 -0.3606  0.3693
   70CHL1    H9 7624   1.481   3.045   7.374 -2.2181 -4.4575 -2.6992
   70CHL1   C10 7625   1.334   3.161   7.258  0.1204  0.3078  0.4842
   70CHL1   C19 7626   1.215   3.260   7.287  0.8115 -0.7903  0.4263
   70CHL1  H19A 7627   1.127   3.206   7.327 -1.2563  1.6058 -0.7123
   70CHL1  H19B 7628   1.237   3.335   7.366  0.1155  0.9658 -0.9993
   70CHL1  H19C 7629   1.183   3.319   7.198  0.0660 -2.3332 -0.3436
   70CHL1    C1 7630   1.465   3.228   7.204  0.3578 -0.2807 -1.0482
   70CHL1   H1A 7631   1.479   3.317   7.270  0.7863 -1.3521  0.3179
   70CHL1   H1B 7632   1.566   3.183   7.212 -0.0814 -1.0485  0.3368
   70CHL1    C2 7633   1.451   3.264   7.052  0.7718  0.5548 -0.3310
   70CHL1   H2A 7634   1.550   3.304   7.023  1.9398 -0.4830  2.0901
   70CHL1   H2B 7635   1.368   3.338   7.042  0.8586  0.5706 -0.9675
   70CHL1   C20 7636   1.404   2.974   7.943 -0.2974 -0.7973  1.5035
   70CHL1   H20 7637   1.303   3.005   7.975  0.2598  0.7917  1.8069
   70CHL1   C21 7638   1.504   3.099   7.964 -0.4693  0.3010 -0.2976
   70CHL1  H21A 7639   1.597   3.084   7.906 -0.0360  1.0801  0.1830
   70CHL1  H21B 7640   1.537   3.115   8.069  0.0071 -1.0686 -0.2356
   70CHL1  H21C 7641   1.456   3.190   7.919 -1.6389  0.6723  1.6461
   70CHL1   C22 7642   1.430   2.865   8.051  0.3820 -0.4607  0.4415
   70CHL1  H22A 7643   1.446   2.913   8.150 -0.2789  3.1071 -1.0991
   70CHL1  H22B 7644   1.351   2.787   8.052  0.0440 -0.1196  0.4343
   70CHL1   C23 7645   1.561   2.784   8.036  0.1391 -0.8380 -0.1333
   70CHL1  H23A 7646   1.559   2.744   7.933  1.3956 -1.5486  0.1091
   70CHL1  H23B 7647   1.653   2.842   8.061  0.2662 -1.1331  0.0831
   70CHL1   C24 7648   1.573   2.655   8.119  0.0907 -0.2558  0.0441
   70CHL1  H24A 7649   1.677   2.618   8.135  0.4030  0.8796  0.7463
   70CHL1  H24B 7650   1.535   2.689   8.218  0.9092 -0.0605  0.2962
   70CHL1   C25 7651   1.488   2.541   8.067  0.1111  0.5750 -0.5748
   70CHL1   H25 7652   1.389   2.576   8.030 -2.0309 -2.1244  2.3167
   70CHL1   C26 7653   1.555   2.463   7.948 -0.6357 -0.0982  0.2325
   70CHL1  H26A 7654   1.577   2.526   7.859 -0.6919 -0.7250 -0.2340
   70CHL1  H26B 7655   1.652   2.424   7.985 -0.0214  1.1620 -0.0274
   70CHL1  H26C 7656   1.490   2.382   7.907 -2.4662  1.0498  0.7913
   70CHL1   C27 7657   1.458   2.445   8.177 -0.7775  0.3266  0.1481
   70CHL1  H27A 7658   1.427   2.491   8.273  0.7304 -0.3745  0.9930
   70CHL1  H27B 7659   1.395   2.359   8.148  0.7693 -0.7557 -0.0347
   70CHL1  H27C 7660   1.554   2.397   8.207 -0.4705  0.2029 -0.9896
   71CHL1    C3 7661   0.925   5.243   6.958 -0.0290  0.4676 -0.4448
   71CHL1    H3 7662   0.849   5.316   6.991 -1.6481 -1.0389 -0.7635
   71CHL1    O3 7663   0.955   5.251   6.820  0.0408  0.0580  0.0831
   71CHL1   H3' 7664   0.878   5.205   6.785 -0.5870  0.4137  0.9616
   71CHL1    C4 7665   1.057   5.261   7.033 -0.6043  0.8498 -0.7306
   71CHL1   H4A 7666   1.132   5.188   6.996  1.5794  2.4829  0.3614
   71CHL1   H4B 7667   1.093   5.364   7.011  0.8696  0.6042  0.4451
   71CHL1    C5 7668   1.050   5.236   7.185 -0.3113  0.0428 -0.1882
   71CHL1    C6 7669   1.096   5.318   7.278  0.6370 -0.3780 -0.5929
   71CHL1    H6 7670   1.146   5.404   7.232  1.9571 -1.3723 -1.0322
   71CHL1    C7 7671   1.091   5.296   7.426  0.2766 -0.1401  0.6630
   71CHL1   H7A 7672   1.197   5.308   7.457  0.5657  1.3399 -0.8902
   71CHL1   H7B 7673   1.029   5.376   7.471 -1.8859 -1.8825  0.8989
   71CHL1    C8 7674   1.052   5.155   7.470 -0.8153  0.8432  0.1886
   71CHL1    H8 7675   1.144   5.094   7.458 -0.3774  1.6070 -0.3855
   71CHL1   C14 7676   0.999   5.144   7.612  0.0680 -0.2890 -0.6995
   71CHL1   H14 7677   0.903   5.199   7.619 -1.2859 -2.5870 -0.9485
   71CHL1   C15 7678   1.089   5.215   7.717 -0.2242 -0.4130 -0.4323
   71CHL1  H15A 7679   1.197   5.201   7.694  0.1576  1.9232 -0.1869
   71CHL1  H15B 7680   1.075   5.325   7.724  1.9031 -0.2521  1.9951
   71CHL1   C16 7681   1.048   5.136   7.843  0.0504 -0.5802 -0.0126
   71CHL1  H16A 7682   1.125   5.082   7.902  1.2108  0.9253 -0.1352
   71CHL1  H16B 7683   1.005   5.203   7.921 -0.3572 -0.7908 -0.0526
   71CHL1   C17 7684   0.942   5.032   7.807 -0.4859  0.0083 -0.4062
   71CHL1   H17 7685   0.845   5.086   7.815 -0.4127 -0.0470  1.0887
   71CHL1   C13 7686   0.969   5.005   7.657 -0.2693 -0.4953  0.5711
   71CHL1   C18 7687   1.087   4.910   7.637  0.2132  0.2734 -0.4062
   71CHL1  H18A 7688   1.160   4.916   7.721  0.1499 -0.8946 -0.2505
   71CHL1  H18B 7689   1.056   4.803   7.634 -0.5185  0.4393  0.6492
   71CHL1  H18C 7690   1.134   4.920   7.538  0.5287  2.6258 -0.0514
   71CHL1   C12 7691   0.854   4.953   7.576 -0.9320  0.2892  0.9805
   71CHL1  H12A 7692   0.828   4.849   7.604 -1.0127 -0.8707 -2.9924
   71CHL1  H12B 7693   0.764   5.011   7.607 -1.3925 -0.5422  1.2188
   71CHL1   C11 7694   0.892   4.955   7.423  0.0783  0.2031  0.6182
   71CHL1  H11A 7695   0.977   4.887   7.402  0.7484  1.1351  0.2181
   71CHL1  H11B 7696   0.805   4.934   7.357  1.5597  1.6529 -1.8762
   71CHL1    C9 7697   0.944   5.096   7.374 -0.0549 -0.0738 -0.6425
   71CHL1    H9 7698   0.858   5.167   7.385 -0.4433 -0.9037  2.1480
   71CHL1   C10 7699   0.983   5.104   7.225  0.3881  0.4399  0.1354
   71CHL1   C19 7700   1.089   4.994   7.199  0.3821  0.5153 -0.4323
   71CHL1  H19A 7701   1.128   5.008   7.096  0.3645  1.8014 -0.2708
   71CHL1  H19B 7702   1.175   5.005   7.268 -0.2569  3.8590 -0.1257
   71CHL1  H19C 7703   1.034   4.898   7.208  0.1145  0.6019 -1.0771
   71CHL1    C1 7704   0.854   5.077   7.131 -1.1837 -0.5558  0.3658
   71CHL1   H1A 7705   0.826   4.969   7.134  0.9894 -1.1498 -0.0074
   71CHL1   H1B 7706   0.774   5.142   7.173  1.0250  1.5858  1.3604
   71CHL1    C2 7707   0.876   5.103   6.984 -0.5791  0.7957  1.1116
   71CHL1   H2A 7708   0.800   5.058   6.916  0.3833 -1.0253  1.2023
   71CHL1   H2B 7709   0.960   5.035   6.959 -2.4474  0.0292 -3.7598
   71CHL1   C20 7710   0.943   4.912   7.902 -0.3521 -0.1382  0.0241
   71CHL1   H20 7711   1.037   4.854   7.895  0.5719  1.2153  0.8491
   71CHL1   C21 7712   0.824   4.816   7.871 -0.0875 -0.7303  0.1569
   71CHL1  H21A 7713   0.847   4.773   7.771 -1.1372  0.4942 -0.6341
   71CHL1  H21B 7714   0.726   4.868   7.870  0.9276  1.2086 -1.6640
   71CHL1  H21C 7715   0.826   4.733   7.945 -0.0041 -0.6737  0.2176
   71CHL1   C22 7716   0.921   4.960   8.049  0.0808  0.2683 -0.0210
   71CHL1  H22A 7717   0.974   5.056   8.065 -2.4420  1.6839  0.0438
   71CHL1  H22B 7718   0.812   4.974   8.059 -0.1629 -0.1587 -1.8958
   71CHL1   C23 7719   0.963   4.863   8.151 -0.3240  0.2900 -0.4252
   71CHL1  H23A 7720   0.917   4.766   8.122  0.6163  0.0985 -1.2977
   71CHL1  H23B 7721   1.072   4.842   8.153 -0.3396  0.2897  0.8295
   71CHL1   C24 7722   0.927   4.895   8.296  0.4876 -0.4297  0.0916
   71CHL1  H24A 7723   0.818   4.916   8.293  0.6405  0.1776 -2.2568
   71CHL1  H24B 7724   0.947   4.805   8.358  1.5648 -0.9267 -0.9693
   71CHL1   C25 7725   1.002   5.013   8.359  0.0248  0.0884 -0.3664
   71CHL1   H25 7726   0.996   5.100   8.290  1.7290  0.2852 -0.2847
   71CHL1   C26 7727   0.940   5.060   8.497 -0.3256 -0.1249  0.1780
   71CHL1  H26A 7728   0.932   4.982   8.575  0.7282 -1.9219 -1.4801
   71CHL1  H26B 7729   1.002   5.148   8.525  0.6709 -0.0983 -1.9691
   71CHL1  H26C 7730   0.841   5.105   8.474  0.3503  1.1727 -0.2906
   71CHL1   C27 7731   1.151   4.991   8.373  0.2738 -0.3135  0.4541
   71CHL1  H27A 7732   1.171   4.890   8.415 -0.0768 -1.2723 -1.6646
   71CHL1  H27B 7733   1.208   4.990   8.278 -1.9096  1.5610 -0.9250
   71CHL1  H27C 7734   1.184   5.067   8.447  0.5847  0.8198 -0.8302
   72CHL1    C3 7735   1.839   3.619   7.082  0.2371  0.3065 -0.0875
   72CHL1    H3 7736   1.845   3.727   7.107 -0.7540  0.0019  1.5387
   72CHL1    O3 7737   1.861   3.607   6.944 -0.0399 -0.6644  0.3783
   72CHL1   H3' 7738   1.873   3.513   6.932  1.8040 -0.6108  1.7095
   72CHL1    C4 7739   1.956   3.551   7.151  0.0859 -0.6450 -0.4861
   72CHL1   H4A 7740   1.962   3.445   7.119 -1.3112 -0.6562 -0.7224
   72CHL1   H4B 7741   2.049   3.602   7.116  0.8560  0.0092  2.3117
   72CHL1    C5 7742   1.945   3.562   7.301 -1.1320  0.3414 -0.4563
   72CHL1    C6 7743   2.041   3.609   7.382  0.3186  0.2739 -0.6078
   72CHL1    H6 7744   2.130   3.652   7.333  0.5221 -0.5942 -1.0071
   72CHL1    C7 7745   2.021   3.614   7.534  0.0818  0.1532  0.2267
   72CHL1   H7A 7746   2.112   3.578   7.587 -0.2691  0.2272  0.8954
   72CHL1   H7B 7747   2.019   3.717   7.576 -1.5998  0.2774 -0.1376
   72CHL1    C8 7748   1.905   3.535   7.588  0.2597  0.2841  0.0302
   72CHL1    H8 7749   1.934   3.429   7.580  0.4592  0.5113 -2.5985
   72CHL1   C14 7750   1.875   3.569   7.737 -0.0136  0.3408  0.1281
   72CHL1   H14 7751   1.828   3.669   7.748 -0.0932  0.3613 -0.3799
   72CHL1   C15 7752   1.995   3.565   7.832 -0.0343 -0.0074 -0.2898
   72CHL1  H15A 7753   2.068   3.483   7.815  1.4718  1.4971 -1.3782
   72CHL1  H15B 7754   2.049   3.662   7.822  0.0495  0.0094  0.2867
   72CHL1   C16 7755   1.928   3.561   7.970  0.5155  0.3181 -0.1648
   72CHL1  H16A 7756   1.984   3.492   8.037  0.6305 -0.5302 -1.1318
   72CHL1  H16B 7757   1.927   3.660   8.022  2.1621  0.0610  0.4124
   72CHL1   C17 7758   1.772   3.532   7.944  0.9530  0.8157 -0.1738
   72CHL1   H17 7759   1.711   3.625   7.945  1.3973  1.1197 -1.3054
   72CHL1   C13 7760   1.764   3.484   7.799  0.2580  0.0744 -0.7630
   72CHL1   C18 7761   1.797   3.338   7.801 -0.4999  0.0531  0.4657
   72CHL1  H18A 7762   1.806   3.300   7.697 -0.5338 -2.1329  1.2323
   72CHL1  H18B 7763   1.894   3.318   7.853 -0.7984  1.3198  1.5501
   72CHL1  H18C 7764   1.713   3.280   7.844  0.1305 -0.4824  1.0000
   72CHL1   C12 7765   1.636   3.518   7.725 -0.6517  0.2129 -0.3489
   72CHL1  H12A 7766   1.555   3.448   7.757 -0.1277 -0.9117 -1.4523
   72CHL1  H12B 7767   1.590   3.618   7.744 -0.5086  0.3838 -0.9026
   72CHL1   C11 7768   1.650   3.487   7.573 -0.5793 -0.7508  0.0583
   72CHL1  H11A 7769   1.662   3.377   7.572 -1.0961 -0.8058 -2.1481
   72CHL1  H11B 7770   1.558   3.512   7.517 -1.5519 -1.4937  1.3038
   72CHL1    C9 7771   1.776   3.548   7.500 -0.0881 -0.3523  0.2983
   72CHL1    H9 7772   1.761   3.658   7.494  1.8716 -0.1127 -0.5671
   72CHL1   C10 7773   1.805   3.511   7.352  0.0005  0.7695 -0.4516
   72CHL1   C19 7774   1.794   3.363   7.340  0.3861 -0.2477  0.1426
   72CHL1  H19A 7775   1.815   3.338   7.234 -0.7320  0.6964 -0.3018
   72CHL1  H19B 7776   1.851   3.303   7.415  1.6205  2.1610  1.1620
   72CHL1  H19C 7777   1.689   3.331   7.357  0.5837 -0.5348  0.8721
   72CHL1    C1 7778   1.685   3.571   7.271  0.5956  0.6002  1.1281
   72CHL1   H1A 7779   1.587   3.527   7.300 -0.0381 -0.6857 -2.7332
   72CHL1   H1B 7780   1.673   3.678   7.299 -1.3267  1.0401 -1.2958
   72CHL1    C2 7781   1.705   3.564   7.123 -0.1685  0.7228 -0.5490
   72CHL1   H2A 7782   1.625   3.618   7.068 -0.3761  2.1335  1.1122
   72CHL1   H2B 7783   1.698   3.454   7.103 -0.4286  0.2655  1.8783
   72CHL1   C20 7784   1.705   3.443   8.050 -0.4749 -0.2040 -0.1938
   72CHL1   H20 7785   1.744   3.341   8.027 -0.1855  0.0771 -0.9549
   72CHL1   C21 7786   1.557   3.450   8.030  0.0228 -0.0116  0.3686
   72CHL1  H21A 7787   1.507   3.380   8.100  0.6316 -1.2425 -0.3976
   72CHL1  H21B 7788   1.528   3.403   7.933  3.2078  2.1672 -1.7378
   72CHL1  H21C 7789   1.515   3.552   8.035 -2.0740 -0.8790  1.1129
   72CHL1   C22 7790   1.740   3.494   8.195  0.0744 -0.7507  0.0730
   72CHL1  H22A 7791   1.849   3.517   8.201 -0.1919  0.0850  2.4243
   72CHL1  H22B 7792   1.693   3.585   8.239  3.3349  0.0662  2.1093
   72CHL1   C23 7793   1.719   3.378   8.301  0.6297  0.0554  0.2556
   72CHL1  H23A 7794   1.610   3.360   8.313  0.3779  1.0446 -0.5437
   72CHL1  H23B 7795   1.770   3.290   8.256 -0.2670 -0.0285 -0.6075
   72CHL1   C24 7796   1.783   3.415   8.437  0.1367  0.1777  0.1640
   72CHL1  H24A 7797   1.763   3.522   8.460  1.7761  0.3935  0.6479
   72CHL1  H24B 7798   1.732   3.359   8.518 -2.9409  2.9326  0.2490
   72CHL1   C25 7799   1.935   3.393   8.446  0.5998 -0.1647 -0.0382
   72CHL1   H25 7800   1.984   3.407   8.347  1.1140 -2.0649 -0.0734
   72CHL1   C26 7801   2.008   3.476   8.559  0.0600  0.2700 -0.5835
   72CHL1  H26A 7802   1.969   3.442   8.658 -0.0543  1.6465 -0.1447
   72CHL1  H26B 7803   2.119   3.462   8.559  0.0379 -0.3677  2.3244
   72CHL1  H26C 7804   1.989   3.583   8.534 -2.6168  0.0363  0.3574
   72CHL1   C27 7805   1.960   3.247   8.473  0.8642 -0.0438 -0.0800
   72CHL1  H27A 7806   1.920   3.186   8.389 -1.0323 -1.9516  2.1360
   72CHL1  H27B 7807   2.066   3.216   8.467  1.2901  1.6401 -1.8908
   72CHL1  H27C 7808   1.917   3.230   8.574  2.3553 -0.3440  0.5134
   73CHL1    C3 7809   0.808   6.464   7.046 -0.2556  0.6198 -0.1418
   73CHL1    H3 7810   0.733   6.528   7.098  0.0585  1.3621 -0.5839
   73CHL1    O3 7811   0.772   6.473   6.907 -0.1419 -0.5585  0.8225
   73CHL1   H3' 7812   0.680   6.446   6.908 -0.3218  0.0209  0.3870
   73CHL1    C4 7813   0.948   6.514   7.068 -0.1765 -0.4847 -0.0429
   73CHL1   H4A 7814   1.008   6.460   6.991  2.0637  3.0258 -0.8306
   73CHL1   H4B 7815   0.937   6.620   7.038 -2.9739 -0.9793 -0.8909
   73CHL1    C5 7816   1.014   6.496   7.203  0.8017 -0.3471 -0.1546
   73CHL1    C6 7817   1.068   6.598   7.271  0.5880  0.5466  0.2443
   73CHL1    H6 7818   1.084   6.695   7.221 -0.4168  1.0125  0.8126
   73CHL1    C7 7819   1.109   6.591   7.416  0.6265 -0.3005  0.2695
   73CHL1   H7A 7820   1.198   6.655   7.435  0.0659  0.6605 -0.2999
   73CHL1   H7B 7821   1.026   6.636   7.474 -0.5617 -0.2391 -1.4467
   73CHL1    C8 7822   1.134   6.442   7.457  0.2505 -0.0199 -0.3080
   73CHL1    H8 7823   1.228   6.413   7.404  0.5001  0.2500 -0.0114
   73CHL1   C14 7824   1.160   6.433   7.607 -0.0959  0.9367 -0.1276
   73CHL1   H14 7825   1.062   6.459   7.653 -0.0382  0.2251  0.4049
   73CHL1   C15 7826   1.259   6.524   7.674 -0.4575 -0.3518  0.4068
   73CHL1  H15A 7827   1.359   6.519   7.625  0.3136  1.0006  1.7978
   73CHL1  H15B 7828   1.215   6.626   7.668 -0.5894 -0.4503 -0.3886
   73CHL1   C16 7829   1.268   6.475   7.817  0.0893 -0.1463  0.1144
   73CHL1  H16A 7830   1.378   6.468   7.832 -0.2596 -2.1277  1.9707
   73CHL1  H16B 7831   1.234   6.544   7.897 -3.7801 -0.3939 -1.2189
   73CHL1   C17 7832   1.200   6.332   7.805 -0.3518  0.7392 -0.3144
   73CHL1   H17 7833   1.096   6.352   7.839 -0.0464  0.3762  0.8790
   73CHL1   C13 7834   1.189   6.294   7.657 -0.3545 -0.1339 -0.0129
   73CHL1   C18 7835   1.324   6.235   7.605  0.3473  0.6328  0.0200
   73CHL1  H18A 7836   1.407   6.307   7.619  0.9962 -0.0024 -0.5494
   73CHL1  H18B 7837   1.352   6.142   7.658  0.7692  1.0337  0.4929
   73CHL1  H18C 7838   1.315   6.209   7.497 -2.5143  4.2093 -0.7026
   73CHL1   C12 7839   1.068   6.201   7.626  0.1157  0.9209 -0.0043
   73CHL1  H12A 7840   1.080   6.096   7.660  0.4548  0.0217 -2.7843
   73CHL1  H12B 7841   0.981   6.246   7.680  1.0591  0.4427  1.9745
   73CHL1   C11 7842   1.029   6.206   7.475  0.3649  0.5482 -0.2619
   73CHL1  H11A 7843   1.108   6.145   7.426 -0.1790  1.9934 -3.0486
   73CHL1  H11B 7844   0.933   6.153   7.455  0.4953  0.6302 -1.1206
   73CHL1    C9 7845   1.023   6.352   7.415 -0.4561  0.0957 -0.8651
   73CHL1    H9 7846   0.939   6.397   7.473  0.4246  1.8660 -0.9335
   73CHL1   C10 7847   0.985   6.361   7.264 -0.4862  0.0758  0.0783
   73CHL1   C19 7848   1.089   6.264   7.188  0.3497 -0.7109 -0.1596
   73CHL1  H19A 7849   1.082   6.276   7.078 -1.3164  0.0653  0.0065
   73CHL1  H19B 7850   1.192   6.300   7.206  0.0729  0.8541 -1.5134
   73CHL1  H19C 7851   1.058   6.162   7.220 -1.9548 -0.1906 -0.6348
   73CHL1    C1 7852   0.835   6.314   7.243 -0.1319 -0.0033  0.1083
   73CHL1   H1A 7853   0.826   6.212   7.287 -2.1884  0.0716 -0.1103
   73CHL1   H1B 7854   0.779   6.391   7.300  3.1694  2.5864  0.0251
   73CHL1    C2 7855   0.791   6.315   7.099  0.2806  0.6371  0.3647
   73CHL1   H2A 7856   0.684   6.287   7.083  1.2274 -2.5857 -0.6750
   73CHL1   H2B 7857   0.856   6.256   7.032 -1.3223  0.4288 -1.0386
   73CHL1   C20 7858   1.268   6.232   7.909  0.1410 -0.3627  0.6716
   73CHL1   H20 7859   1.371   6.211   7.874  0.1006  1.0087 -0.3082
   73CHL1   C21 7860   1.206   6.096   7.902 -0.0101  0.5547  0.2635
   73CHL1  H21A 7861   1.246   6.039   7.989  1.5876  1.5125  0.1591
   73CHL1  H21B 7862   1.243   6.037   7.816 -0.5733 -0.0146  0.4056
   73CHL1  H21C 7863   1.096   6.104   7.915 -0.0939  0.1958 -0.2347
   73CHL1   C22 7864   1.280   6.292   8.052  0.0285  0.7385  0.0590
   73CHL1  H22A 7865   1.323   6.394   8.046 -0.0591  0.9186  2.1188
   73CHL1  H22B 7866   1.181   6.311   8.099 -1.5817 -1.7578 -2.1584
   73CHL1   C23 7867   1.354   6.203   8.161 -0.1877 -0.1197  0.6808
   73CHL1  H23A 7868   1.296   6.114   8.194 -1.0552 -0.4098 -1.5325
   73CHL1  H23B 7869   1.454   6.165   8.129  0.3487 -0.0415  2.2016
   73CHL1   C24 7870   1.377   6.285   8.288  0.6940  0.0380  0.0012
   73CHL1  H24A 7871   1.416   6.387   8.266  1.6252 -0.2536  0.2555
   73CHL1  H24B 7872   1.280   6.314   8.335  0.1525 -0.5373 -0.7554
   73CHL1   C25 7873   1.468   6.210   8.394  0.5188  0.2694  0.2109
   73CHL1   H25 7874   1.483   6.285   8.474 -1.3052 -1.2090  1.9919
   73CHL1   C26 7875   1.395   6.088   8.452  0.0983 -0.4729 -0.1515
   73CHL1  H26A 7876   1.438   6.058   8.550  1.1312 -1.4005 -0.8822
   73CHL1  H26B 7877   1.286   6.103   8.468 -0.0850  0.0174 -1.7742
   73CHL1  H26C 7878   1.401   6.004   8.379 -2.0796 -0.1264 -0.7495
   73CHL1   C27 7879   1.606   6.172   8.344  0.1330 -0.2386  0.1027
   73CHL1  H27A 7880   1.656   6.268   8.314 -0.9371 -0.1920 -1.5827
   73CHL1  H27B 7881   1.663   6.119   8.423 -1.6179 -1.0247  0.8543
   73CHL1  H27C 7882   1.609   6.107   8.254 -0.0866  0.2198 -0.2368
   74CHL1    C3 7883   0.227   4.902   6.821  0.8206 -0.2364  0.4161
   74CHL1    H3 7884   0.215   5.012   6.818  0.1133 -0.2715  1.7130
   74CHL1    O3 7885   0.219   4.853   6.684 -0.0268  0.4192  0.0616
   74CHL1   H3' 7886   0.246   4.761   6.694  0.2758  0.5272  0.2463
   74CHL1    C4 7887   0.356   4.855   6.894 -0.2521 -0.1052  1.3245
   74CHL1   H4A 7888   0.378   4.747   6.877 -0.3216 -0.0833  1.0854
   74CHL1   H4B 7889   0.436   4.897   6.829 -0.3829 -3.7499 -1.4132
   74CHL1    C5 7890   0.362   4.885   7.045 -0.0347 -0.0965  0.0477
   74CHL1    C6 7891   0.467   4.953   7.095 -0.3283 -0.7011 -0.7273
   74CHL1    H6 7892   0.560   4.975   7.040  0.3504 -0.5771  0.4541
   74CHL1    C7 7893   0.477   4.990   7.240 -0.3895  0.2997 -0.0737
   74CHL1   H7A 7894   0.580   4.967   7.273 -0.4160  1.8297  1.1825
   74CHL1   H7B 7895   0.459   5.099   7.252 -2.0882 -0.0041  0.2938
   74CHL1    C8 7896   0.379   4.921   7.338 -0.2089 -0.0409 -0.2357
   74CHL1    H8 7897   0.410   4.817   7.362 -1.9193 -0.3868  0.6189
   74CHL1   C14 7898   0.357   4.999   7.458  0.4305  0.8550  1.2457
   74CHL1   H14 7899   0.306   5.094   7.431 -1.8043 -0.9367 -1.0615
   74CHL1   C15 7900   0.479   5.047   7.527  0.4523  0.0036 -0.7681
   74CHL1  H15A 7901   0.544   4.957   7.539  2.9550  1.9074  0.3384
   74CHL1  H15B 7902   0.534   5.122   7.466  1.0911  0.1169 -0.0679
   74CHL1   C16 7903   0.423   5.097   7.665 -0.1980 -0.1930  0.2444
   74CHL1  H16A 7904   0.496   5.079   7.747  1.1224  0.5051 -0.7623
   74CHL1  H16B 7905   0.429   5.208   7.666  1.1953 -0.2654  0.9511
   74CHL1   C17 7906   0.279   5.039   7.673  0.1684  0.4295  0.5333
   74CHL1   H17 7907   0.207   5.120   7.644 -0.6873 -1.8633 -4.1080
   74CHL1   C13 7908   0.266   4.930   7.565  0.4849  0.0429  0.2555
   74CHL1   C18 7909   0.331   4.796   7.622 -0.2691 -0.9452 -0.2028
   74CHL1  H18A 7910   0.432   4.820   7.662 -1.4046  2.8825  0.5041
   74CHL1  H18B 7911   0.270   4.763   7.709  2.6599 -3.5611  0.9723
   74CHL1  H18C 7912   0.341   4.711   7.551  1.3971 -1.6095  0.7825
   74CHL1   C12 7913   0.127   4.913   7.502  0.1817  0.3462  0.6087
   74CHL1  H12A 7914   0.061   4.852   7.567  1.7946 -2.1080  0.0198
   74CHL1  H12B 7915   0.096   5.019   7.488  1.0622  0.4380 -0.6654
   74CHL1   C11 7916   0.137   4.837   7.372  0.2858 -0.2136 -0.7769
   74CHL1  H11A 7917   0.135   4.727   7.392  0.8490 -0.3008 -1.1888
   74CHL1  H11B 7918   0.034   4.838   7.329  0.4293  0.1950 -1.1061
   74CHL1    C9 7919   0.242   4.891   7.279 -1.0607  0.1169 -0.0703
   74CHL1    H9 7920   0.201   4.994   7.264 -5.0196 -1.2806  0.4694
   74CHL1   C10 7921   0.244   4.832   7.133  0.1111 -0.3344 -0.6053
   74CHL1   C19 7922   0.253   4.682   7.140 -0.1858 -0.8049 -0.1365
   74CHL1  H19A 7923   0.155   4.640   7.109 -0.3252  0.2531 -1.1614
   74CHL1  H19B 7924   0.340   4.641   7.083  1.4229  0.4389  1.3867
   74CHL1  H19C 7925   0.275   4.657   7.246 -0.9314 -1.9696 -0.2445
   74CHL1    C1 7926   0.118   4.883   7.054 -0.4367  0.4400 -0.5780
   74CHL1   H1A 7927   0.024   4.853   7.106 -0.0699 -0.1925 -0.2689
   74CHL1   H1B 7928   0.127   4.993   7.049 -0.2932  0.5213  1.1824
   74CHL1    C2 7929   0.117   4.840   6.903 -0.5938 -0.1754  0.6776
   74CHL1   H2A 7930   0.030   4.888   6.853 -1.0952 -2.4855 -0.7271
   74CHL1   H2B 7931   0.108   4.732   6.877 -0.8236 -0.7259  2.9472
   74CHL1   C20 7932   0.247   5.003   7.822 -0.1774 -0.0291 -0.6242
   74CHL1   H20 7933   0.293   4.908   7.856 -1.9504 -0.2045  1.4014
   74CHL1   C21 7934   0.091   4.977   7.833 -0.6096  0.4084 -0.1199
   74CHL1  H21A 7935   0.064   4.890   7.768 -2.6164 -0.4771  1.8481
   74CHL1  H21B 7936   0.029   5.066   7.812 -0.4956  0.4009 -0.5049
   74CHL1  H21C 7937   0.078   4.956   7.941  0.6416 -4.6688 -0.7892
   74CHL1   C22 7938   0.284   5.097   7.936  0.4216 -0.5048 -0.0274
   74CHL1  H22A 7939   0.378   5.146   7.902  1.8817 -2.9803  0.3560
   74CHL1  H22B 7940   0.210   5.179   7.952 -0.3076 -1.1319 -0.1984
   74CHL1   C23 7941   0.307   5.023   8.073  0.7162 -0.1296  0.4658
   74CHL1  H23A 7942   0.209   4.988   8.112 -0.3665 -0.9318 -2.7906
   74CHL1  H23B 7943   0.379   4.940   8.060 -1.1960 -2.0083  1.5981
   74CHL1   C24 7944   0.350   5.132   8.175  0.2959 -0.2749  0.8718
   74CHL1  H24A 7945   0.435   5.186   8.129  1.9087 -2.6003  1.0173
   74CHL1  H24B 7946   0.260   5.192   8.198 -0.1864 -0.8608  0.5277
   74CHL1   C25 7947   0.405   5.073   8.311  0.3851 -0.7009  0.1823
   74CHL1   H25 7948   0.340   4.992   8.350 -1.8350  0.4262 -1.0335
   74CHL1   C26 7949   0.543   5.016   8.276  0.1923 -0.9212  0.0212
   74CHL1  H26A 7950   0.531   4.939   8.197 -0.6922  1.1538 -1.9095
   74CHL1  H26B 7951   0.612   5.094   8.237 -0.9536  0.2693  0.3604
   74CHL1  H26C 7952   0.592   4.972   8.366 -0.0470  0.4222  0.8338
   74CHL1   C27 7953   0.421   5.189   8.414 -0.7484 -0.0906  0.7610
   74CHL1  H27A 7954   0.483   5.158   8.501 -1.3661 -1.5795  0.6822
   74CHL1  H27B 7955   0.453   5.290   8.380  0.8884 -0.7600  0.3088
   74CHL1  H27C 7956   0.318   5.222   8.442 -0.2280 -0.3187  3.0487
   75CHL1    C3 7957   3.811   6.376   6.732 -0.1274 -0.1069  0.0518
   75CHL1    H3 7958   3.894   6.307   6.757  0.9709  1.0032 -0.5004
   75CHL1    O3 7959   3.810   6.406   6.594  0.4399  0.5377 -0.0787
   75CHL1   H3' 7960   3.821   6.501   6.596  0.9971  0.5084 -1.3172
   75CHL1    C4 7961   3.671   6.318   6.764 -0.2870  0.1762  0.9166
   75CHL1   H4A 7962   3.602   6.402   6.740  1.2436  0.3109 -3.3406
   75CHL1   H4B 7963   3.643   6.230   6.703 -0.4605  1.0248 -0.2525
   75CHL1    C5 7964   3.654   6.299   6.917 -0.0531  0.6073 -0.0601
   75CHL1    C6 7965   3.620   6.179   6.970  0.2874 -0.2414  0.1099
   75CHL1    H6 7966   3.596   6.099   6.898  1.9009  0.8485 -1.6648
   75CHL1    C7 7967   3.606   6.147   7.119  0.5820 -0.3023  0.9407
   75CHL1   H7A 7968   3.511   6.092   7.136 -0.6863  1.8025  0.8262
   75CHL1   H7B 7969   3.681   6.073   7.153  0.7444  0.0915  1.4481
   75CHL1    C8 7970   3.608   6.270   7.208 -0.7524 -0.7821  0.1708
   75CHL1    H8 7971   3.511   6.325   7.206  0.2794  1.0806  0.4896
   75CHL1   C14 7972   3.644   6.220   7.348  0.7496  0.8679  0.0451
   75CHL1   H14 7973   3.747   6.179   7.349 -0.8422 -3.3930  1.3952
   75CHL1   C15 7974   3.554   6.109   7.397  0.0254 -0.2065  0.1174
   75CHL1  H15A 7975   3.448   6.139   7.381  0.0048 -0.1189  0.4261
   75CHL1  H15B 7976   3.592   6.011   7.360 -1.5240 -0.3494 -1.1634
   75CHL1   C16 7977   3.586   6.121   7.548  0.3716  0.4797  0.2292
   75CHL1  H16A 7978   3.489   6.125   7.604 -0.3224 -0.4279 -0.8828
   75CHL1  H16B 7979   3.641   6.031   7.583  2.0663  0.3199 -2.7057
   75CHL1   C17 7980   3.675   6.249   7.573 -0.2952  0.6167  0.8469
   75CHL1   H17 7981   3.780   6.218   7.557 -0.4954  0.5248 -0.2835
   75CHL1   C13 7982   3.649   6.332   7.449  0.4988  0.4226 -0.5454
   75CHL1   C18 7983   3.513   6.408   7.466  0.7579 -0.1283 -0.3709
   75CHL1  H18A 7984   3.428   6.352   7.510  0.5502  0.4968  0.0418
   75CHL1  H18B 7985   3.527   6.502   7.523  1.5142 -0.4246 -0.0566
   75CHL1  H18C 7986   3.486   6.452   7.368  2.9243  0.2666 -0.8284
   75CHL1   C12 7987   3.765   6.427   7.408  0.2625 -0.6224 -0.0802
   75CHL1  H12A 7988   3.775   6.513   7.478  0.7587 -1.5255  0.9786
   75CHL1  H12B 7989   3.861   6.370   7.409  0.3273 -0.5105  0.0341
   75CHL1   C11 7990   3.744   6.480   7.260  0.4857 -0.1618 -0.1679
   75CHL1  H11A 7991   3.655   6.546   7.270  0.8663  0.4389 -0.7477
   75CHL1  H11B 7992   3.832   6.542   7.236  0.2140  1.1685  2.0666
   75CHL1    C9 7993   3.719   6.364   7.161  0.9940 -0.0028  0.1745
   75CHL1    H9 7994   3.809   6.300   7.175  1.2922  0.0789 -1.3472
   75CHL1   C10 7995   3.694   6.410   7.015 -0.2576 -0.6355  0.1064
   75CHL1   C19 7996   3.584   6.519   7.007 -0.5907  0.6811  0.0174
   75CHL1  H19A 7997   3.486   6.478   7.039  0.2370 -2.6722 -1.5149
   75CHL1  H19B 7998   3.600   6.605   7.074  1.1424  1.3859 -1.2814
   75CHL1  H19C 7999   3.567   6.546   6.900  3.5254 -0.1539 -0.9293
   75CHL1    C1 8000   3.824   6.475   6.968  0.4741 -1.0676  0.7169
   75CHL1   H1A 8001   3.858   6.571   7.013 -3.5449  1.2686 -0.9079
   75CHL1   H1B 8002   3.907   6.402   6.978  0.5746 -0.8720  1.2996
   75CHL1    C2 8003   3.833   6.504   6.814 -1.1963 -0.4680  0.0753
   75CHL1   H2A 8004   3.925   6.547   6.769 -1.0018  0.4339  1.3099
   75CHL1   H2B 8005   3.751   6.574   6.787  0.2877  1.1378 -0.3041
   75CHL1   C20 8006   3.664   6.318   7.711  0.2919  0.0693 -0.1220
   75CHL1   H20 8007   3.555   6.337   7.726  0.3786 -1.6905  3.2774
   75CHL1   C21 8008   3.748   6.440   7.726 -0.3228 -0.2812 -0.0451
   75CHL1  H21A 8009   3.762   6.464   7.834  2.2731  0.2219 -0.4455
   75CHL1  H21B 8010   3.706   6.532   7.680 -1.1050 -1.0377 -0.8382
   75CHL1  H21C 8011   3.851   6.429   7.687  0.2652  1.5823  0.9097
   75CHL1   C22 8012   3.683   6.221   7.831 -0.0818  0.3653  0.1802
   75CHL1  H22A 8013   3.668   6.116   7.798  1.3003  0.0235  0.6044
   75CHL1  H22B 8014   3.786   6.228   7.872  0.1865  3.4650 -0.8957
   75CHL1   C23 8015   3.594   6.252   7.957  0.0268 -0.4412  0.0355
   75CHL1  H23A 8016   3.596   6.356   7.996 -1.6025 -0.8730  1.3260
   75CHL1  H23B 8017   3.489   6.225   7.932  0.8219 -2.4106 -1.3199
   75CHL1   C24 8018   3.622   6.155   8.072 -0.0854 -0.6865  0.8078
   75CHL1  H24A 8019   3.596   6.057   8.027 -1.2740  1.1461 -2.6053
   75CHL1  H24B 8020   3.723   6.164   8.117  1.2923  0.0939 -2.3358
   75CHL1   C25 8021   3.518   6.165   8.191 -0.3987 -0.1375  0.0511
   75CHL1   H25 8022   3.423   6.135   8.142 -1.6669  0.6409  1.9648
   75CHL1   C26 8023   3.549   6.061   8.301 -0.0710  0.0136 -0.1176
   75CHL1  H26A 8024   3.512   5.960   8.275 -1.2573  0.5655 -0.6212
   75CHL1  H26B 8025   3.660   6.065   8.312 -0.2364  0.3731  1.5630
   75CHL1  H26C 8026   3.506   6.077   8.403  3.5066 -0.1404  1.5086
   75CHL1   C27 8027   3.521   6.307   8.250 -0.6115 -0.2989 -0.0246
   75CHL1  H27A 8028   3.626   6.340   8.263 -0.8037  0.2046  0.2799
   75CHL1  H27B 8029   3.476   6.381   8.180 -0.7202 -0.9446 -0.6355
   75CHL1  H27C 8030   3.461   6.322   8.342  0.9200 -1.5415  1.2049
   76CHL1    C3 8031   0.151   2.224   7.361 -0.1367  0.2136 -0.4410
   76CHL1    H3 8032   0.160   2.329   7.398  1.4891 -0.4593  1.1225
   76CHL1    O3 8033   0.148   2.221   7.220 -0.5546 -0.2248  0.4277
   76CHL1   H3' 8034   0.165   2.129   7.197  0.1396 -0.0208  0.1117
   76CHL1    C4 8035   0.261   2.136   7.410  0.0623 -0.4181 -0.0016
   76CHL1   H4A 8036   0.254   2.039   7.357  2.0151 -0.2456 -0.6398
   76CHL1   H4B 8037   0.354   2.182   7.371  1.9848 -1.5419  3.0510
   76CHL1    C5 8038   0.256   2.119   7.559  1.1800  0.0400  0.2112
   76CHL1    C6 8039   0.350   2.166   7.644 -0.1693  0.2479 -0.5051
   76CHL1    H6 8040   0.439   2.218   7.606 -0.6340  0.9977 -0.5832
   76CHL1    C7 8041   0.345   2.136   7.794 -0.1566 -0.7852  0.8945
   76CHL1   H7A 8042   0.447   2.112   7.830  1.4444  1.3109 -2.0340
   76CHL1   H7B 8043   0.313   2.233   7.839  2.1018  1.2049 -1.6362
   76CHL1    C8 8044   0.235   2.031   7.837 -0.1828  0.1151 -0.8116
   76CHL1    H8 8045   0.276   1.931   7.809  0.5832  0.7235 -1.9301
   76CHL1   C14 8046   0.222   2.042   7.991  0.1317 -0.0190 -0.0976
   76CHL1   H14 8047   0.200   2.150   8.007 -0.1910  0.0997 -1.2610
   76CHL1   C15 8048   0.348   2.020   8.082  0.1089  0.5619 -0.1376
   76CHL1  H15A 8049   0.397   1.925   8.053  0.3781  0.8696 -0.7111
   76CHL1  H15B 8050   0.425   2.101   8.079  0.5674  0.2292  1.9977
   76CHL1   C16 8051   0.287   2.003   8.219  0.1816 -0.7353  0.6718
   76CHL1  H16A 8052   0.323   1.906   8.260  0.7769 -1.2258 -0.9697
   76CHL1  H16B 8053   0.309   2.090   8.285 -0.6373 -1.1705  1.5315
   76CHL1   C17 8054   0.138   1.992   8.204 -0.6069  0.1083 -0.0867
   76CHL1   H17 8055   0.096   2.094   8.218  1.6382  1.0939 -0.2656
   76CHL1   C13 8056   0.115   1.954   8.052  0.5942  0.4204 -0.2101
   76CHL1   C18 8057   0.148   1.802   8.031  0.4209  0.4179  0.0685
   76CHL1  H18A 8058   0.237   1.776   8.092 -1.4851  1.6083  3.4723
   76CHL1  H18B 8059   0.061   1.734   8.045 -0.4925  1.3384 -0.9602
   76CHL1  H18C 8060   0.181   1.764   7.931  0.0068 -0.8099  0.3871
   76CHL1   C12 8061  -0.016   1.993   7.976  0.2179  1.0726 -0.1607
   76CHL1  H12A 8062  -0.101   1.931   8.013  1.6867  0.0525  1.6257
   76CHL1  H12B 8063  -0.036   2.095   8.013  1.1791  0.3497  2.4728
   76CHL1   C11 8064  -0.006   1.975   7.825 -0.4476 -0.3031 -0.3718
   76CHL1  H11A 8065  -0.010   1.869   7.789 -1.1538 -0.3622 -0.1265
   76CHL1  H11B 8066  -0.101   2.008   7.778 -1.3390 -0.8429  0.9914
   76CHL1    C9 8067   0.109   2.058   7.763 -0.5240 -0.6894  0.1164
   76CHL1    H9 8068   0.087   2.165   7.786 -0.8308 -0.7130 -0.0664
   76CHL1   C10 8069   0.130   2.051   7.610 -0.2036  0.3526  0.1139
   76CHL1   C19 8070   0.123   1.907   7.569  0.2189 -0.5836 -0.0282
   76CHL1  H19A 8071   0.153   1.893   7.462 -2.0861 -1.1698 -0.6241
   76CHL1  H19B 8072   0.192   1.844   7.630  0.7779 -0.1162 -0.1784
   76CHL1  H19C 8073   0.018   1.873   7.578 -0.1958  0.3518 -1.1521
   76CHL1    C1 8074   0.010   2.136   7.553  0.1454  0.3985 -1.0806
   76CHL1   H1A 8075  -0.086   2.083   7.572  0.1285  0.3408 -1.3208
   76CHL1   H1B 8076   0.004   2.227   7.616 -2.0090 -0.4072 -0.0946
   76CHL1    C2 8077   0.016   2.168   7.404 -0.3022  0.3766 -0.5688
   76CHL1   H2A 8078  -0.063   2.240   7.375 -1.5381 -0.9702 -0.6125
   76CHL1   H2B 8079   0.010   2.075   7.343  1.2676 -0.8586  1.1267
   76CHL1   C20 8080   0.086   1.891   8.303 -0.5888 -0.1599  0.0460
   76CHL1   H20 8081   0.130   1.789   8.294  1.9928  0.4729  4.1920
   76CHL1   C21 8082  -0.063   1.869   8.276 -0.2578 -0.8494 -0.4552
   76CHL1  H21A 8083  -0.106   1.796   8.348 -0.6884 -0.2651 -0.1267
   76CHL1  H21B 8084  -0.088   1.825   8.177 -0.8283 -1.2868 -0.1242
   76CHL1  H21C 8085  -0.126   1.958   8.297  1.1438  0.3630 -1.2745
   76CHL1   C22 8086   0.105   1.934   8.454 -0.1279  0.1821 -0.1828
   76CHL1  H22A 8087   0.095   1.839   8.512 -0.2623 -1.1763 -2.3627
   76CHL1  H22B 8088   0.213   1.955   8.462  0.0191 -0.6079 -0.0446
   76CHL1   C23 8089   0.020   2.055   8.488 -0.1031 -0.5089  0.1249
   76CHL1  H23A 8090   0.031   2.132   8.409 -3.6095  1.8050  1.7872
   76CHL1  H23B 8091  -0.088   2.033   8.494 -0.6420  2.0044  0.1036
   76CHL1   C24 8092   0.042   2.121   8.632 -0.3918  0.2561  1.0229
   76CHL1  H24A 8093   0.016   2.036   8.699  1.2544 -1.5810 -0.5966
   76CHL1  H24B 8094   0.147   2.149   8.657  0.1643 -0.7993 -0.1255
   76CHL1   C25 8095  -0.054   2.248   8.665  0.5554  0.4588 -0.1966
   76CHL1   H25 8096  -0.028   2.332   8.597  1.1683  0.2002 -0.2861
   76CHL1   C26 8097  -0.203   2.212   8.660 -0.1635 -0.3372  0.4758
   76CHL1  H26A 8098  -0.231   2.182   8.556  2.3788  0.6238 -0.5275
   76CHL1  H26B 8099  -0.237   2.151   8.746  0.3337  1.0131  1.6386
   76CHL1  H26C 8100  -0.269   2.301   8.671 -0.8201 -0.9561  1.6253
   76CHL1   C27 8101  -0.028   2.297   8.810  0.7037 -0.1316  0.2667
   76CHL1  H27A 8102   0.080   2.321   8.821  0.2559  2.1143  0.0815
   76CHL1  H27B 8103  -0.076   2.396   8.827  1.5480  0.1386  1.1024
   76CHL1  H27C 8104  -0.065   2.219   8.879 -0.4190  0.9330  0.8819
   77CHL1    C3 8105   1.762   6.592   6.817 -0.8790  0.1904 -0.2015
   77CHL1    H3 8106   1.683   6.525   6.857 -1.6418  0.0286 -1.9223
   77CHL1    O3 8107   1.755   6.580   6.675 -0.3512  0.3273  0.5961
   77CHL1   H3' 8108   1.844   6.601   6.645 -1.1355  2.3819 -0.3949
   77CHL1    C4 8109   1.730   6.737   6.860  0.8090 -0.0201  0.0485
   77CHL1   H4A 8110   1.778   6.815   6.796 -0.4498  2.3078  1.8555
   77CHL1   H4B 8111   1.622   6.752   6.842  0.1092 -1.0532  3.1044
   77CHL1    C5 8112   1.765   6.777   7.003  0.3848  0.1625 -0.1639
   77CHL1    C6 8113   1.669   6.830   7.081 -0.3112 -0.2906  0.6932
   77CHL1    H6 8114   1.569   6.846   7.039 -0.4617 -1.1328  0.7194
   77CHL1    C7 8115   1.688   6.862   7.229  0.0483 -0.8069 -0.4558
   77CHL1   H7A 8116   1.634   6.955   7.257 -0.4040 -1.3649  0.5812
   77CHL1   H7B 8117   1.643   6.780   7.290 -1.2641 -0.5559 -1.0659
   77CHL1    C8 8118   1.840   6.871   7.260 -0.1595 -0.2518 -0.3217
   77CHL1    H8 8119   1.888   6.961   7.214  0.8510 -0.4152  0.4017
   77CHL1   C14 8120   1.864   6.876   7.411  0.8084 -0.4365 -1.3145
   77CHL1   H14 8121   1.819   6.781   7.449 -2.1898  1.9627  1.4740
   77CHL1   C15 8122   1.791   6.995   7.496  0.0256 -0.3901 -0.3123
   77CHL1  H15A 8123   1.808   7.084   7.432 -1.2404 -0.8170 -1.2668
   77CHL1  H15B 8124   1.684   6.966   7.507  0.3158 -1.7194 -0.8754
   77CHL1   C16 8125   1.875   7.010   7.628  0.6420 -0.4546 -0.3445
   77CHL1  H16A 8126   1.923   7.110   7.638 -1.8682  0.8358 -0.6236
   77CHL1  H16B 8127   1.807   6.990   7.714  0.9962  1.8345  0.5049
   77CHL1   C17 8128   1.998   6.911   7.616  0.5222  0.7160  0.3959
   77CHL1   H17 8129   1.948   6.818   7.651  1.5123  0.2333  0.5166
   77CHL1   C13 8130   2.011   6.884   7.462  0.3544  0.2027 -0.9543
   77CHL1   C18 8131   2.077   7.014   7.416 -0.1863  0.5905 -0.4938
   77CHL1  H18A 8132   2.082   7.019   7.305 -0.5471  0.6147 -0.5103
   77CHL1  H18B 8133   2.028   7.111   7.439  0.5919  0.6224  1.0670
   77CHL1  H18C 8134   2.184   7.025   7.445 -0.3066 -0.3487  0.3357
   77CHL1   C12 8135   2.080   6.759   7.407 -0.5266  0.4745 -0.0629
   77CHL1  H12A 8136   2.189   6.767   7.428 -0.5974 -2.0267  1.3561
   77CHL1  H12B 8137   2.049   6.667   7.461  2.0558 -0.0616  0.5724
   77CHL1   C11 8138   2.061   6.754   7.254 -0.1359 -0.6244 -0.0158
   77CHL1  H11A 8139   2.116   6.844   7.219 -1.3769  1.1524  2.4100
   77CHL1  H11B 8140   2.114   6.669   7.206  1.7965  0.1949  0.6096
   77CHL1    C9 8141   1.912   6.749   7.204 -0.1166 -0.4871 -1.1589
   77CHL1    H9 8142   1.855   6.666   7.251 -2.0074  1.1975 -0.3508
   77CHL1   C10 8143   1.900   6.733   7.050  0.6836 -0.4393  0.7856
   77CHL1   C19 8144   2.004   6.821   6.978  0.3065 -0.2727 -0.3238
   77CHL1  H19A 8145   2.013   6.926   7.014  0.7900 -1.0210  1.8596
   77CHL1  H19B 8146   2.110   6.786   6.974  0.9225  1.3613  1.0486
   77CHL1  H19C 8147   1.979   6.836   6.871 -0.4564  2.7308  0.2304
   77CHL1    C1 8148   1.908   6.581   7.021 -0.3550 -0.1978  0.7453
   77CHL1   H1A 8149   2.007   6.546   7.058  0.6376  1.0596 -0.6782
   77CHL1   H1B 8150   1.825   6.541   7.083 -1.1737 -0.1586 -0.3210
   77CHL1    C2 8151   1.891   6.538   6.876 -0.0370  1.0911 -0.1795
   77CHL1   H2A 8152   1.896   6.427   6.872 -1.7511  0.8358  2.7950
   77CHL1   H2B 8153   1.960   6.572   6.796 -1.5390 -0.8660 -2.3951
   77CHL1   C20 8154   2.110   6.931   7.716  0.8827 -0.6555  0.6037
   77CHL1   H20 8155   2.169   7.014   7.672 -0.9070  0.6567  0.6282
   77CHL1   C21 8156   2.193   6.804   7.726  0.3483  0.8907 -0.0638
   77CHL1  H21A 8157   2.277   6.830   7.793  1.1387  1.0380 -1.1104
   77CHL1  H21B 8158   2.239   6.782   7.628 -1.8176  0.1736 -0.9605
   77CHL1  H21C 8159   2.149   6.719   7.783  0.6858  1.8194  1.6044
   77CHL1   C22 8160   2.059   6.966   7.859  0.0986 -0.0259 -0.0305
   77CHL1  H22A 8161   2.006   7.063   7.851 -1.5786 -0.9311 -0.1687
   77CHL1  H22B 8162   1.971   6.903   7.883  1.4135 -1.8076  0.2007
   77CHL1   C23 8163   2.165   6.974   7.967 -0.3140 -0.0113  0.4261
   77CHL1  H23A 8164   2.212   6.876   7.990  1.0343  0.2080 -1.2755
   77CHL1  H23B 8165   2.245   7.033   7.918 -0.0070 -0.3594  0.5065
   77CHL1   C24 8166   2.117   7.036   8.100  0.2110  0.6845  0.3598
   77CHL1  H24A 8167   2.084   7.139   8.075  0.0846  0.5211 -0.1633
   77CHL1  H24B 8168   2.024   6.993   8.143  0.5961 -0.2773  0.2379
   77CHL1   C25 8169   2.225   7.054   8.209 -0.0053  0.6757 -0.1903
   77CHL1   H25 8170   2.268   6.954   8.232 -1.6718 -0.3210 -1.2824
   77CHL1   C26 8171   2.341   7.134   8.154 -0.5454  0.1647 -0.7203
   77CHL1  H26A 8172   2.417   7.161   8.231 -0.6399 -2.2048  0.2569
   77CHL1  H26B 8173   2.404   7.083   8.078 -0.5727 -1.0333  0.0451
   77CHL1  H26C 8174   2.309   7.232   8.114 -1.9166  0.1801  0.3863
   77CHL1   C27 8175   2.171   7.129   8.332  0.3989  0.2139 -0.2338
   77CHL1  H27A 8176   2.120   7.223   8.300 -1.3850 -0.3295  0.9213
   77CHL1  H27B 8177   2.117   7.061   8.402 -0.2576 -0.2974 -1.2248
   77CHL1  H27C 8178   2.255   7.169   8.392  0.2506  0.2193 -0.0254
   78CHL1    C3 8179   2.762   1.775   6.616 -0.0561 -0.5284  0.7587
   78CHL1    H3 8180   2.711   1.686   6.659  1.1738 -0.8337  1.5997
   78CHL1    O3 8181   2.734   1.784   6.479 -0.7307  0.5644  0.6223
   78CHL1   H3' 8182   2.788   1.856   6.445 -2.3097  0.9237 -1.1923
   78CHL1    C4 8183   2.711   1.909   6.677 -0.0042  0.3234 -0.8640
   78CHL1   H4A 8184   2.774   1.994   6.646  0.7312 -0.5956 -1.9412
   78CHL1   H4B 8185   2.603   1.922   6.656 -0.0481  1.4802  0.0824
   78CHL1    C5 8186   2.743   1.895   6.825  0.6784 -0.5844  0.2978
   78CHL1    C6 8187   2.645   1.908   6.919  0.1579 -0.6083 -0.7839
   78CHL1    H6 8188   2.546   1.943   6.884  0.6118  0.8916 -0.6082
   78CHL1    C7 8189   2.678   1.916   7.068 -0.2535  0.0840 -0.0826
   78CHL1   H7A 8190   2.623   2.007   7.100 -0.9088 -0.0032 -0.9411
   78CHL1   H7B 8191   2.627   1.837   7.126 -1.0856 -0.8077 -2.0160
   78CHL1    C8 8192   2.831   1.929   7.089  0.4675  0.5654 -0.6049
   78CHL1    H8 8193   2.863   2.034   7.072  2.8314 -0.0530 -0.1868
   78CHL1   C14 8194   2.849   1.900   7.237 -0.9262 -0.8850  0.0368
   78CHL1   H14 8195   2.814   1.795   7.249 -0.7068 -0.9616  0.0070
   78CHL1   C15 8196   2.763   1.985   7.335  0.0760  0.1737  0.5454
   78CHL1  H15A 8197   2.748   2.088   7.297  1.5308 -0.6269 -2.2971
   78CHL1  H15B 8198   2.662   1.943   7.354  0.6924 -0.6126  2.1499
   78CHL1   C16 8199   2.847   1.979   7.463 -0.6331 -0.0540  0.3218
   78CHL1  H16A 8200   2.879   2.083   7.488 -0.7462  0.5262 -1.8819
   78CHL1  H16B 8201   2.772   1.954   7.541 -1.5102 -1.9557 -1.1276
   78CHL1   C17 8202   2.975   1.894   7.434  0.1267  0.3928 -0.3827
   78CHL1   H17 8203   2.931   1.795   7.459  1.7211 -0.6134 -1.4546
   78CHL1   C13 8204   2.996   1.910   7.284 -0.6235  0.3570 -0.6760
   78CHL1   C18 8205   3.064   2.046   7.268 -0.1195 -0.1200 -0.0902
   78CHL1  H18A 8206   3.172   2.043   7.292  0.2813 -0.9891 -1.9637
   78CHL1  H18B 8207   3.058   2.078   7.162 -2.3095  1.0508  0.3515
   78CHL1  H18C 8208   3.009   2.131   7.315  0.8068  0.2461  0.3372
   78CHL1   C12 8209   3.069   1.800   7.199 -0.3955  0.2718  0.5839
   78CHL1  H12A 8210   3.174   1.793   7.234 -0.0200  1.3577 -0.3042
   78CHL1  H12B 8211   3.020   1.701   7.212 -0.5243  0.1763 -0.5959
   78CHL1   C11 8212   3.065   1.820   7.052 -0.0188 -0.1930  0.4478
   78CHL1  H11A 8213   3.099   1.924   7.033 -0.8079 -0.0336 -0.0882
   78CHL1  H11B 8214   3.122   1.743   6.996 -1.1781 -1.1905  0.6196
   78CHL1    C9 8215   2.912   1.831   7.004 -0.3178 -0.0047 -0.3513
   78CHL1    H9 8216   2.864   1.731   7.015  2.3837 -1.6024 -2.2788
   78CHL1   C10 8217   2.899   1.866   6.851  0.6392  0.0812  0.7014
   78CHL1   C19 8218   2.981   1.993   6.819  0.3048 -0.4060  0.2386
   78CHL1  H19A 8219   3.092   1.983   6.822  0.3266 -0.2972 -0.1960
   78CHL1  H19B 8220   2.960   2.026   6.715 -1.1341 -0.0688  0.6331
   78CHL1  H19C 8221   2.956   2.077   6.888  1.4454  1.2641 -1.3200
   78CHL1    C1 8222   2.958   1.743   6.772 -0.6360  0.2067  0.0197
   78CHL1   H1A 8223   3.068   1.727   6.773 -0.4932  0.5225 -3.1426
   78CHL1   H1B 8224   2.919   1.650   6.820  2.2459 -0.9169  0.2693
   78CHL1    C2 8225   2.914   1.753   6.629  0.4374 -0.6820 -0.0132
   78CHL1   H2A 8226   2.945   1.660   6.578  1.5463  1.6644 -3.8209
   78CHL1   H2B 8227   2.965   1.838   6.579 -1.0389 -0.0512 -0.4683
   78CHL1   C20 8228   3.083   1.920   7.541  0.1123 -0.7655 -0.1041
   78CHL1   H20 8229   3.115   2.026   7.530 -0.3616 -0.7552 -1.4331
   78CHL1   C21 8230   3.212   1.845   7.512 -0.9919 -0.4028 -0.3518
   78CHL1  H21A 8231   3.261   1.871   7.415 -3.2399 -1.8960 -1.9222
   78CHL1  H21B 8232   3.191   1.737   7.499  1.2370 -1.0654  1.3857
   78CHL1  H21C 8233   3.290   1.859   7.590 -0.6400  0.5329 -0.8546
   78CHL1   C22 8234   3.032   1.899   7.690 -0.3107 -0.0794  0.6741
   78CHL1  H22A 8235   2.923   1.921   7.694 -0.3283 -0.0184 -0.0978
   78CHL1  H22B 8236   3.061   1.795   7.716  1.6626  0.3300  0.1483
   78CHL1   C23 8237   3.097   1.982   7.802  0.0767 -0.1131  0.6808
   78CHL1  H23A 8238   3.207   1.976   7.793  0.1723  3.7834 -1.5649
   78CHL1  H23B 8239   3.070   2.088   7.785  0.7993  0.5435  3.3256
   78CHL1   C24 8240   3.028   1.936   7.936  0.5661  0.1422 -0.0506
   78CHL1  H24A 8241   2.919   1.932   7.913  0.6929  1.6131 -0.9767
   78CHL1  H24B 8242   3.039   1.831   7.968  0.7647  0.6152  1.4722
   78CHL1   C25 8243   3.050   2.018   8.064  0.5888  0.1484  0.4059
   78CHL1   H25 8244   3.039   2.126   8.043 -1.2883  0.4089  2.5168
   78CHL1   C26 8245   2.958   1.981   8.181 -0.0912  0.5994  0.1754
   78CHL1  H26A 8246   2.851   1.984   8.153  0.4333  0.8442 -1.8684
   78CHL1  H26B 8247   2.995   1.892   8.237 -0.7966  0.8566  1.0612
   78CHL1  H26C 8248   2.971   2.065   8.253  2.0729 -0.0945  0.6234
   78CHL1   C27 8249   3.198   1.996   8.118 -0.7356  0.1641  0.1796
   78CHL1  H27A 8250   3.212   2.078   8.192 -4.1420  0.4187  0.6173
   78CHL1  H27B 8251   3.226   1.902   8.170 -0.5501  0.7920  1.2325
   78CHL1  H27C 8252   3.266   2.009   8.031  0.9576  0.0728  1.4521
   79CHL1    C3 8253   1.266   1.714   7.282 -0.2396  0.2394 -0.7664
   79CHL1    H3 8254   1.289   1.816   7.318 -3.7091  0.4768  0.9278
   79CHL1    O3 8255   1.287   1.716   7.143 -0.1980  0.3769  0.9595
   79CHL1   H3' 8256   1.230   1.643   7.117  0.8601  0.5898 -2.1667
   79CHL1    C4 8257   1.354   1.602   7.352 -0.2674  0.1621  0.5907
   79CHL1   H4A 8258   1.319   1.505   7.309  1.6438  0.1374 -0.9621
   79CHL1   H4B 8259   1.454   1.614   7.306 -1.2747 -2.0662 -2.3292
   79CHL1    C5 8260   1.342   1.601   7.505  0.0156 -0.3025  0.2465
   79CHL1    C6 8261   1.454   1.615   7.581  0.0076 -0.4993 -0.4621
   79CHL1    H6 8262   1.544   1.640   7.524  1.0682 -0.2972  1.2704
   79CHL1    C7 8263   1.454   1.612   7.735 -0.0926  0.3173  0.1946
   79CHL1   H7A 8264   1.523   1.531   7.768  0.3372  0.0205 -1.3817
   79CHL1   H7B 8265   1.503   1.704   7.774  0.0676 -0.2659  1.3968
   79CHL1    C8 8266   1.308   1.593   7.795 -0.3218  0.3840 -0.1166
   79CHL1    H8 8267   1.301   1.482   7.797  0.7683  0.2042 -3.1416
   79CHL1   C14 8268   1.296   1.646   7.935  0.8986 -0.0349 -0.7822
   79CHL1   H14 8269   1.302   1.757   7.924 -0.3117  0.0722 -0.3672
   79CHL1   C15 8270   1.403   1.610   8.037  0.0509  0.6250  0.4996
   79CHL1  H15A 8271   1.445   1.509   8.015  0.4494  0.1241  3.3741
   79CHL1  H15B 8272   1.494   1.672   8.021  0.3733 -0.2411 -1.0903
   79CHL1   C16 8273   1.344   1.627   8.174  0.4740 -0.5509  0.4261
   79CHL1  H16A 8274   1.350   1.532   8.231 -1.9441 -1.9550 -1.5365
   79CHL1  H16B 8275   1.396   1.699   8.240 -1.9477  1.4756  0.1912
   79CHL1   C17 8276   1.202   1.674   8.144 -0.2675  1.6395  0.3080
   79CHL1   H17 8277   1.208   1.783   8.128 -0.6748  1.5541 -0.4476
   79CHL1   C13 8278   1.158   1.614   8.004 -0.3170 -0.4759  0.1429
   79CHL1   C18 8279   1.144   1.467   8.011 -0.4430  0.1647  0.2121
   79CHL1  H18A 8280   1.126   1.422   7.911  0.1308  0.3169  0.0434
   79CHL1  H18B 8281   1.227   1.412   8.059 -1.1692  1.9437  3.6937
   79CHL1  H18C 8282   1.050   1.442   8.065  0.2232 -2.3321  0.2929
   79CHL1   C12 8283   1.045   1.679   7.910 -0.0998 -0.5851 -0.9029
   79CHL1  H12A 8284   0.941   1.651   7.938 -0.7658  2.2208 -0.4119
   79CHL1  H12B 8285   1.060   1.789   7.904 -1.4718 -0.2604  1.2919
   79CHL1   C11 8286   1.055   1.629   7.762 -0.4572  0.4753  0.5600
   79CHL1  H11A 8287   1.039   1.519   7.763  1.5367  0.1382 -1.2696
   79CHL1  H11B 8288   0.981   1.678   7.695 -1.9502 -1.2901  0.8702
   79CHL1    C9 8289   1.194   1.651   7.699 -0.0254  0.5095  0.5285
   79CHL1    H9 8290   1.218   1.760   7.698 -0.6219  0.6371 -0.7232
   79CHL1   C10 8291   1.196   1.598   7.548  0.3560  0.9079  0.2540
   79CHL1   C19 8292   1.145   1.455   7.525 -0.2548 -0.5657  0.5163
   79CHL1  H19A 8293   1.043   1.441   7.567  0.7166  0.5661  3.4227
   79CHL1  H19B 8294   1.139   1.428   7.418  1.3256 -1.7913  0.7134
   79CHL1  H19C 8295   1.214   1.378   7.567  0.6388 -1.0284 -1.7222
   79CHL1    C1 8296   1.105   1.691   7.461  0.6244  0.1656 -0.2397
   79CHL1   H1A 8297   0.999   1.673   7.487  1.4738 -2.8532  1.3630
   79CHL1   H1B 8298   1.129   1.791   7.503 -0.7777  0.0719  0.8121
   79CHL1    C2 8299   1.119   1.686   7.313 -0.0208 -0.1835  0.0060
   79CHL1   H2A 8300   1.064   1.766   7.259  0.9898 -0.6403 -1.7284
   79CHL1   H2B 8301   1.089   1.585   7.276  0.4062 -0.7262  1.1095
   79CHL1   C20 8302   1.113   1.653   8.270  0.3341  0.6201 -0.7046
   79CHL1   H20 8303   1.130   1.551   8.310 -1.9178  0.5398  0.1085
   79CHL1   C21 8304   0.967   1.677   8.234 -0.3363 -0.0266  0.7899
   79CHL1  H21A 8305   0.901   1.645   8.317 -0.5609 -3.1045 -0.4946
   79CHL1  H21B 8306   0.929   1.634   8.139 -0.4310  0.5616  0.5619
   79CHL1  H21C 8307   0.952   1.786   8.217 -0.1928 -0.2622 -1.0021
   79CHL1   C22 8308   1.162   1.741   8.391 -0.1947 -0.5515  0.0349
   79CHL1  H22A 8309   1.271   1.739   8.412 -0.3300  0.6564  0.9327
   79CHL1  H22B 8310   1.131   1.846   8.370  1.3465 -0.3288 -1.1806
   79CHL1   C23 8311   1.114   1.693   8.531 -0.1561  0.1739 -0.5066
   79CHL1  H23A 8312   1.004   1.700   8.524 -0.1925  0.1921  0.0568
   79CHL1  H23B 8313   1.151   1.589   8.540  0.9533  0.6433  0.7329
   79CHL1   C24 8314   1.170   1.768   8.655  0.4280 -0.6126 -0.3246
   79CHL1  H24A 8315   1.280   1.762   8.662  0.4101 -0.2205  0.3486
   79CHL1  H24B 8316   1.135   1.874   8.651  4.1150  0.6407 -2.0373
   79CHL1   C25 8317   1.124   1.700   8.791  0.2612  0.6103  0.0685
   79CHL1   H25 8318   1.016   1.671   8.788  0.8724 -2.1420  2.4502
   79CHL1   C26 8319   1.196   1.559   8.798 -0.8045 -0.5256 -0.5573
   79CHL1  H26A 8320   1.304   1.566   8.774 -0.5171  0.4621  0.9798
   79CHL1  H26B 8321   1.182   1.511   8.897 -0.3345  0.0539 -0.2107
   79CHL1  H26C 8322   1.153   1.485   8.727 -0.6992 -0.8919 -0.2392
   79CHL1   C27 8323   1.153   1.776   8.920  0.3838 -0.1550  0.2164
   79CHL1  H27A 8324   1.153   1.707   9.007 -1.5377 -0.1311  0.2427
   79CHL1  H27B 8325   1.259   1.810   8.922 -0.1424  1.6298 -0.5896
   79CHL1  H27C 8326   1.075   1.854   8.928  1.0556  0.3696  1.9133
   80CHL1    C3 8327   6.786   5.255   7.063 -0.4047 -0.4400  0.1431
   80CHL1    H3 8328   6.813   5.164   7.119  1.2033  0.0451  0.1657
   80CHL1    O3 8329   6.765   5.223   6.926  0.3864  0.1887 -0.3502
   80CHL1   H3' 8330   6.743   5.309   6.889  1.7116  1.1868  1.1263
   80CHL1    C4 8331   6.668   5.328   7.127  0.7758  0.4352 -0.0818
   80CHL1   H4A 8332   6.630   5.419   7.076  0.6260  0.8591  0.7720
   80CHL1   H4B 8333   6.581   5.261   7.113  0.7256  0.3911  0.4057
   80CHL1    C5 8334   6.697   5.354   7.272  0.0611 -0.9952  0.2290
   80CHL1    C6 8335   6.618   5.298   7.368  0.3130  0.1325  0.3213
   80CHL1    H6 8336   6.527   5.245   7.340  1.2847 -1.7512  0.6605
   80CHL1    C7 8337   6.650   5.316   7.515  0.1824  0.8547  0.4281
   80CHL1   H7A 8338   6.558   5.350   7.568 -1.3123 -1.3783 -0.6598
   80CHL1   H7B 8339   6.697   5.222   7.550  0.1034  0.7465  0.2473
   80CHL1    C8 8340   6.751   5.425   7.545 -0.4509 -0.2017  0.8357
   80CHL1    H8 8341   6.697   5.521   7.536 -1.2723 -0.7183  0.1566
   80CHL1   C14 8342   6.804   5.407   7.684  0.3028  0.9455 -0.9966
   80CHL1   H14 8343   6.856   5.310   7.703 -2.1991  0.0085  1.3848
   80CHL1   C15 8344   6.693   5.410   7.792  0.5142  0.3955 -0.4793
   80CHL1  H15A 8345   6.635   5.503   7.776  0.6157  0.4608 -0.4572
   80CHL1  H15B 8346   6.634   5.318   7.770  1.0355 -0.0579 -0.0110
   80CHL1   C16 8347   6.776   5.408   7.923  1.1315 -0.0574  0.5077
   80CHL1  H16A 8348   6.729   5.483   7.990 -0.1973  1.2696 -1.7971
   80CHL1  H16B 8349   6.782   5.306   7.966  1.0079  0.4701  1.7711
   80CHL1   C17 8350   6.920   5.462   7.884 -0.0134  0.0596  0.1872
   80CHL1   H17 8351   6.984   5.371   7.884 -3.3467 -2.3690  0.5542
   80CHL1   C13 8352   6.906   5.512   7.735 -0.3719  0.3447 -0.7970
   80CHL1   C18 8353   6.847   5.655   7.738  0.3041 -0.8602 -0.0202
   80CHL1  H18A 8354   6.931   5.721   7.706  0.4696 -1.1804 -0.2467
   80CHL1  H18B 8355   6.766   5.661   7.663  0.6845  4.0822 -0.2283
   80CHL1  H18C 8356   6.804   5.691   7.834 -0.0380 -1.0590 -0.0988
   80CHL1   C12 8357   7.025   5.498   7.636  0.0338 -0.0524 -0.2086
   80CHL1  H12A 8358   7.113   5.561   7.659 -0.8380  1.1987 -0.2776
   80CHL1  H12B 8359   7.065   5.394   7.646 -2.1704 -0.8831  0.2186
   80CHL1   C11 8360   6.973   5.528   7.495 -0.5854 -0.4793  0.6382
   80CHL1  H11A 8361   6.911   5.620   7.486  0.1124  0.0173  0.8882
   80CHL1  H11B 8362   7.051   5.528   7.416 -0.1297 -1.4495  1.0807
   80CHL1    C9 8363   6.871   5.426   7.447 -0.5999  0.2213 -0.1810
   80CHL1    H9 8364   6.926   5.330   7.460  0.4581  0.8792  0.2289
   80CHL1   C10 8365   6.834   5.433   7.296 -0.1610 -0.5526  0.1830
   80CHL1   C19 8366   6.790   5.579   7.261  0.0466 -0.1900 -0.6083
   80CHL1  H19A 8367   6.722   5.591   7.174 -2.6667 -1.2993  1.2635
   80CHL1  H19B 8368   6.734   5.619   7.348  0.0866 -0.5597 -0.4123
   80CHL1  H19C 8369   6.873   5.650   7.244  1.1127 -1.2904 -0.1306
   80CHL1    C1 8370   6.950   5.387   7.210  0.4662 -0.5266 -0.1479
   80CHL1   H1A 8371   7.034   5.459   7.201  0.3255  0.1804  3.7385
   80CHL1   H1B 8372   6.993   5.289   7.241  1.0997  0.2314  1.3555
   80CHL1    C2 8373   6.905   5.360   7.067  0.3596  0.2195  0.0526
   80CHL1   H2A 8374   6.997   5.325   7.016 -1.0394  0.1128 -2.4955
   80CHL1   H2B 8375   6.873   5.459   7.028  0.8366  1.3150  2.3323
   80CHL1   C20 8376   6.971   5.566   7.991 -0.2563 -0.0487 -0.1840
   80CHL1   H20 8377   6.900   5.649   8.014  0.8305  0.9580 -0.4270
   80CHL1   C21 8378   7.103   5.625   7.945 -0.4272 -0.6992  0.6520
   80CHL1  H21A 8379   7.179   5.543   7.947  0.6094  0.2632  1.7854
   80CHL1  H21B 8380   7.137   5.707   8.013 -0.3120 -0.6899  0.5844
   80CHL1  H21C 8381   7.094   5.678   7.848 -1.7663 -0.9641  0.6243
   80CHL1   C22 8382   6.992   5.494   8.129  0.1398 -0.1543 -0.6168
   80CHL1  H22A 8383   6.897   5.439   8.142  1.0787 -1.3184  1.5139
   80CHL1  H22B 8384   7.071   5.416   8.124  0.1154 -0.2523  0.5070
   80CHL1   C23 8385   7.017   5.579   8.250 -0.1482 -0.3111  0.7389
   80CHL1  H23A 8386   7.108   5.640   8.231 -0.1606 -0.4344  0.2775
   80CHL1  H23B 8387   6.934   5.653   8.260  0.8890  1.3153 -2.0048
   80CHL1   C24 8388   7.028   5.504   8.388 -0.2348  0.0517 -0.1624
   80CHL1  H24A 8389   6.948   5.430   8.408  0.2820 -1.1512 -2.3711
   80CHL1  H24B 8390   7.123   5.446   8.384  0.3101  0.8391  1.0491
   80CHL1   C25 8391   7.041   5.590   8.512 -0.6196 -0.7552  0.7666
   80CHL1   H25 8392   6.971   5.674   8.498 -0.1516 -0.3326  0.9250
   80CHL1   C26 8393   7.014   5.507   8.643  0.7169  0.4179  0.1481
   80CHL1  H26A 8394   7.074   5.414   8.649 -1.3647 -1.0244 -0.8999
   80CHL1  H26B 8395   7.044   5.575   8.726 -0.1660  1.3963 -0.3296
   80CHL1  H26C 8396   6.908   5.490   8.671  0.9939 -0.1209  0.9005
   80CHL1   C27 8397   7.191   5.643   8.532 -0.0752 -0.0846  0.9680
   80CHL1  H27A 8398   7.191   5.708   8.622 -0.8817 -0.3567  1.1629
   80CHL1  H27B 8399   7.256   5.553   8.539  0.2324 -0.0167 -0.8913
   80CHL1  H27C 8400   7.219   5.703   8.443  0.1032 -1.9107 -0.2419
   81CHL1    C3 8401   4.568   5.688   6.897  0.1470  0.4933  0.2295
   81CHL1    H3 8402   4.563   5.586   6.941  2.1850  1.0210  1.7210
   81CHL1    O3 8403   4.594   5.679   6.756  0.1662 -0.3451  0.5188
   81CHL1   H3' 8404   4.569   5.762   6.715  2.0200 -0.0225  0.0339
   81CHL1    C4 8405   4.433   5.760   6.927 -0.6109  0.3105  0.5088
   81CHL1   H4A 8406   4.451   5.855   6.872  1.8006  0.0278  0.7523
   81CHL1   H4B 8407   4.347   5.698   6.893 -0.4917  0.3317  0.1639
   81CHL1    C5 8408   4.412   5.793   7.079 -0.0368 -0.4639  0.1803
   81CHL1    C6 8409   4.303   5.749   7.150 -0.2108  0.6698 -0.4802
   81CHL1    H6 8410   4.232   5.682   7.100  0.5203 -1.6820  1.5701
   81CHL1    C7 8411   4.286   5.777   7.296 -0.0847  0.9823 -0.2558
   81CHL1   H7A 8412   4.182   5.817   7.296 -0.6836 -0.5449 -0.0179
   81CHL1   H7B 8413   4.288   5.681   7.350 -1.7097  0.8394 -0.4247
   81CHL1    C8 8414   4.390   5.874   7.364 -0.2639 -0.1536 -0.3377
   81CHL1    H8 8415   4.369   5.979   7.333 -1.3211 -0.1607  0.3443
   81CHL1   C14 8416   4.395   5.852   7.514 -0.1088 -0.9555 -0.2452
   81CHL1   H14 8417   4.438   5.751   7.533  2.1831  0.2555  1.2870
   81CHL1   C15 8418   4.266   5.878   7.591 -0.0983 -0.4321  0.3770
   81CHL1  H15A 8419   4.215   5.969   7.554 -0.3989 -0.5487  0.4941
   81CHL1  H15B 8420   4.197   5.793   7.570 -0.4904 -0.0905  0.2687
   81CHL1   C16 8421   4.301   5.887   7.738 -0.5395 -0.2117 -0.3826
   81CHL1  H16A 8422   4.257   5.979   7.782 -0.8105 -0.4767 -0.1060
   81CHL1  H16B 8423   4.278   5.795   7.795  0.0489 -1.1091 -1.5722
   81CHL1   C17 8424   4.461   5.908   7.742  0.1310  0.5769  0.0787
   81CHL1   H17 8425   4.498   5.804   7.756  2.2347  1.2351 -0.5233
   81CHL1   C13 8426   4.497   5.946   7.596 -0.1592 -0.2706  0.3399
   81CHL1   C18 8427   4.477   6.098   7.578 -0.5827 -0.1814 -0.2800
   81CHL1  H18A 8428   4.453   6.132   7.476  0.0189 -0.1199 -0.4026
   81CHL1  H18B 8429   4.389   6.134   7.635  0.0576 -0.2257  0.7541
   81CHL1  H18C 8430   4.571   6.146   7.613 -0.3392 -0.1940 -0.9244
   81CHL1   C12 8431   4.633   5.910   7.538 -0.1752  0.2098 -0.6764
   81CHL1  H12A 8432   4.717   5.972   7.577  2.6081 -4.1134  0.4799
   81CHL1  H12B 8433   4.667   5.807   7.560 -0.4368  1.0387  4.1356
   81CHL1   C11 8434   4.634   5.932   7.385  0.1122  0.6480 -0.1354
   81CHL1  H11A 8435   4.630   6.042   7.371 -1.0821  0.9319  2.1760
   81CHL1  H11B 8436   4.735   5.892   7.361  0.8130  1.9462  0.6076
   81CHL1    C9 8437   4.524   5.851   7.309 -1.1675  0.0612  0.5012
   81CHL1    H9 8438   4.543   5.744   7.327  1.2460  0.5481  1.0199
   81CHL1   C10 8439   4.530   5.867   7.149 -0.2226  0.1299  0.7093
   81CHL1   C19 8440   4.530   6.016   7.112  0.2806  0.0913  0.4361
   81CHL1  H19A 8441   4.426   6.053   7.126 -0.0724 -1.2326  1.4018
   81CHL1  H19B 8442   4.605   6.072   7.172 -1.1134  1.6311  0.7898
   81CHL1  H19C 8443   4.546   6.024   7.003  0.2857  1.4038  0.5190
   81CHL1    C1 8444   4.664   5.797   7.106  0.1666  0.2306 -0.0803
   81CHL1   H1A 8445   4.749   5.862   7.134  1.8765 -1.1231 -1.9692
   81CHL1   H1B 8446   4.659   5.707   7.171  1.3835 -0.0360 -0.3506
   81CHL1    C2 8447   4.683   5.763   6.958 -0.2701 -0.4417 -0.3105
   81CHL1   H2A 8448   4.782   5.715   6.941  1.7246  3.8874 -1.8883
   81CHL1   H2B 8449   4.691   5.866   6.916 -1.3512  0.0089  0.5627
   81CHL1   C20 8450   4.519   5.996   7.858  0.0074 -0.0853 -0.1955
   81CHL1   H20 8451   4.490   6.100   7.832 -4.1776 -1.3203 -0.8800
   81CHL1   C21 8452   4.676   5.990   7.866 -0.0360  0.0809 -0.6853
   81CHL1  H21A 8453   4.709   5.888   7.837  0.4865 -0.4570  1.7117
   81CHL1  H21B 8454   4.707   6.017   7.969  0.1117  2.0851 -1.2463
   81CHL1  H21C 8455   4.721   6.064   7.797  1.6544  0.1957  0.5087
   81CHL1   C22 8456   4.451   5.981   7.997 -0.3101  0.2328 -0.6352
   81CHL1  H22A 8457   4.502   6.056   8.061  1.5599 -0.9955 -0.6438
   81CHL1  H22B 8458   4.344   6.010   7.994 -1.2823 -3.2935 -2.4115
   81CHL1   C23 8459   4.462   5.844   8.054 -0.3115 -0.3227 -0.6430
   81CHL1  H23A 8460   4.411   5.756   8.010 -1.3756  0.2116 -0.4823
   81CHL1  H23B 8461   4.573   5.836   8.063 -0.3553 -1.7360 -1.2482
   81CHL1   C24 8462   4.413   5.850   8.197  0.9974 -0.1636  0.2703
   81CHL1  H24A 8463   4.447   5.944   8.245  1.8064  0.0890 -0.7886
   81CHL1  H24B 8464   4.303   5.857   8.185  1.0486  0.0559 -0.0658
   81CHL1   C25 8465   4.453   5.729   8.288  0.5677 -0.6371 -0.7323
   81CHL1   H25 8466   4.398   5.640   8.248 -1.3666  0.6393 -0.9851
   81CHL1   C26 8467   4.599   5.673   8.272  0.6911 -0.1230 -0.2084
   81CHL1  H26A 8468   4.674   5.755   8.279 -0.9511  1.1748  3.3782
   81CHL1  H26B 8469   4.623   5.592   8.344  0.9314 -2.2834 -2.6560
   81CHL1  H26C 8470   4.601   5.642   8.165 -2.2930  0.4193 -0.4582
   81CHL1   C27 8471   4.426   5.759   8.436 -0.0300  0.3081  0.6554
   81CHL1  H27A 8472   4.322   5.797   8.448 -1.1011 -1.7537 -1.5417
   81CHL1  H27B 8473   4.443   5.669   8.498 -1.1174 -1.2213 -1.2242
   81CHL1  H27C 8474   4.489   5.843   8.473 -0.3638  1.3383 -1.0200
   82CHL1    C3 8475   5.696   6.633   7.060  0.4041 -0.3241  0.2354
   82CHL1    H3 8476   5.592   6.661   7.088 -0.8074 -3.7706 -0.5744
   82CHL1    O3 8477   5.683   6.627   6.918  0.3674 -0.1701  0.3252
   82CHL1   H3' 8478   5.681   6.533   6.901  2.4434 -0.7436  2.8482
   82CHL1    C4 8479   5.809   6.736   7.094  0.0078 -0.3952  0.4824
   82CHL1   H4A 8480   5.897   6.700   7.036  0.2891 -0.5715  1.0049
   82CHL1   H4B 8481   5.785   6.832   7.044  3.0431 -0.6747 -1.6742
   82CHL1    C5 8482   5.835   6.745   7.245  0.4156 -0.3154  0.4349
   82CHL1    C6 8483   5.824   6.865   7.300  0.2651  0.2260  0.3414
   82CHL1    H6 8484   5.796   6.950   7.236 -1.1822 -0.8302 -0.4523
   82CHL1    C7 8485   5.834   6.891   7.443  0.3868  0.4598 -0.2442
   82CHL1   H7A 8486   5.884   6.988   7.467  0.8469 -0.4566  2.6253
   82CHL1   H7B 8487   5.734   6.909   7.488  0.1899 -2.8656  0.7783
   82CHL1    C8 8488   5.889   6.768   7.523 -0.6472 -0.5517  0.2921
   82CHL1    H8 8489   6.000   6.765   7.520 -0.6505 -1.2183  0.6204
   82CHL1   C14 8490   5.855   6.779   7.666  0.1516 -0.0060 -0.6456
   82CHL1   H14 8491   5.745   6.784   7.679  0.2401  0.1653  0.0900
   82CHL1   C15 8492   5.910   6.909   7.734 -0.1495  0.4574  0.2933
   82CHL1  H15A 8493   6.008   6.932   7.689 -1.2693  1.7161 -1.5670
   82CHL1  H15B 8494   5.839   6.991   7.710 -3.4488 -1.4206  3.0597
   82CHL1   C16 8495   5.916   6.870   7.881 -0.2761  0.6126  0.0306
   82CHL1  H16A 8496   6.024   6.890   7.900  0.4951 -1.0934 -2.2564
   82CHL1  H16B 8497   5.871   6.946   7.948  0.3561  1.5420 -0.5872
   82CHL1   C17 8498   5.869   6.724   7.892 -0.7978 -0.1461  0.1177
   82CHL1   H17 8499   5.758   6.733   7.886 -0.7438 -0.2285 -1.1303
   82CHL1   C13 8500   5.909   6.671   7.758  0.2130  0.1576  0.4957
   82CHL1   C18 8501   6.067   6.655   7.749  0.3281 -0.2916 -0.5544
   82CHL1  H18A 8502   6.102   6.630   7.646 -2.6038 -0.1495 -1.6432
   82CHL1  H18B 8503   6.119   6.749   7.778 -1.0169  0.3108 -0.0240
   82CHL1  H18C 8504   6.103   6.572   7.813 -2.8262 -1.0229  0.3770
   82CHL1   C12 8505   5.844   6.541   7.706  1.1027  0.6715  0.2377
   82CHL1  H12A 8506   5.882   6.457   7.767 -0.0081 -0.5239 -0.6870
   82CHL1  H12B 8507   5.733   6.539   7.713  1.0832 -1.0280 -0.4938
   82CHL1   C11 8508   5.862   6.508   7.559  0.0853  0.1075  1.1970
   82CHL1  H11A 8509   5.960   6.462   7.536  0.5236  1.2146  0.8161
   82CHL1  H11B 8510   5.787   6.431   7.529  0.1317  0.5891 -0.1834
   82CHL1    C9 8511   5.830   6.630   7.473  0.4974  0.1176 -0.1679
   82CHL1    H9 8512   5.721   6.642   7.489  0.2976 -0.2267 -1.2700
   82CHL1   C10 8513   5.855   6.611   7.323  0.0040 -0.2219  0.5475
   82CHL1   C19 8514   6.005   6.564   7.302  0.6451  0.1492  0.6075
   82CHL1  H19A 8515   6.028   6.568   7.194 -1.6785  2.6849  0.1384
   82CHL1  H19B 8516   6.076   6.633   7.353  0.1034  1.1794 -0.0030
   82CHL1  H19C 8517   6.024   6.459   7.334  0.2076 -0.0851  0.1124
   82CHL1    C1 8518   5.751   6.495   7.273  0.1955 -0.4025  0.1376
   82CHL1   H1A 8519   5.788   6.398   7.312 -1.9271 -1.0959  0.4919
   82CHL1   H1B 8520   5.651   6.514   7.317 -0.6628 -1.3829 -1.3184
   82CHL1    C2 8521   5.729   6.495   7.122  0.3135 -0.2755  0.1948
   82CHL1   H2A 8522   5.650   6.423   7.092  1.8818 -0.8280 -2.8852
   82CHL1   H2B 8523   5.822   6.455   7.076 -0.9881 -0.7318 -2.1202
   82CHL1   C20 8524   5.893   6.638   8.017  0.8107 -0.0205 -0.1943
   82CHL1   H20 8525   5.928   6.541   7.976 -0.4583 -0.2615 -0.7580
   82CHL1   C21 8526   5.764   6.620   8.107 -0.4183  0.3328  0.4698
   82CHL1  H21A 8527   5.681   6.602   8.036 -0.8278  0.0475  1.0169
   82CHL1  H21B 8528   5.738   6.715   8.158 -0.2441  1.3265 -1.2624
   82CHL1  H21C 8529   5.767   6.534   8.177 -0.3150 -1.6256 -1.8855
   82CHL1   C22 8530   6.013   6.693   8.103  0.8118 -0.5167 -0.4419
   82CHL1  H22A 8531   6.095   6.726   8.035  1.2889  1.2698  0.9506
   82CHL1  H22B 8532   5.973   6.784   8.153  0.3055 -0.5408 -0.7983
   82CHL1   C23 8533   6.064   6.597   8.213  0.1072  0.6055 -0.2767
   82CHL1  H23A 8534   5.984   6.545   8.271 -0.9965  2.7376  0.1687
   82CHL1  H23B 8535   6.109   6.503   8.174  3.0659  1.7527  0.2876
   82CHL1   C24 8536   6.166   6.656   8.313  0.0703  0.3340 -0.5194
   82CHL1  H24A 8537   6.251   6.683   8.247  0.7000  1.0209  0.5652
   82CHL1  H24B 8538   6.125   6.753   8.350 -1.0735  0.2682 -1.5680
   82CHL1   C25 8539   6.202   6.573   8.431 -0.2890 -0.3673  0.0384
   82CHL1   H25 8540   6.109   6.551   8.488  0.1770 -0.6950  0.6699
   82CHL1   C26 8541   6.268   6.445   8.391  0.1456  0.5082 -0.3845
   82CHL1  H26A 8542   6.225   6.385   8.307  0.2572  0.1083 -0.1597
   82CHL1  H26B 8543   6.375   6.454   8.365  0.2937 -0.5208 -0.1546
   82CHL1  H26C 8544   6.272   6.370   8.473 -0.2514 -1.9374 -2.5145
   82CHL1   C27 8545   6.296   6.648   8.533  0.0576 -0.4643 -0.0127
   82CHL1  H27A 8546   6.402   6.623   8.512 -0.0938 -2.7716  1.6865
   82CHL1  H27B 8547   6.277   6.757   8.527 -0.4155 -0.5923 -0.9832
   82CHL1  H27C 8548   6.259   6.605   8.629 -0.5510  1.1693  0.4945
   83CHL1    C3 8549   1.496   1.220   7.086  0.1094  1.1908  0.7879
   83CHL1    H3 8550   1.561   1.310   7.082  2.3511 -0.3694  1.0343
   83CHL1    O3 8551   1.449   1.185   6.958 -0.3422 -0.2012  0.6258
   83CHL1   H3' 8552   1.374   1.125   6.965 -0.7190 -0.0457 -1.6684
   83CHL1    C4 8553   1.590   1.111   7.147  0.6094 -0.0567  0.2161
   83CHL1   H4A 8554   1.532   1.018   7.135  0.3930  0.2727 -1.4535
   83CHL1   H4B 8555   1.677   1.101   7.079 -0.1098 -1.1201 -0.5526
   83CHL1    C5 8556   1.628   1.119   7.289  0.0957  0.5414 -0.2055
   83CHL1    C6 8557   1.748   1.082   7.329 -0.6229  0.5204 -0.6973
   83CHL1    H6 8558   1.822   1.056   7.252 -0.3708 -2.7370  0.5775
   83CHL1    C7 8559   1.784   1.073   7.467  0.5797  0.6748  0.2119
   83CHL1   H7A 8560   1.859   0.993   7.486  0.9366  1.4083  1.9923
   83CHL1   H7B 8561   1.840   1.167   7.488  4.1731 -0.9751 -1.5456
   83CHL1    C8 8562   1.666   1.065   7.567  0.0526  0.0717 -0.4476
   83CHL1    H8 8563   1.620   0.965   7.584 -1.6593  0.8783 -0.2835
   83CHL1   C14 8564   1.716   1.104   7.714  0.4060 -0.0973  0.0172
   83CHL1   H14 8565   1.754   1.208   7.704 -0.1100  0.3118  2.1696
   83CHL1   C15 8566   1.824   1.018   7.775 -0.2440 -0.4348  0.0784
   83CHL1  H15A 8567   1.819   0.909   7.752 -0.7322 -0.4218  0.1156
   83CHL1  H15B 8568   1.921   1.061   7.744 -0.3930  0.7650  1.2526
   83CHL1   C16 8569   1.810   1.038   7.929  0.6068 -0.0858  0.0108
   83CHL1  H16A 8570   1.789   0.939   7.974  0.4434 -0.9206 -1.8664
   83CHL1  H16B 8571   1.889   1.095   7.982  1.4874 -0.4124 -0.9329
   83CHL1   C17 8572   1.681   1.130   7.944  0.5459 -0.1330  0.4297
   83CHL1   H17 8573   1.721   1.234   7.948  0.0968  0.1243 -1.2785
   83CHL1   C13 8574   1.599   1.109   7.820  0.1048  0.4231 -0.3041
   83CHL1   C18 8575   1.521   0.979   7.827  0.2626  0.2586 -0.1266
   83CHL1  H18A 8576   1.590   0.892   7.835  0.6469  0.4304 -1.4404
   83CHL1  H18B 8577   1.438   0.977   7.901  1.2509 -0.7970  0.9743
   83CHL1  H18C 8578   1.472   0.954   7.730 -0.6291  2.9724 -0.4161
   83CHL1   C12 8579   1.503   1.219   7.771 -0.0040  0.2371 -0.2964
   83CHL1  H12A 8580   1.414   1.229   7.836  1.1844 -0.0366  1.4227
   83CHL1  H12B 8581   1.555   1.317   7.768  0.6889 -0.1074  0.3125
   83CHL1   C11 8582   1.450   1.193   7.629 -0.5728  0.1773  0.3622
   83CHL1  H11A 8583   1.373   1.113   7.640  0.5030 -0.7744  1.1029
   83CHL1  H11B 8584   1.400   1.290   7.608 -3.0337 -0.9853  0.6590
   83CHL1    C9 8585   1.565   1.166   7.526  0.1242  0.2356  0.3595
   83CHL1    H9 8586   1.617   1.263   7.515  0.2671  0.1351  0.1455
   83CHL1   C10 8587   1.509   1.142   7.383 -0.4825 -0.1178 -0.5992
   83CHL1   C19 8588   1.404   1.025   7.390  0.3001 -0.6142 -0.6862
   83CHL1  H19A 8589   1.451   0.942   7.447  0.9370  0.4835  0.4235
   83CHL1  H19B 8590   1.309   1.054   7.438  0.7162 -2.3515  1.2336
   83CHL1  H19C 8591   1.381   0.991   7.287  0.1413 -0.5814 -0.6618
   83CHL1    C1 8592   1.435   1.263   7.324  0.9537 -0.7346  0.7057
   83CHL1   H1A 8593   1.344   1.285   7.384  0.8404  0.4363  0.1198
   83CHL1   H1B 8594   1.498   1.354   7.337  0.5311 -0.4426  0.7188
   83CHL1    C2 8595   1.380   1.253   7.174  0.6749 -0.3136  0.3815
   83CHL1   H2A 8596   1.334   1.345   7.133 -1.4290 -0.8243  1.5403
   83CHL1   H2B 8597   1.309   1.169   7.164  0.3573 -0.1849  1.5057
   83CHL1   C20 8598   1.621   1.118   8.083  0.0034  0.8339 -0.0512
   83CHL1   H20 8599   1.584   1.014   8.092 -2.8221  1.9138  1.3049
   83CHL1   C21 8600   1.500   1.203   8.098 -0.1013 -0.1173 -0.0396
   83CHL1  H21A 8601   1.402   1.183   8.049 -0.0217 -0.1358 -0.1921
   83CHL1  H21B 8602   1.523   1.304   8.057  0.3190 -0.1764  0.0465
   83CHL1  H21C 8603   1.483   1.218   8.207 -0.3072 -2.5192  0.2719
   83CHL1   C22 8604   1.729   1.136   8.197 -1.1876 -0.4640  0.2567
   83CHL1  H22A 8605   1.801   1.051   8.195 -0.3635  0.2378 -3.3885
   83CHL1  H22B 8606   1.778   1.229   8.163  0.4338 -2.1828 -2.3198
   83CHL1   C23 8607   1.692   1.160   8.348 -0.4450  0.0553  0.3734
   83CHL1  H23A 8608   1.636   1.255   8.332 -1.9428 -0.8267  0.3329
   83CHL1  H23B 8609   1.623   1.087   8.395  1.2165 -0.9811  1.2335
   83CHL1   C24 8610   1.819   1.185   8.430 -0.3724 -0.0151 -0.0140
   83CHL1  H24A 8611   1.873   1.090   8.447 -0.2569 -0.3934 -2.3864
   83CHL1  H24B 8612   1.886   1.239   8.360  1.4564 -2.9684 -0.6109
   83CHL1   C25 8613   1.797   1.268   8.555  0.4219  0.5194  0.0265
   83CHL1   H25 8614   1.742   1.359   8.524 -2.2282 -0.2654  2.1864
   83CHL1   C26 8615   1.698   1.196   8.648  0.0263 -0.0838 -0.1677
   83CHL1  H26A 8616   1.720   1.218   8.755 -2.9283  0.9032  0.2895
   83CHL1  H26B 8617   1.601   1.248   8.637  0.3596  0.5356 -0.1562
   83CHL1  H26C 8618   1.691   1.085   8.642  1.7198 -0.2192  0.1340
   83CHL1   C27 8619   1.926   1.319   8.632 -0.0266  0.2560  0.0699
   83CHL1  H27A 8620   1.995   1.233   8.646  0.1219 -0.2107 -3.1513
   83CHL1  H27B 8621   1.979   1.400   8.579 -0.5068  0.5483  0.0394
   83CHL1  H27C 8622   1.903   1.365   8.730  1.2138  1.6166 -0.2626
   84CHL1    C3 8623   3.956   3.897   6.994  0.3504 -0.2523  0.0351
   84CHL1    H3 8624   4.033   3.978   6.996 -0.4722  0.5323 -0.1739
   84CHL1    O3 8625   3.911   3.892   6.863  0.2952  0.3394  0.2345
   84CHL1   H3' 8626   3.890   3.807   6.824  0.9067  0.1869  0.2271
   84CHL1    C4 8627   4.020   3.764   7.041  0.5681 -0.6699  0.0808
   84CHL1   H4A 8628   3.944   3.682   7.034  0.7614 -0.8177 -0.3097
   84CHL1   H4B 8629   4.102   3.744   6.969  0.2326 -0.2273 -0.4312
   84CHL1    C5 8630   4.072   3.797   7.184  0.4870  0.3529 -0.3431
   84CHL1    C6 8631   4.207   3.790   7.205 -0.1358  0.2259 -0.0497
   84CHL1    H6 8632   4.272   3.752   7.124  1.2254  0.7199  0.7913
   84CHL1    C7 8633   4.277   3.810   7.339 -0.2987 -0.2194  0.8389
   84CHL1   H7A 8634   4.343   3.723   7.360 -0.6795 -0.7803 -0.2828
   84CHL1   H7B 8635   4.333   3.905   7.336 -0.4691 -0.1501 -0.1742
   84CHL1    C8 8636   4.169   3.818   7.452  0.6773 -0.3920  0.2377
   84CHL1    H8 8637   4.131   3.716   7.475  2.0791 -1.3072 -1.4624
   84CHL1   C14 8638   4.223   3.875   7.578 -0.5124  0.0660 -1.1114
   84CHL1   H14 8639   4.269   3.969   7.543  1.2289  0.1524  1.2568
   84CHL1   C15 8640   4.338   3.798   7.641  0.4967 -0.0473 -0.2819
   84CHL1  H15A 8641   4.328   3.688   7.630 -2.5342 -0.0161  1.3902
   84CHL1  H15B 8642   4.435   3.820   7.592  2.7438 -0.0486  3.8974
   84CHL1   C16 8643   4.355   3.844   7.791 -0.1772 -0.1541  0.3602
   84CHL1  H16A 8644   4.346   3.753   7.853 -1.2678 -1.7562 -2.0389
   84CHL1  H16B 8645   4.453   3.893   7.810 -0.5147 -0.1184  2.0825
   84CHL1   C17 8646   4.234   3.944   7.808  0.6983 -0.3602 -0.0622
   84CHL1   H17 8647   4.282   4.040   7.779  2.0214 -0.9597  0.1074
   84CHL1   C13 8648   4.133   3.896   7.696  0.1391 -0.1394 -0.2251
   84CHL1   C18 8649   4.077   3.765   7.746 -0.2274  0.6792  0.2916
   84CHL1  H18A 8650   4.008   3.782   7.831  0.7926 -3.1767  1.9855
   84CHL1  H18B 8651   4.029   3.701   7.669  1.2066 -0.3303  0.2342
   84CHL1  H18C 8652   4.157   3.706   7.794 -0.0535  1.1705  0.6122
   84CHL1   C12 8653   4.032   3.992   7.655  0.2060 -0.5377  0.9451
   84CHL1  H12A 8654   3.960   4.016   7.736 -0.4173 -0.6151  0.4171
   84CHL1  H12B 8655   4.083   4.082   7.612 -4.0651  1.0301 -1.0881
   84CHL1   C11 8656   3.948   3.949   7.528  0.5543  0.0882  0.6246
   84CHL1  H11A 8657   3.883   3.864   7.559 -0.0783  0.0056 -0.8452
   84CHL1  H11B 8658   3.886   4.036   7.498  0.7689  0.4134  1.1313
   84CHL1    C9 8659   4.046   3.906   7.414  0.1502  0.2824 -0.1762
   84CHL1    H9 8660   4.083   4.005   7.379 -2.0137  1.0570 -0.3305
   84CHL1   C10 8661   3.975   3.853   7.287  0.1149 -0.0857  0.2858
   84CHL1   C19 8662   3.872   3.738   7.318  0.1136  0.0365 -0.2255
   84CHL1  H19A 8663   3.827   3.692   7.228 -0.0864 -1.0018  0.4008
   84CHL1  H19B 8664   3.919   3.654   7.374 -2.3918  0.1927  2.1919
   84CHL1  H19C 8665   3.797   3.778   7.389  0.5879 -1.0710  0.9054
   84CHL1    C1 8666   3.905   3.978   7.227  0.6608  0.4798 -0.0356
   84CHL1   H1A 8667   3.836   4.013   7.307 -2.2920  0.0664 -2.3108
   84CHL1   H1B 8668   3.966   4.070   7.232  0.0686  0.9080 -0.6492
   84CHL1    C2 8669   3.851   3.949   7.088 -0.4772  0.6182 -0.2478
   84CHL1   H2A 8670   3.811   4.044   7.045  0.7548  1.2281 -0.0736
   84CHL1   H2B 8671   3.769   3.875   7.100 -0.6463  0.7064 -0.8508
   84CHL1   C20 8672   4.183   3.963   7.956 -0.3803 -0.1653  0.2010
   84CHL1   H20 8673   4.075   3.989   7.957 -0.3799 -0.1859  0.5690
   84CHL1   C21 8674   4.239   4.090   8.026  0.6760 -0.4897 -0.0639
   84CHL1  H21A 8675   4.225   4.172   7.952 -1.2814 -1.2244 -0.5668
   84CHL1  H21B 8676   4.346   4.086   8.054  0.0266 -0.7223  2.4808
   84CHL1  H21C 8677   4.182   4.130   8.113 -1.6250  0.4127 -1.9249
   84CHL1   C22 8678   4.193   3.844   8.048  0.2547  0.1923  0.0624
   84CHL1  H22A 8679   4.116   3.772   8.011 -2.2313  2.4413  0.6987
   84CHL1  H22B 8680   4.296   3.803   8.043  0.4786  0.8630 -1.4151
   84CHL1   C23 8681   4.154   3.858   8.197  0.8866 -0.2226 -0.7074
   84CHL1  H23A 8682   4.173   3.758   8.242  1.1032 -0.0906 -0.5022
   84CHL1  H23B 8683   4.231   3.926   8.237 -0.1472 -0.5230  1.8400
   84CHL1   C24 8684   4.012   3.911   8.229 -0.0371  0.0926  0.8201
   84CHL1  H24A 8685   3.998   4.019   8.205 -1.7861  0.0126  1.4210
   84CHL1  H24B 8686   3.941   3.853   8.167  0.3831  1.4075 -0.9213
   84CHL1   C25 8687   3.981   3.898   8.382  0.3948 -0.0050  0.4276
   84CHL1   H25 8688   3.955   3.792   8.403  0.0267 -0.2869 -1.4075
   84CHL1   C26 8689   4.095   3.950   8.472 -0.2620 -1.1005  0.7107
   84CHL1  H26A 8690   4.184   3.883   8.459  0.7933  0.4140 -0.0288
   84CHL1  H26B 8691   4.110   4.055   8.442  0.4722 -0.8651  1.8675
   84CHL1  H26C 8692   4.075   3.957   8.581  0.6147 -1.0885  0.8799
   84CHL1   C27 8693   3.854   3.982   8.419 -0.5646  0.4450  0.5264
   84CHL1  H27A 8694   3.764   3.933   8.376 -0.0849 -2.1433  2.3553
   84CHL1  H27B 8695   3.850   3.980   8.530  0.6160 -0.6709  0.5556
   84CHL1  H27C 8696   3.876   4.086   8.385  0.0508  0.9005  2.2515
   85CHL1    C3 8697   3.227   0.571   6.866  0.3095 -0.3990 -0.4853
   85CHL1    H3 8698   3.137   0.630   6.896  1.9129  0.2748  3.2964
   85CHL1    O3 8699   3.210   0.555   6.727 -0.1448  0.6262 -0.5942
   85CHL1   H3' 8700   3.272   0.487   6.701  0.1848  1.0508 -0.9296
   85CHL1    C4 8701   3.360   0.650   6.891 -0.0326  0.2605 -0.3911
   85CHL1   H4A 8702   3.436   0.588   6.838 -0.2141 -1.0024  0.8119
   85CHL1   H4B 8703   3.353   0.745   6.834 -0.3691 -0.2690 -1.2584
   85CHL1    C5 8704   3.396   0.661   7.040 -0.1265 -0.0398 -0.0114
   85CHL1    C6 8705   3.411   0.777   7.106 -1.2359  0.0385 -0.2325
   85CHL1    H6 8706   3.417   0.869   7.046  1.8735  0.6403  0.8862
   85CHL1    C7 8707   3.469   0.799   7.247 -0.0640  0.3865  0.6988
   85CHL1   H7A 8708   3.557   0.866   7.243 -0.7292  1.2347 -0.0807
   85CHL1   H7B 8709   3.400   0.851   7.317  0.2149  0.2914  1.0466
   85CHL1    C8 8710   3.508   0.665   7.305  0.0202 -0.4310 -0.1790
   85CHL1    H8 8711   3.618   0.655   7.293 -0.0430 -0.8346 -0.4476
   85CHL1   C14 8712   3.502   0.673   7.461 -0.3630  0.3288 -0.1918
   85CHL1   H14 8713   3.393   0.684   7.482  0.0193  0.9131  1.6197
   85CHL1   C15 8714   3.556   0.797   7.536  0.1457  0.3879 -0.1904
   85CHL1  H15A 8715   3.654   0.833   7.499  0.6102  0.0655  0.7311
   85CHL1  H15B 8716   3.483   0.880   7.518 -1.5608 -0.8815  0.7447
   85CHL1   C16 8717   3.547   0.756   7.686  0.5666 -0.3407 -0.3863
   85CHL1  H16A 8718   3.649   0.766   7.729  0.0574  0.5365  0.6430
   85CHL1  H16B 8719   3.464   0.812   7.734  1.4620  0.0957  0.6874
   85CHL1   C17 8720   3.507   0.601   7.688  0.6415  0.3724 -0.5394
   85CHL1   H17 8721   3.397   0.596   7.697  0.9454 -2.9439  2.3065
   85CHL1   C13 8722   3.536   0.552   7.545  0.2444 -0.2681 -0.1872
   85CHL1   C18 8723   3.687   0.513   7.538  0.9104 -0.0773  0.6064
   85CHL1  H18A 8724   3.746   0.603   7.566 -0.0070  0.4188  0.9768
   85CHL1  H18B 8725   3.706   0.428   7.606 -0.7898 -0.3817  0.7231
   85CHL1  H18C 8726   3.725   0.466   7.445  0.7759 -1.2171  1.1187
   85CHL1   C12 8727   3.437   0.441   7.501 -0.5846 -0.4832  0.2420
   85CHL1  H12A 8728   3.466   0.344   7.546  1.7321  0.1893  0.2508
   85CHL1  H12B 8729   3.334   0.474   7.524  0.2319  2.0474  0.4217
   85CHL1   C11 8730   3.427   0.415   7.353 -0.0800  0.1108 -0.1853
   85CHL1  H11A 8731   3.520   0.360   7.327  0.0402  0.3918 -0.3532
   85CHL1  H11B 8732   3.341   0.347   7.336  2.3926 -3.0666 -0.3776
   85CHL1    C9 8733   3.417   0.548   7.267 -0.0203 -0.0572 -0.0031
   85CHL1    H9 8734   3.313   0.580   7.289  0.4485  0.9424  0.8283
   85CHL1   C10 8735   3.398   0.528   7.117  0.0440  0.2823  0.4272
   85CHL1   C19 8736   3.521   0.443   7.075 -0.5543 -0.2294 -0.2881
   85CHL1  H19A 8737   3.539   0.450   6.966 -1.7806  4.7925 -0.2990
   85CHL1  H19B 8738   3.608   0.501   7.114 -1.1864  0.6666 -0.1782
   85CHL1  H19C 8739   3.522   0.337   7.106 -2.1824 -0.4508 -0.9727
   85CHL1    C1 8740   3.274   0.457   7.084  0.5102 -0.4733 -0.4297
   85CHL1   H1A 8741   3.285   0.359   7.135  0.8298 -0.2315 -0.0367
   85CHL1   H1B 8742   3.182   0.494   7.134 -0.0292 -0.6100 -1.3100
   85CHL1    C2 8743   3.236   0.435   6.934 -0.4859  0.1018  0.0341
   85CHL1   H2A 8744   3.134   0.392   6.931 -0.1452 -0.6376 -1.9885
   85CHL1   H2B 8745   3.316   0.376   6.883 -1.9379 -1.1309 -0.8543
   85CHL1   C20 8746   3.552   0.528   7.820  0.4180  0.6353  0.5614
   85CHL1   H20 8747   3.661   0.509   7.807 -0.1335 -1.3725 -1.2518
   85CHL1   C21 8748   3.489   0.384   7.834 -0.0780 -0.4425  0.7391
   85CHL1  H21A 8749   3.533   0.347   7.929 -0.6386 -0.3695  1.0271
   85CHL1  H21B 8750   3.516   0.315   7.751 -0.0581 -0.4055  0.7147
   85CHL1  H21C 8751   3.380   0.390   7.854 -0.5138 -2.1258 -1.0271
   85CHL1   C22 8752   3.527   0.617   7.946 -0.3564  0.6237  0.0370
   85CHL1  H22A 8753   3.587   0.565   8.023 -2.6202 -1.4550  0.4457
   85CHL1  H22B 8754   3.563   0.721   7.928 -1.3046  0.9131 -0.2230
   85CHL1   C23 8755   3.385   0.638   7.992 -0.0306 -0.6013 -0.3600
   85CHL1  H23A 8756   3.333   0.655   7.895 -0.1093 -2.0986 -0.6012
   85CHL1  H23B 8757   3.353   0.542   8.038  1.5114 -0.8169  0.3002
   85CHL1   C24 8758   3.348   0.743   8.093 -0.8712  0.1961 -0.3692
   85CHL1  H24A 8759   3.397   0.828   8.042  0.8977 -1.6884 -1.9385
   85CHL1  H24B 8760   3.240   0.760   8.110 -0.9710 -1.0962  0.3676
   85CHL1   C25 8761   3.422   0.745   8.232  0.1943 -0.1098 -0.3551
   85CHL1   H25 8762   3.438   0.639   8.261 -0.4841  0.3851  1.9619
   85CHL1   C26 8763   3.553   0.828   8.234 -0.0188 -0.3702  0.3117
   85CHL1  H26A 8764   3.628   0.788   8.162 -1.5409  0.3274 -1.7098
   85CHL1  H26B 8765   3.525   0.934   8.215  0.2158 -0.3151  0.2710
   85CHL1  H26C 8766   3.589   0.828   8.339 -1.6029 -2.7772  0.8875
   85CHL1   C27 8767   3.327   0.808   8.343 -1.3155  0.9226  0.6476
   85CHL1  H27A 8768   3.296   0.909   8.312  1.6830  1.1746 -1.6921
   85CHL1  H27B 8769   3.233   0.753   8.365 -1.9488  1.9590  0.5246
   85CHL1  H27C 8770   3.386   0.810   8.438 -0.2051 -0.9105  0.0358
   86CHL1    C3 8771   6.407   5.851   7.011  0.6236  0.6371  0.5426
   86CHL1    H3 8772   6.430   5.959   6.997  0.4814  0.9427  2.5377
   86CHL1    O3 8773   6.425   5.794   6.878  0.3101 -0.0465 -0.4177
   86CHL1   H3' 8774   6.392   5.704   6.887 -1.4058  0.3404 -2.4319
   86CHL1    C4 8775   6.511   5.793   7.108  0.3530  0.6970 -0.3247
   86CHL1   H4A 8776   6.530   5.686   7.083  0.5056  0.1304  2.0811
   86CHL1   H4B 8777   6.605   5.848   7.089 -0.1958  1.2585 -1.4620
   86CHL1    C5 8778   6.483   5.800   7.254  0.5013 -0.6282  1.0066
   86CHL1    C6 8779   6.572   5.851   7.344  0.2310 -0.0607  0.1963
   86CHL1    H6 8780   6.675   5.870   7.309  0.6798 -0.4491  1.2963
   86CHL1    C7 8781   6.558   5.859   7.496  0.5701  0.5558 -0.3901
   86CHL1   H7A 8782   6.646   5.805   7.537 -0.4343 -1.5298 -0.8970
   86CHL1   H7B 8783   6.566   5.962   7.537  2.2528  0.7309 -1.1266
   86CHL1    C8 8784   6.431   5.780   7.545  0.4153  0.5771 -0.4983
   86CHL1    H8 8785   6.450   5.672   7.527  0.9278  0.9361 -2.2046
   86CHL1   C14 8786   6.400   5.811   7.695  0.9147 -0.1850  0.0196
   86CHL1   H14 8787   6.370   5.919   7.694  0.9491 -0.1632 -3.0718
   86CHL1   C15 8788   6.508   5.779   7.800  0.5317  0.2062  0.2826
   86CHL1  H15A 8789   6.561   5.684   7.777 -1.3573 -0.8001 -0.0610
   86CHL1  H15B 8790   6.573   5.868   7.806  1.3405 -0.3517 -0.1787
   86CHL1   C16 8791   6.426   5.769   7.928 -0.0681  0.0893  0.2340
   86CHL1  H16A 8792   6.453   5.682   7.991 -0.9846  1.4024  2.4915
   86CHL1  H16B 8793   6.456   5.853   7.994  2.5766 -0.5453 -0.0933
   86CHL1   C17 8794   6.273   5.775   7.892  0.2522 -0.0196  0.0536
   86CHL1   H17 8795   6.252   5.884   7.900 -0.0874  0.0998 -2.2861
   86CHL1   C13 8796   6.270   5.745   7.741 -0.0184 -0.0239 -0.0968
   86CHL1   C18 8797   6.269   5.593   7.725  0.5044 -0.0841  0.0232
   86CHL1  H18A 8798   6.170   5.547   7.739 -0.1315  0.9196 -1.0840
   86CHL1  H18B 8799   6.310   5.566   7.625 -0.1429  0.6563 -0.4500
   86CHL1  H18C 8800   6.335   5.545   7.800  0.2730  0.0587  0.3153
   86CHL1   C12 8801   6.159   5.814   7.657  0.1840  0.1374  0.0846
   86CHL1  H12A 8802   6.056   5.785   7.686 -0.2971 -0.1766 -1.8289
   86CHL1  H12B 8803   6.166   5.924   7.666 -0.2865  0.1924 -0.1754
   86CHL1   C11 8804   6.178   5.778   7.510  0.3468 -0.0499 -0.2916
   86CHL1  H11A 8805   6.143   5.674   7.494  1.0734 -0.2227 -0.7668
   86CHL1  H11B 8806   6.104   5.832   7.448 -1.1613 -0.0452  1.4821
   86CHL1    C9 8807   6.318   5.824   7.453  0.4588  0.0238 -0.3154
   86CHL1    H9 8808   6.324   5.935   7.448 -0.8085  0.0637 -1.1103
   86CHL1   C10 8809   6.341   5.774   7.302 -0.6564  0.5117  0.7507
   86CHL1   C19 8810   6.320   5.621   7.283 -0.0817  0.4845  0.1968
   86CHL1  H19A 8811   6.360   5.586   7.185  1.8151  2.0711  0.3728
   86CHL1  H19B 8812   6.389   5.565   7.351 -0.2836 -0.2629 -0.2006
   86CHL1  H19C 8813   6.212   5.598   7.293  0.0091 -0.0285  0.0161
   86CHL1    C1 8814   6.253   5.859   7.206 -0.7643  0.6886  0.1599
   86CHL1   H1A 8815   6.142   5.853   7.216 -0.5776 -2.0452  1.0180
   86CHL1   H1B 8816   6.266   5.967   7.225 -0.3388  0.6099  0.3282
   86CHL1    C2 8817   6.266   5.824   7.058  0.1827  0.4342  0.0318
   86CHL1   H2A 8818   6.197   5.888   6.999 -0.8196 -0.2405  0.4652
   86CHL1   H2B 8819   6.230   5.720   7.046 -0.8717  0.6930  0.9089
   86CHL1   C20 8820   6.179   5.708   7.988 -0.4450 -0.3958 -0.0063
   86CHL1   H20 8821   6.167   5.601   7.963 -3.2293  0.0982 -0.9569
   86CHL1   C21 8822   6.036   5.770   7.980  0.3969  0.0303  0.5290
   86CHL1  H21A 8823   5.974   5.744   8.069 -1.2443  0.6172 -0.4205
   86CHL1  H21B 8824   5.983   5.731   7.891  2.6376 -1.0085 -0.3736
   86CHL1  H21C 8825   6.042   5.881   7.972 -1.4439 -0.1039 -3.5760
   86CHL1   C22 8826   6.219   5.707   8.144 -0.2372  0.6399 -0.4595
   86CHL1  H22A 8827   6.150   5.642   8.203  0.3071  0.8177  0.3816
   86CHL1  H22B 8828   6.317   5.655   8.154 -0.1234  0.8865 -0.2783
   86CHL1   C23 8829   6.229   5.848   8.214 -0.3800 -0.2843 -0.2157
   86CHL1  H23A 8830   6.320   5.894   8.169 -0.4320 -0.6386 -0.6888
   86CHL1  H23B 8831   6.137   5.901   8.178  0.3542 -0.1153 -1.8976
   86CHL1   C24 8832   6.236   5.828   8.371  0.2382  0.1875  0.2459
   86CHL1  H24A 8833   6.131   5.810   8.400 -0.1630  1.8372 -0.1131
   86CHL1  H24B 8834   6.305   5.742   8.383 -1.6622 -1.2713  0.9151
   86CHL1   C25 8835   6.290   5.944   8.451  0.7450  0.7493 -0.5275
   86CHL1   H25 8836   6.385   5.979   8.404  0.6288  1.5243 -0.1938
   86CHL1   C26 8837   6.191   6.064   8.450  0.3457  0.9772 -0.4798
   86CHL1  H26A 8838   6.222   6.142   8.523 -2.7421  1.5096  0.3090
   86CHL1  H26B 8839   6.176   6.114   8.352 -1.1562 -1.2438 -1.4061
   86CHL1  H26C 8840   6.090   6.033   8.482  1.0238 -0.4613  0.3028
   86CHL1   C27 8841   6.327   5.903   8.591  0.2543 -0.7777 -0.3253
   86CHL1  H27A 8842   6.319   5.994   8.654 -5.1183 -1.3625  0.0550
   86CHL1  H27B 8843   6.250   5.836   8.636  0.0539  0.9348  1.9427
   86CHL1  H27C 8844   6.423   5.846   8.597 -0.1575 -1.3813  0.7150
   87CHL1    C3 8845   5.190   4.209   7.000  0.0685  0.1258  0.7265
   87CHL1    H3 8846   5.271   4.135   7.020  0.8595  0.8230  0.1518
   87CHL1    O3 8847   5.185   4.233   6.861  0.3561 -0.2644 -0.0245
   87CHL1   H3' 8848   5.163   4.324   6.840  0.7398 -0.1750 -0.0420
   87CHL1    C4 8849   5.055   4.156   7.056  0.4868 -0.0724 -0.4739
   87CHL1   H4A 8850   4.979   4.233   7.028 -0.7899 -0.2007  2.4588
   87CHL1   H4B 8851   5.029   4.069   6.992  0.8131 -0.4312 -0.1211
   87CHL1    C5 8852   5.065   4.126   7.207  0.1715  0.5599  0.0477
   87CHL1    C6 8853   5.023   4.004   7.255 -0.8249  0.6396  0.5508
   87CHL1    H6 8854   4.986   3.927   7.185  1.8214 -1.5470  1.4697
   87CHL1    C7 8855   5.039   3.959   7.401 -0.0424 -0.5014 -0.1603
   87CHL1   H7A 8856   4.948   3.907   7.437  1.9172 -2.8639  1.5463
   87CHL1   H7B 8857   5.128   3.892   7.398  1.2897  1.0340  2.9032
   87CHL1    C8 8858   5.069   4.082   7.494  0.1914  0.4024 -0.1029
   87CHL1    H8 8859   4.984   4.145   7.528  0.7508  1.8474 -1.3805
   87CHL1   C14 8860   5.115   4.032   7.632  0.1780 -0.1376 -0.0135
   87CHL1   H14 8861   5.210   3.977   7.613  0.1171 -0.5800  0.9078
   87CHL1   C15 8862   5.020   3.934   7.710  0.4310 -0.0519  0.6643
   87CHL1  H15A 8863   4.914   3.967   7.704 -0.8968 -4.0293  0.5419
   87CHL1  H15B 8864   5.020   3.830   7.671  0.7513  0.1097  0.2389
   87CHL1   C16 8865   5.075   3.939   7.853  0.0220  0.5209 -0.0622
   87CHL1  H16A 8866   4.995   3.991   7.910 -0.4483  1.2471 -1.3474
   87CHL1  H16B 8867   5.095   3.839   7.895 -3.2841  0.0246  0.4627
   87CHL1   C17 8868   5.183   4.051   7.855  0.1907  0.3496 -0.2469
   87CHL1   H17 8869   5.278   3.997   7.832  1.1529  1.9716 -0.2326
   87CHL1   C13 8870   5.155   4.140   7.726 -0.3599  0.6660 -0.3165
   87CHL1   C18 8871   5.039   4.235   7.779 -0.9587  0.3619 -0.4050
   87CHL1  H18A 8872   5.012   4.308   7.700  0.8839 -1.2981 -2.6157
   87CHL1  H18B 8873   4.946   4.179   7.804 -2.6114  2.9337 -0.5124
   87CHL1  H18C 8874   5.069   4.290   7.871  1.8805  0.0764 -1.1280
   87CHL1   C12 8875   5.270   4.215   7.670 -0.3991  0.0330  0.1483
   87CHL1  H12A 8876   5.301   4.292   7.745  1.8817 -2.8393  2.3088
   87CHL1  H12B 8877   5.360   4.158   7.638 -0.7728 -2.0234  2.5765
   87CHL1   C11 8878   5.230   4.276   7.535  0.6978 -0.0915  0.2036
   87CHL1  H11A 8879   5.154   4.358   7.541  0.1965 -0.6954  2.2705
   87CHL1  H11B 8880   5.325   4.309   7.487 -0.0098  0.7169 -0.6678
   87CHL1    C9 8881   5.170   4.173   7.434  0.4260 -0.4131 -0.4255
   87CHL1    H9 8882   5.264   4.115   7.422  0.5525 -1.5872  4.8800
   87CHL1   C10 8883   5.127   4.234   7.293 -0.5658  0.4954  0.0009
   87CHL1   C19 8884   5.022   4.340   7.315  0.4438  0.1424 -1.0903
   87CHL1  H19A 8885   4.927   4.302   7.359  1.2751 -0.3498  0.3065
   87CHL1  H19B 8886   5.055   4.413   7.391  0.1736  0.2892 -1.1136
   87CHL1  H19C 8887   4.993   4.406   7.230 -1.2435  2.3295  1.0888
   87CHL1    C1 8888   5.253   4.295   7.222 -0.4770 -0.3818 -0.2462
   87CHL1   H1A 8889   5.280   4.386   7.279 -1.0392 -0.3733  0.0169
   87CHL1   H1B 8890   5.338   4.225   7.231 -0.3465 -0.2340 -0.3303
   87CHL1    C2 8891   5.244   4.331   7.070 -0.2821  0.0365  0.3146
   87CHL1   H2A 8892   5.345   4.364   7.038  0.0563  1.2741  2.5737
   87CHL1   H2B 8893   5.175   4.417   7.057  0.4080  0.1300 -3.0527
   87CHL1   C20 8894   5.218   4.110   7.998  0.1221 -0.3946 -0.0303
   87CHL1   H20 8895   5.138   4.178   8.033 -0.7345  0.0901 -2.7724
   87CHL1   C21 8896   5.342   4.200   8.009  0.5047  0.9585 -0.1090
   87CHL1  H21A 8897   5.353   4.233   8.115 -1.3186 -0.3385  0.5224
   87CHL1  H21B 8898   5.325   4.290   7.947  0.7005  1.3092  0.3435
   87CHL1  H21C 8899   5.433   4.138   7.993  0.0941  0.1822  0.5202
   87CHL1   C22 8900   5.215   3.988   8.096  0.3750 -0.1298  0.5967
   87CHL1  H22A 8901   5.111   3.949   8.097  0.2572 -0.0197 -2.4484
   87CHL1  H22B 8902   5.288   3.910   8.064 -1.0296 -0.5179 -1.7701
   87CHL1   C23 8903   5.248   4.032   8.246  0.2316  0.6356  0.8301
   87CHL1  H23A 8904   5.357   4.052   8.253  0.1547  0.9709  1.1107
   87CHL1  H23B 8905   5.195   4.124   8.278  1.0825  1.4573 -0.0913
   87CHL1   C24 8906   5.218   3.905   8.332 -0.6815 -0.2821  0.2993
   87CHL1  H24A 8907   5.113   3.886   8.361 -0.5711  1.4677  1.9133
   87CHL1  H24B 8908   5.252   3.822   8.267 -2.5594 -1.7736  1.1975
   87CHL1   C25 8909   5.303   3.887   8.462 -0.7026  0.6487 -0.2077
   87CHL1   H25 8910   5.411   3.897   8.436 -0.7609  1.5660 -0.1313
   87CHL1   C26 8911   5.278   4.001   8.570 -0.3381  0.1890  0.0216
   87CHL1  H26A 8912   5.363   3.997   8.641 -0.0338  0.4567 -0.3216
   87CHL1  H26B 8913   5.270   4.102   8.523 -2.2142  1.3352  2.7011
   87CHL1  H26C 8914   5.178   3.985   8.615  0.1875  1.3797  1.6734
   87CHL1   C27 8915   5.274   3.753   8.524 -0.1978  0.0997 -0.1184
   87CHL1  H27A 8916   5.329   3.721   8.614 -2.6038  0.5385  1.5547
   87CHL1  H27B 8917   5.167   3.763   8.553 -0.0419 -0.5347  0.6842
   87CHL1  H27C 8918   5.276   3.670   8.450  1.5089  0.9529 -1.0700
   88CHL1    C3 8919   3.591   2.588   6.974 -0.0956  0.0010 -0.4560
   88CHL1    H3 8920   3.594   2.483   6.938 -0.0679 -0.8384  1.9588
   88CHL1    O3 8921   3.580   2.688   6.876 -0.2114  0.2163  0.4070
   88CHL1   H3' 8922   3.512   2.655   6.816 -0.0287 -1.1116  0.9187
   88CHL1    C4 8923   3.464   2.594   7.060  0.9069  0.7776 -0.7837
   88CHL1   H4A 8924   3.440   2.699   7.086  1.8404  0.3025  2.2134
   88CHL1   H4B 8925   3.382   2.565   6.991 -1.3957  1.3878  1.6015
   88CHL1    C5 8926   3.461   2.509   7.190 -0.6080  0.0831  0.4464
   88CHL1    C6 8927   3.376   2.415   7.214  0.6127  0.8516  0.0669
   88CHL1    H6 8928   3.288   2.410   7.147  0.0349 -0.9019  0.9210
   88CHL1    C7 8929   3.362   2.330   7.336 -0.0816  0.1811 -0.3502
   88CHL1   H7A 8930   3.257   2.327   7.372 -0.3206 -1.1988 -1.1618
   88CHL1   H7B 8931   3.404   2.231   7.311  0.2328  1.3070 -4.7915
   88CHL1    C8 8932   3.451   2.386   7.451  0.6101  0.4268  0.0547
   88CHL1    H8 8933   3.392   2.468   7.498 -1.2279  1.2311 -3.4092
   88CHL1   C14 8934   3.474   2.277   7.554 -0.6238  0.1405  0.3449
   88CHL1   H14 8935   3.530   2.197   7.500 -0.8851  0.2621 -0.1155
   88CHL1   C15 8936   3.359   2.190   7.610 -0.1535  0.5313 -0.7220
   88CHL1  H15A 8937   3.282   2.259   7.648  0.5336  1.0077 -0.1996
   88CHL1  H15B 8938   3.323   2.118   7.532  0.1330 -0.4704  0.0543
   88CHL1   C16 8939   3.420   2.115   7.729 -0.2736 -0.3601  0.0721
   88CHL1  H16A 8940   3.348   2.117   7.814  1.4608  3.0893  1.5479
   88CHL1  H16B 8941   3.439   2.006   7.718  2.0775  0.2316 -2.3794
   88CHL1   C17 8942   3.561   2.175   7.748 -0.3153  0.1403  0.0751
   88CHL1   H17 8943   3.635   2.113   7.692  1.1055  0.1904  1.8156
   88CHL1   C13 8944   3.560   2.311   7.669  0.6890  0.4312  0.3396
   88CHL1   C18 8945   3.491   2.421   7.759  0.4035 -0.0975 -0.0734
   88CHL1  H18A 8946   3.547   2.434   7.854  0.4040 -1.6542  0.1595
   88CHL1  H18B 8947   3.489   2.518   7.705 -2.3096  0.7046  1.3802
   88CHL1  H18C 8948   3.386   2.400   7.787  0.1477  1.9215  0.5258
   88CHL1   C12 8949   3.698   2.373   7.625  0.0172 -0.0177  0.3576
   88CHL1  H12A 8950   3.755   2.415   7.710 -0.3601 -1.4029  1.2947
   88CHL1  H12B 8951   3.750   2.286   7.580  0.6775  0.5866 -0.0686
   88CHL1   C11 8952   3.685   2.482   7.509 -0.2758 -0.0252 -0.1395
   88CHL1  H11A 8953   3.643   2.570   7.563 -2.0271  1.0780 -3.1456
   88CHL1  H11B 8954   3.786   2.512   7.473 -0.0450 -1.3965 -0.6815
   88CHL1    C9 8955   3.589   2.442   7.401 -0.6491 -0.3342  0.1982
   88CHL1    H9 8956   3.629   2.346   7.362  4.1997  1.1646  1.1128
   88CHL1   C10 8957   3.583   2.541   7.276  1.0954  0.4831 -0.4892
   88CHL1   C19 8958   3.563   2.686   7.333  0.0441 -0.0298 -0.9822
   88CHL1  H19A 8959   3.475   2.681   7.401  0.3295  0.1605 -0.5945
   88CHL1  H19B 8960   3.656   2.709   7.390 -0.4263 -0.4339 -0.0397
   88CHL1  H19C 8961   3.552   2.767   7.257  0.1236  0.3454 -0.5956
   88CHL1    C1 8962   3.716   2.525   7.184 -0.4441 -0.4200 -0.1225
   88CHL1   H1A 8963   3.812   2.538   7.238 -0.7203  0.4367  0.1804
   88CHL1   H1B 8964   3.725   2.416   7.164  0.5658 -0.3590 -0.0226
   88CHL1    C2 8965   3.719   2.607   7.057  0.7377 -0.1362 -0.2279
   88CHL1   H2A 8966   3.819   2.612   7.008  0.9671  2.4129  0.3921
   88CHL1   H2B 8967   3.711   2.710   7.098  0.7829  0.3755 -1.4746
   88CHL1   C20 8968   3.609   2.176   7.890 -0.7500  0.2278  0.6562
   88CHL1   H20 8969   3.550   2.247   7.952 -0.8066  0.9655 -0.2407
   88CHL1   C21 8970   3.754   2.207   7.907 -0.2793  0.4527 -0.2771
   88CHL1  H21A 8971   3.826   2.156   7.839  0.5155 -0.0428  0.8976
   88CHL1  H21B 8972   3.791   2.199   8.012  3.5303 -0.0887 -1.5746
   88CHL1  H21C 8973   3.774   2.314   7.884  0.4486  0.8058  1.8575
   88CHL1   C22 8974   3.582   2.038   7.953 -0.3678  0.1546 -0.0074
   88CHL1  H22A 8975   3.472   2.023   7.941 -0.6794  1.0534  1.5207
   88CHL1  H22B 8976   3.624   1.954   7.894  2.4637  0.9554  0.8110
   88CHL1   C23 8977   3.603   2.022   8.103  0.2357  0.5421 -0.7665
   88CHL1  H23A 8978   3.712   2.040   8.111  0.5082 -0.5346 -1.9283
   88CHL1  H23B 8979   3.546   2.102   8.154 -2.5515 -0.8132 -1.6485
   88CHL1   C24 8980   3.567   1.889   8.155  0.1585  0.7604 -0.3979
   88CHL1  H24A 8981   3.459   1.865   8.147  0.5253 -0.5678 -1.4650
   88CHL1  H24B 8982   3.624   1.808   8.105 -0.4971  1.0019 -1.5701
   88CHL1   C25 8983   3.606   1.880   8.300 -0.1024 -0.4490  1.3281
   88CHL1   H25 8984   3.714   1.903   8.316  0.3187 -1.3510 -0.0354
   88CHL1   C26 8985   3.528   1.971   8.394  0.1130 -0.0219  0.0019
   88CHL1  H26A 8986   3.418   1.976   8.379  0.1037 -1.1622 -0.3102
   88CHL1  H26B 8987   3.553   1.939   8.497 -0.8191 -0.0948  0.2141
   88CHL1  H26C 8988   3.579   2.069   8.382 -0.1502 -0.2009 -3.0784
   88CHL1   C27 8989   3.593   1.737   8.345  0.6668  0.5254  0.2993
   88CHL1  H27A 8990   3.614   1.700   8.448 -0.3788 -0.3800  0.2026
   88CHL1  H27B 8991   3.489   1.701   8.331  0.4016  1.7520 -0.9649
   88CHL1  H27C 8992   3.667   1.675   8.290  0.0634 -1.8553  2.0929
   89CHL1    C3 8993   6.434   4.870   6.903 -0.0112  0.8102  0.5158
   89CHL1    H3 8994   6.358   4.940   6.944 -1.2453  0.5681 -1.2916
   89CHL1    O3 8995   6.463   4.899   6.767 -0.1587  0.6245 -0.0125
   89CHL1   H3' 8996   6.506   4.819   6.738  0.1513  0.7420  0.1267
   89CHL1    C4 8997   6.561   4.887   6.983 -0.0755 -0.0295 -0.4590
   89CHL1   H4A 8998   6.639   4.818   6.942 -0.6578 -0.6918 -0.4486
   89CHL1   H4B 8999   6.599   4.990   6.964  0.8708 -0.3808 -0.5201
   89CHL1    C5 9000   6.541   4.858   7.132  0.5959  0.5969  0.7105
   89CHL1    C6 9001   6.564   4.958   7.221 -0.7365 -0.0739  0.0780
   89CHL1    H6 9002   6.606   5.054   7.187 -0.1983  0.4993  2.2871
   89CHL1    C7 9003   6.530   4.948   7.364  0.1310 -0.7026 -0.2554
   89CHL1   H7A 9004   6.602   5.010   7.422  1.0818 -0.8999 -1.2183
   89CHL1   H7B 9005   6.439   5.008   7.387  3.1885  3.6939  1.1865
   89CHL1    C8 9006   6.503   4.800   7.408  0.2177 -0.5309  1.0974
   89CHL1    H8 9007   6.601   4.747   7.410  0.3798 -0.3254 -0.6709
   89CHL1   C14 9008   6.445   4.791   7.549  0.7908  0.1325  0.0070
   89CHL1   H14 9009   6.346   4.840   7.534  1.0550  0.9997  1.0266
   89CHL1   C15 9010   6.519   4.852   7.670  0.0072 -0.0894 -0.5423
   89CHL1  H15A 9011   6.628   4.832   7.663 -0.2188 -0.3198 -4.0057
   89CHL1  H15B 9012   6.504   4.961   7.654 -1.9601 -0.3380 -0.6102
   89CHL1   C16 9013   6.438   4.789   7.790  0.2457  0.3364 -0.0435
   89CHL1  H16A 9014   6.515   4.759   7.865 -0.3643  0.4489  0.6378
   89CHL1  H16B 9015   6.383   4.876   7.832 -0.8210 -0.4220  0.1501
   89CHL1   C17 9016   6.344   4.683   7.739 -0.4880  0.5749 -0.4141
   89CHL1   H17 9017   6.255   4.746   7.715 -0.1396  0.4405 -2.1663
   89CHL1   C13 9018   6.408   4.650   7.597 -0.6023 -0.1340 -0.4521
   89CHL1   C18 9019   6.521   4.558   7.606  0.9113 -0.2452  1.1078
   89CHL1  H18A 9020   6.574   4.546   7.509 -1.9610 -1.6194 -0.3413
   89CHL1  H18B 9021   6.598   4.602   7.674  2.1735  0.0682 -0.5054
   89CHL1  H18C 9022   6.497   4.454   7.639 -0.8748 -0.3162 -0.3850
   89CHL1   C12 9023   6.306   4.593   7.497 -0.5743  0.1472  0.2157
   89CHL1  H12A 9024   6.279   4.490   7.529  1.1121  0.5661  3.1699
   89CHL1  H12B 9025   6.206   4.642   7.491 -0.4438  0.4090  0.1776
   89CHL1   C11 9026   6.366   4.587   7.354 -0.5957  0.4077  0.4345
   89CHL1  H11A 9027   6.447   4.511   7.367 -0.7120  0.4615  1.4666
   89CHL1  H11B 9028   6.291   4.543   7.285 -1.4247 -0.2396  1.7271
   89CHL1    C9 9029   6.410   4.726   7.305  0.5559 -0.1454  1.0964
   89CHL1    H9 9030   6.313   4.779   7.299 -0.3485 -1.6386  2.4303
   89CHL1   C10 9031   6.466   4.721   7.158 -0.0877  0.0157 -0.0486
   89CHL1   C19 9032   6.579   4.610   7.154  0.2829  0.1861  0.0282
   89CHL1  H19A 9033   6.529   4.510   7.151  1.2212 -0.2806 -0.7202
   89CHL1  H19B 9034   6.626   4.615   7.054 -1.1549 -0.4373 -0.7018
   89CHL1  H19C 9035   6.663   4.615   7.227  1.3910  1.2457 -1.3036
   89CHL1    C1 9036   6.355   4.694   7.058  0.9216 -0.3928  0.5241
   89CHL1   H1A 9037   6.323   4.590   7.082 -0.3225  0.2859  1.9093
   89CHL1   H1B 9038   6.264   4.754   7.077 -0.6222 -1.3826 -3.3867
   89CHL1    C2 9039   6.397   4.718   6.917  0.1634 -0.0217 -0.1489
   89CHL1   H2A 9040   6.306   4.708   6.854 -0.1527  0.4245  0.2351
   89CHL1   H2B 9041   6.489   4.668   6.880 -0.1254 -1.4037  0.9688
   89CHL1   C20 9042   6.297   4.573   7.835 -0.5458  0.5459 -0.7203
   89CHL1   H20 9043   6.347   4.477   7.811 -0.9596  0.1423  0.0325
   89CHL1   C21 9044   6.138   4.551   7.804 -0.2282  0.2335 -0.1133
   89CHL1  H21A 9045   6.077   4.633   7.847 -1.2571  0.2901 -1.6749
   89CHL1  H21B 9046   6.103   4.451   7.838  0.6998  0.9951  3.3596
   89CHL1  H21C 9047   6.124   4.554   7.694 -0.1738  3.3635 -0.0792
   89CHL1   C22 9048   6.317   4.600   7.985  0.1220  0.0560 -0.0065
   89CHL1  H22A 9049   6.427   4.592   8.001  0.3231  0.5879 -1.1007
   89CHL1  H22B 9050   6.282   4.701   8.016 -1.2325 -0.4301  0.0532
   89CHL1   C23 9051   6.256   4.492   8.079 -0.4052 -0.0620  0.4581
   89CHL1  H23A 9052   6.314   4.503   8.173  3.0814 -0.1015 -1.5858
   89CHL1  H23B 9053   6.147   4.511   8.083 -0.8451 -2.0059 -1.2157
   89CHL1   C24 9054   6.284   4.349   8.035  0.6970  0.4193  0.0146
   89CHL1  H24A 9055   6.243   4.336   7.933  0.8303 -2.5428  0.2790
   89CHL1  H24B 9056   6.393   4.329   8.040  0.5385 -0.5215 -0.1701
   89CHL1   C25 9057   6.231   4.226   8.122  0.7102 -0.3617  0.2364
   89CHL1   H25 9058   6.121   4.243   8.127  0.7683 -0.3175  1.6101
   89CHL1   C26 9059   6.269   4.093   8.044 -0.1925 -0.4754 -0.1831
   89CHL1  H26A 9060   6.234   4.011   8.110 -0.2340 -0.4698 -0.1963
   89CHL1  H26B 9061   6.214   4.087   7.948 -0.7251 -0.5290  0.1239
   89CHL1  H26C 9062   6.377   4.082   8.018  0.0602  0.3567  0.4689
   89CHL1   C27 9063   6.293   4.220   8.261 -0.1711  0.7148  0.2413
   89CHL1  H27A 9064   6.269   4.125   8.314 -0.1680  0.8777  0.5418
   89CHL1  H27B 9065   6.402   4.243   8.257  0.1854 -0.6239  1.6492
   89CHL1  H27C 9066   6.243   4.300   8.321 -1.4515  1.9937 -2.4806
   90CHL1    C3 9067   6.133   0.132   6.987 -0.4229  0.2709  0.3008
   90CHL1    H3 9068   6.040   0.091   7.034  0.0934 -2.1037 -0.6630
   90CHL1    O3 9069   6.091   0.159   6.856 -0.1120  0.6677 -0.3983
   90CHL1   H3' 9070   6.175   0.187   6.817 -0.8025  1.2365 -1.5283
   90CHL1    C4 9071   6.192   0.260   7.061  0.5992  0.4457 -0.2849
   90CHL1   H4A 9072   6.284   0.300   7.013  1.4165 -1.6287 -0.4675
   90CHL1   H4B 9073   6.109   0.334   7.054 -0.3509 -0.7922 -2.4773
   90CHL1    C5 9074   6.228   0.209   7.203 -0.2424 -0.0915  0.2011
   90CHL1    C6 9075   6.169   0.262   7.310 -0.8006  0.1718 -0.0515
   90CHL1    H6 9076   6.092   0.340   7.299 -2.2222 -1.3655 -1.2520
   90CHL1    C7 9077   6.192   0.223   7.453  0.1334 -0.6078 -0.4946
   90CHL1   H7A 9078   6.197   0.311   7.520 -0.8260 -0.6884 -0.3084
   90CHL1   H7B 9079   6.107   0.163   7.491  1.3268 -0.6430  2.1973
   90CHL1    C8 9080   6.321   0.137   7.462 -0.2572  0.0982  0.3996
   90CHL1    H8 9081   6.408   0.206   7.458 -0.6878  0.8099  2.4902
   90CHL1   C14 9082   6.335   0.076   7.606 -0.1398 -0.2579 -0.0551
   90CHL1   H14 9083   6.249   0.006   7.606 -0.8921  0.6446 -0.9009
   90CHL1   C15 9084   6.318   0.172   7.727  0.5384 -0.2114  0.2353
   90CHL1  H15A 9085   6.387   0.258   7.713 -0.4263  0.3888 -0.8492
   90CHL1  H15B 9086   6.217   0.211   7.754  0.2390 -0.4112 -0.5995
   90CHL1   C16 9087   6.365   0.081   7.843  0.4191 -0.5578 -0.8735
   90CHL1  H16A 9088   6.440   0.134   7.906 -0.9409 -0.6001  0.8231
   90CHL1  H16B 9089   6.289   0.072   7.924  3.0129  1.5436  1.8845
   90CHL1   C17 9090   6.430  -0.048   7.778  0.9151  0.0734  0.0443
   90CHL1   H17 9091   6.345  -0.120   7.777  1.2406 -0.3105 -0.0049
   90CHL1   C13 9092   6.458  -0.008   7.627 -1.1658 -0.3300  0.3771
   90CHL1   C18 9093   6.593   0.074   7.624 -0.3731 -0.3552 -0.2816
   90CHL1  H18A 9094   6.678   0.005   7.641  0.2729  0.4256 -0.3327
   90CHL1  H18B 9095   6.603   0.142   7.537 -0.7630 -1.5044 -1.2367
   90CHL1  H18C 9096   6.601   0.135   7.716  0.0814 -0.2062 -0.4203
   90CHL1   C12 9097   6.456  -0.116   7.527 -0.5249  0.7148 -0.0387
   90CHL1  H12A 9098   6.542  -0.185   7.536 -0.6154  0.8754  2.3612
   90CHL1  H12B 9099   6.366  -0.177   7.550 -0.1177 -0.4643 -1.5219
   90CHL1   C11 9100   6.460  -0.069   7.380 -0.4591 -0.3664  0.0259
   90CHL1  H11A 9101   6.558  -0.018   7.365 -1.8190  2.2175 -0.3176
   90CHL1  H11B 9102   6.459  -0.158   7.313  1.3294 -0.6465  0.3420
   90CHL1    C9 9103   6.340   0.033   7.355 -0.3092 -0.3672 -0.4325
   90CHL1    H9 9104   6.253  -0.034   7.369  0.0808 -0.6628  0.6650
   90CHL1   C10 9105   6.326   0.087   7.208  0.2762  0.0317 -0.4043
   90CHL1   C19 9106   6.467   0.146   7.159 -0.4954 -0.0727 -0.3547
   90CHL1  H19A 9107   6.533   0.061   7.132 -2.6721 -1.9780  0.1278
   90CHL1  H19B 9108   6.460   0.204   7.064 -0.6748 -1.5304 -1.2562
   90CHL1  H19C 9109   6.510   0.213   7.236  0.2757 -2.8398  1.6954
   90CHL1    C1 9110   6.288  -0.033   7.114 -0.3691 -0.3952 -0.1251
   90CHL1   H1A 9111   6.364  -0.111   7.093  0.2819  0.5732 -1.3923
   90CHL1   H1B 9112   6.206  -0.082   7.172 -0.2400 -0.3141  0.1286
   90CHL1    C2 9113   6.234   0.012   6.980 -0.8420  0.3055 -0.8965
   90CHL1   H2A 9114   6.177  -0.076   6.944 -1.6255  1.6969 -3.1765
   90CHL1   H2B 9115   6.320   0.022   6.910  0.0081 -0.2000  0.0624
   90CHL1   C20 9116   6.541  -0.105   7.864 -0.0197  0.5696 -0.9507
   90CHL1   H20 9117   6.632  -0.043   7.848  0.2168  0.6084  0.5519
   90CHL1   C21 9118   6.575  -0.251   7.818  0.1116  0.1740 -0.3953
   90CHL1  H21A 9119   6.486  -0.318   7.809  1.3494 -1.3817 -1.4125
   90CHL1  H21B 9120   6.654  -0.293   7.885  0.0021 -1.9224 -1.5458
   90CHL1  H21C 9121   6.625  -0.250   7.719  0.5585 -2.1320 -0.2248
   90CHL1   C22 9122   6.502  -0.117   8.020 -0.1188  0.2587  0.1626
   90CHL1  H22A 9123   6.447  -0.030   8.060 -1.4541 -0.2994 -0.4428
   90CHL1  H22B 9124   6.438  -0.205   8.043 -0.9848  0.0573 -2.8194
   90CHL1   C23 9125   6.616  -0.151   8.125 -0.0191  0.0304  0.8072
   90CHL1  H23A 9126   6.642  -0.258   8.112  2.2003  0.2328  3.1908
   90CHL1  H23B 9127   6.708  -0.102   8.088 -0.3185 -1.3874 -1.9292
   90CHL1   C24 9128   6.574  -0.107   8.264  0.2877 -0.3555  1.0204
   90CHL1  H24A 9129   6.556   0.002   8.272  2.0691 -0.0114  0.3794
   90CHL1  H24B 9130   6.486  -0.162   8.305  1.1675 -1.9784  0.7625
   90CHL1   C25 9131   6.689  -0.130   8.361 -0.0455 -0.0670  0.3026
   90CHL1   H25 9132   6.785  -0.087   8.324 -0.7692  0.9889 -0.3961
   90CHL1   C26 9133   6.673  -0.056   8.491  0.3474 -0.0176 -0.0795
   90CHL1  H26A 9134   6.599  -0.109   8.554  1.2569  0.4321  1.3913
   90CHL1  H26B 9135   6.773  -0.040   8.537  0.4212  0.3462 -0.3669
   90CHL1  H26C 9136   6.630   0.045   8.474 -0.1542 -0.0646  0.8635
   90CHL1   C27 9137   6.708  -0.281   8.388  0.0814 -0.1513  0.3515
   90CHL1  H27A 9138   6.724  -0.352   8.305 -2.2490 -1.2784  0.8326
   90CHL1  H27B 9139   6.794  -0.278   8.458  1.3675  1.7947 -1.2476
   90CHL1  H27C 9140   6.613  -0.313   8.436 -0.2215  2.0998  1.3154
   91CHL1    C3 9141   0.580   1.764   7.186  0.0954  0.2306 -0.3171
   91CHL1    H3 9142   0.670   1.828   7.197  0.0078  0.5618 -1.4445
   91CHL1    O3 9143   0.536   1.774   7.049  0.3357 -0.1741 -0.0032
   91CHL1   H3' 9144   0.564   1.692   7.008 -0.7161  0.2209 -1.5667
   91CHL1    C4 9145   0.614   1.622   7.210  0.6144 -0.5295  0.4604
   91CHL1   H4A 9146   0.530   1.554   7.183  0.0180  0.0146  0.9548
   91CHL1   H4B 9147   0.705   1.598   7.151  0.1144 -1.0264 -0.1136
   91CHL1    C5 9148   0.633   1.600   7.356 -0.2658 -0.3574  0.1953
   91CHL1    C6 9149   0.748   1.549   7.404 -1.0677 -0.6408 -0.6767
   91CHL1    H6 9150   0.825   1.523   7.330 -0.6075  0.7692 -0.7010
   91CHL1    C7 9151   0.763   1.509   7.542 -0.6841 -0.9263  0.9648
   91CHL1   H7A 9152   0.797   1.403   7.545  0.4270 -0.6435 -0.8790
   91CHL1   H7B 9153   0.849   1.565   7.584 -0.0035 -1.6114  0.4937
   91CHL1    C8 9154   0.641   1.508   7.625  0.3109 -0.0402  0.2222
   91CHL1    H8 9155   0.573   1.423   7.604  0.9158 -0.9056  1.7301
   91CHL1   C14 9156   0.678   1.498   7.769  0.0896 -0.1029  0.2317
   91CHL1   H14 9157   0.740   1.589   7.784 -0.4882  0.4932 -0.9389
   91CHL1   C15 9158   0.759   1.377   7.823  0.2017  0.1634  0.2198
   91CHL1  H15A 9159   0.718   1.293   7.762  0.1765  0.4273 -0.1266
   91CHL1  H15B 9160   0.864   1.400   7.794  0.8439 -2.2420  0.5155
   91CHL1   C16 9161   0.719   1.381   7.972  0.5356  0.1891 -0.2553
   91CHL1  H16A 9162   0.676   1.283   8.001 -1.8286  0.3720 -2.9943
   91CHL1  H16B 9163   0.802   1.403   8.043 -0.5002  3.2948  0.0628
   91CHL1   C17 9164   0.623   1.498   7.995 -0.4424  0.4166  0.4665
   91CHL1   H17 9165   0.683   1.591   8.009  0.5207 -0.3270  1.3604
   91CHL1   C13 9166   0.556   1.515   7.862 -0.6489  0.2273  0.3992
   91CHL1   C18 9167   0.448   1.393   7.846 -0.3501 -0.0154  0.1630
   91CHL1  H18A 9168   0.356   1.410   7.905 -0.9606  1.9429 -1.3157
   91CHL1  H18B 9169   0.423   1.397   7.738 -1.3089 -2.0224  0.2798
   91CHL1  H18C 9170   0.497   1.298   7.877 -1.4607 -0.3333  0.9601
   91CHL1   C12 9171   0.490   1.655   7.847 -0.2363  0.7378 -1.2944
   91CHL1  H12A 9172   0.396   1.674   7.903  0.9545  2.0419  0.3292
   91CHL1  H12B 9173   0.559   1.734   7.886  1.4341 -0.8845 -0.8839
   91CHL1   C11 9174   0.450   1.677   7.697  0.0831  0.2915 -0.1551
   91CHL1  H11A 9175   0.366   1.608   7.673  0.0188  0.4462 -0.3735
   91CHL1  H11B 9176   0.419   1.783   7.682 -0.8776  0.2442  1.3344
   91CHL1    C9 9177   0.564   1.635   7.598 -0.2727 -0.1481 -0.3857
   91CHL1    H9 9178   0.635   1.719   7.612 -0.1472 -0.6201  2.0367
   91CHL1   C10 9179   0.523   1.646   7.448 -0.2694 -0.5416 -0.1830
   91CHL1   C19 9180   0.395   1.559   7.428 -0.1772  0.4823 -0.8196
   91CHL1  H19A 9181   0.304   1.609   7.468  0.8925  1.0964  0.9499
   91CHL1  H19B 9182   0.379   1.535   7.321 -1.2531 -0.1352 -0.5230
   91CHL1  H19C 9183   0.417   1.460   7.474 -1.9712  0.6049  0.3511
   91CHL1    C1 9184   0.495   1.793   7.415  0.0312  0.3819  0.4811
   91CHL1   H1A 9185   0.411   1.835   7.474 -1.6226  0.4291 -1.8306
   91CHL1   H1B 9186   0.586   1.851   7.440 -0.9948  1.3875  1.9303
   91CHL1    C2 9187   0.466   1.815   7.272  0.2164 -0.5224  0.5435
   91CHL1   H2A 9188   0.455   1.925   7.265  0.1925 -0.5280  0.4860
   91CHL1   H2B 9189   0.371   1.769   7.236 -0.3011 -0.5821  1.9503
   91CHL1   C20 9190   0.539   1.475   8.130 -0.4711  0.6035  0.9923
   91CHL1   H20 9191   0.489   1.376   8.126  0.2958  0.2179  0.8911
   91CHL1   C21 9192   0.442   1.592   8.156 -0.1572  0.1996  0.0181
   91CHL1  H21A 9193   0.363   1.601   8.079 -1.1230  1.8428  1.1843
   91CHL1  H21B 9194   0.507   1.682   8.159  4.4872 -2.8052 -2.2534
   91CHL1  H21C 9195   0.387   1.581   8.252 -0.8549 -0.7909 -0.4833
   91CHL1   C22 9196   0.634   1.476   8.258 -0.5771  0.1215 -0.0528
   91CHL1  H22A 9197   0.720   1.411   8.231 -0.2722  1.7723 -3.1993
   91CHL1  H22B 9198   0.680   1.575   8.278  0.6275 -0.2863 -0.7440
   91CHL1   C23 9199   0.563   1.422   8.377 -0.2688  0.3724 -0.0684
   91CHL1  H23A 9200   0.460   1.462   8.391 -1.1885 -1.8845 -0.0600
   91CHL1  H23B 9201   0.550   1.312   8.371  0.5155  0.2849 -0.1647
   91CHL1   C24 9202   0.646   1.449   8.500  0.1453 -0.1028  0.4020
   91CHL1  H24A 9203   0.756   1.433   8.495  0.0151 -1.4466  1.4519
   91CHL1  H24B 9204   0.637   1.558   8.522 -1.8933 -0.6242  2.3300
   91CHL1   C25 9205   0.598   1.380   8.635  0.5811  0.7860  0.1618
   91CHL1   H25 9206   0.488   1.388   8.647  0.8707  2.8723  1.8312
   91CHL1   C26 9207   0.634   1.226   8.639 -0.0352 -0.1795 -0.2341
   91CHL1  H26A 9208   0.603   1.179   8.544 -2.3278 -0.4974  0.6417
   91CHL1  H26B 9209   0.744   1.208   8.650  0.4521  2.4152 -0.4892
   91CHL1  H26C 9210   0.572   1.182   8.720 -1.5832 -1.5511 -2.1416
   91CHL1   C27 9211   0.653   1.456   8.755  0.2330  0.1220 -0.5801
   91CHL1  H27A 9212   0.623   1.563   8.750 -1.4803 -0.4034 -2.5148
   91CHL1  H27B 9213   0.626   1.409   8.852 -0.3764 -0.7040 -1.1311
   91CHL1  H27C 9214   0.761   1.459   8.732 -0.3261 -2.3209 -3.8622
   92CHL1    C3 9215   3.548   3.199   6.789  0.2408 -0.0018  0.3116
   92CHL1    H3 9216   3.640   3.138   6.780 -1.8015 -2.9413 -1.6366
   92CHL1    O3 9217   3.476   3.192   6.660  0.3579 -0.3678 -0.7865
   92CHL1   H3' 9218   3.407   3.259   6.660 -0.3904 -1.1022  1.0311
   92CHL1    C4 9219   3.452   3.128   6.889 -0.6052 -0.0179 -0.6072
   92CHL1   H4A 9220   3.355   3.182   6.892 -0.2501  0.5500  2.6991
   92CHL1   H4B 9221   3.421   3.026   6.856 -0.4025  0.7330 -3.2348
   92CHL1    C5 9222   3.511   3.149   7.033  0.6030 -0.2638  1.3541
   92CHL1    C6 9223   3.526   3.048   7.113  0.1172 -0.7291  0.0524
   92CHL1    H6 9224   3.482   2.956   7.069 -0.4868  0.8241 -2.7131
   92CHL1    C7 9225   3.571   3.052   7.255 -0.4369  0.1648 -0.3326
   92CHL1   H7A 9226   3.514   2.992   7.329  0.9102 -0.1474  0.4677
   92CHL1   H7B 9227   3.670   3.002   7.263 -0.5333 -0.1185 -0.8347
   92CHL1    C8 9228   3.570   3.198   7.309 -0.1744 -0.2913  0.4405
   92CHL1    H8 9229   3.465   3.224   7.334 -0.2061 -2.0991  2.2702
   92CHL1   C14 9230   3.657   3.197   7.434  0.2337  0.5137  0.8383
   92CHL1   H14 9231   3.758   3.168   7.398 -0.5622 -0.7940 -0.4148
   92CHL1   C15 9232   3.617   3.089   7.540 -0.3497 -0.0067 -0.9957
   92CHL1  H15A 9233   3.511   3.082   7.571 -0.3325 -1.2065 -1.1884
   92CHL1  H15B 9234   3.648   2.985   7.517  0.6080 -0.2191  1.1368
   92CHL1   C16 9235   3.699   3.136   7.659  0.4425 -0.6262 -0.4973
   92CHL1  H16A 9236   3.628   3.138   7.744 -0.0866 -1.7115 -0.9125
   92CHL1  H16B 9237   3.785   3.076   7.695 -0.3107 -0.6061  1.3784
   92CHL1   C17 9238   3.759   3.280   7.618  0.3264 -0.1584  0.0545
   92CHL1   H17 9239   3.863   3.263   7.581  0.2160  1.1923 -0.9184
   92CHL1   C13 9240   3.673   3.330   7.502 -0.3116 -0.1807 -0.9213
   92CHL1   C18 9241   3.528   3.362   7.559 -0.4899 -0.2553 -0.0399
   92CHL1  H18A 9242   3.462   3.393   7.475  2.0276 -1.0237 -2.3956
   92CHL1  H18B 9243   3.464   3.283   7.603 -0.3970 -0.6286 -0.5644
   92CHL1  H18C 9244   3.548   3.451   7.623  1.0459  0.1393 -1.0332
   92CHL1   C12 9245   3.737   3.431   7.402  0.3079  0.1355 -0.4037
   92CHL1  H12A 9246   3.727   3.534   7.444  2.4695  0.0080  0.4394
   92CHL1  H12B 9247   3.847   3.417   7.401  0.9652  4.5880 -1.0203
   92CHL1   C11 9248   3.664   3.438   7.270  0.4920  0.1765 -0.6405
   92CHL1  H11A 9249   3.569   3.493   7.287  2.1623  3.5112 -1.6681
   92CHL1  H11B 9250   3.722   3.493   7.193 -0.7149  0.6958 -1.1976
   92CHL1    C9 9251   3.635   3.293   7.210 -0.2736 -0.8477 -0.2789
   92CHL1    H9 9252   3.738   3.255   7.196  0.3661  0.1610  1.4317
   92CHL1   C10 9253   3.560   3.290   7.074 -0.2016  1.1670  0.2620
   92CHL1   C19 9254   3.438   3.380   7.078 -0.0452 -0.0785  0.2636
   92CHL1  H19A 9255   3.477   3.484   7.084 -1.6194  0.8176 -3.3942
   92CHL1  H19B 9256   3.369   3.389   6.991 -0.5556 -1.8824  0.4578
   92CHL1  H19C 9257   3.381   3.342   7.166  0.5120 -0.5681  0.4137
   92CHL1    C1 9258   3.660   3.345   6.965  0.1348  0.3768  0.4899
   92CHL1   H1A 9259   3.703   3.446   6.979  0.4398  0.4397 -0.8281
   92CHL1   H1B 9260   3.744   3.272   6.965  0.2460  0.4976 -0.1512
   92CHL1    C2 9261   3.592   3.341   6.825  0.1098  0.1174  0.3576
   92CHL1   H2A 9262   3.651   3.395   6.749 -0.4031 -0.3858 -0.4027
   92CHL1   H2B 9263   3.493   3.389   6.825 -0.0855 -0.2766  0.9339
   92CHL1   C20 9264   3.773   3.375   7.739  0.0212  0.2367 -0.7314
   92CHL1   H20 9265   3.677   3.392   7.792 -0.1621  2.3430 -1.7155
   92CHL1   C21 9266   3.811   3.516   7.695 -0.7399 -0.0044 -0.9582
   92CHL1  H21A 9267   3.810   3.581   7.785 -1.9374  0.3858 -1.2389
   92CHL1  H21B 9268   3.733   3.572   7.639 -0.2011  1.4040 -0.3414
   92CHL1  H21C 9269   3.905   3.514   7.635  0.1184 -0.8418  0.3852
   92CHL1   C22 9270   3.871   3.315   7.843  0.2541 -0.9006  0.2956
   92CHL1  H22A 9271   3.851   3.209   7.870  0.2113 -0.6685  1.1985
   92CHL1  H22B 9272   3.975   3.327   7.806  0.2583 -0.9786  0.2799
   92CHL1   C23 9273   3.884   3.386   7.977  0.6815 -0.4284  0.3601
   92CHL1  H23A 9274   3.908   3.492   7.952  0.6330 -1.1304 -2.9083
   92CHL1  H23B 9275   3.787   3.386   8.030  1.1219  0.6354  1.1745
   92CHL1   C24 9276   3.978   3.316   8.078  0.1637 -0.6954  0.3147
   92CHL1  H24A 9277   3.952   3.208   8.074  2.7243 -1.3443  0.1647
   92CHL1  H24B 9278   4.085   3.335   8.052 -0.4144  1.1464 -0.8282
   92CHL1   C25 9279   3.969   3.361   8.226 -0.5258  0.0189 -0.0228
   92CHL1   H25 9280   3.868   3.328   8.260 -0.7357  1.2876  0.5969
   92CHL1   C26 9281   4.076   3.290   8.303 -0.4442 -0.4421  0.1292
   92CHL1  H26A 9282   4.178   3.313   8.266 -0.8585 -0.0728 -0.8154
   92CHL1  H26B 9283   4.066   3.327   8.407 -3.2584  0.6710 -0.4864
   92CHL1  H26C 9284   4.051   3.182   8.298 -0.4514 -0.4458  0.2526
   92CHL1   C27 9285   3.979   3.511   8.234 -0.2510  0.2173  1.2799
   92CHL1  H27A 9286   4.076   3.535   8.185 -0.3988 -0.7758  0.4983
   92CHL1  H27B 9287   3.900   3.563   8.175 -1.5100 -2.4984  0.4791
   92CHL1  H27C 9288   3.961   3.553   8.335  0.7986  1.1772  1.0737
   93CHL1    C3 9289   2.241   0.966   6.930 -0.0964 -0.3369 -0.4578
   93CHL1    H3 9290   2.164   0.889   6.952  0.0049 -0.1923  0.4186
   93CHL1    O3 9291   2.243   0.977   6.788  0.1023  0.6078  0.2291
   93CHL1   H3' 9292   2.305   1.045   6.761 -1.2546  1.3877 -1.0034
   93CHL1    C4 9293   2.212   1.104   6.996 -0.7750  0.0625 -0.3681
   93CHL1   H4A 9294   2.276   1.175   6.938 -1.4913  0.3348 -0.8288
   93CHL1   H4B 9295   2.107   1.123   6.966 -1.1118  1.0715  1.3236
   93CHL1    C5 9296   2.231   1.104   7.152  0.0221  0.2263 -0.5018
   93CHL1    C6 9297   2.139   1.143   7.238  0.6984 -0.2419 -0.3283
   93CHL1    H6 9298   2.040   1.175   7.201 -0.4256 -1.0684  1.8570
   93CHL1    C7 9299   2.164   1.148   7.389 -0.0428 -0.2956 -0.1617
   93CHL1   H7A 9300   2.126   1.245   7.428  0.0515  0.6484 -2.3461
   93CHL1   H7B 9301   2.096   1.069   7.427 -0.2025 -1.4574 -2.7439
   93CHL1    C8 9302   2.311   1.133   7.435 -0.4046 -0.1145  0.0443
   93CHL1    H8 9303   2.361   1.231   7.421  0.5893 -0.6531 -0.1816
   93CHL1   C14 9304   2.308   1.084   7.582 -0.3031 -0.3789 -0.6311
   93CHL1   H14 9305   2.256   0.987   7.594 -1.7557  0.7073  2.2584
   93CHL1   C15 9306   2.236   1.167   7.693  0.7495 -0.1109 -0.2592
   93CHL1  H15A 9307   2.263   1.272   7.671  1.0981  0.1271  1.2152
   93CHL1  H15B 9308   2.126   1.154   7.687  0.6170  1.1420 -0.6200
   93CHL1   C16 9309   2.295   1.106   7.824 -0.1962 -0.2612  0.0257
   93CHL1  H16A 9310   2.333   1.183   7.894  0.3795 -2.1170  1.7936
   93CHL1  H16B 9311   2.215   1.048   7.875 -1.2320  1.0591 -0.0543
   93CHL1   C17 9312   2.416   1.024   7.779 -0.4863  0.5234 -0.8043
   93CHL1   H17 9313   2.376   0.920   7.780 -1.6302  0.9671  0.6144
   93CHL1   C13 9314   2.454   1.060   7.631  0.4956 -0.2763  0.2915
   93CHL1   C18 9315   2.537   1.192   7.628 -0.0215  0.4753  0.1911
   93CHL1  H18A 9316   2.530   1.243   7.529  0.8833 -0.4622 -0.3619
   93CHL1  H18B 9317   2.478   1.252   7.700  0.9974 -1.3187  2.6047
   93CHL1  H18C 9318   2.645   1.189   7.654 -0.3916  1.8284  2.0058
   93CHL1   C12 9319   2.504   0.944   7.547 -0.7266  0.1626 -0.7774
   93CHL1  H12A 9320   2.609   0.925   7.577 -0.4406  1.1085 -1.1667
   93CHL1  H12B 9321   2.450   0.847   7.556  0.1283 -0.5798 -3.2025
   93CHL1   C11 9322   2.507   0.976   7.398 -0.2277  0.0751  0.0764
   93CHL1  H11A 9323   2.589   1.052   7.396  0.1601 -0.2339  3.0580
   93CHL1  H11B 9324   2.539   0.882   7.348 -1.3342  1.3165 -3.1320
   93CHL1    C9 9325   2.369   1.022   7.353 -0.4456 -0.2970  0.4349
   93CHL1    H9 9326   2.304   0.934   7.370  0.4450 -0.9064  0.7709
   93CHL1   C10 9327   2.371   1.056   7.200  0.8858 -0.1696  0.3650
   93CHL1   C19 9328   2.469   1.165   7.168  0.1377  0.7954 -0.5804
   93CHL1  H19A 9329   2.477   1.187   7.060 -1.1293 -1.6675 -1.2102
   93CHL1  H19B 9330   2.442   1.258   7.223 -0.6930 -0.7426  1.7020
   93CHL1  H19C 9331   2.569   1.136   7.208 -0.2960 -0.0987 -0.1377
   93CHL1    C1 9332   2.416   0.926   7.119  0.2936 -0.3574 -0.0468
   93CHL1   H1A 9333   2.525   0.919   7.138  0.1893  0.2284  0.8479
   93CHL1   H1B 9334   2.373   0.835   7.167 -3.6771  1.5419  0.2166
   93CHL1    C2 9335   2.386   0.920   6.969  0.4281 -0.5916  0.2117
   93CHL1   H2A 9336   2.415   0.819   6.932  0.8391 -0.4434  0.1287
   93CHL1   H2B 9337   2.449   0.993   6.914 -0.4715  0.9148  1.1249
   93CHL1   C20 9338   2.528   1.019   7.884  0.7034 -0.1493  0.4400
   93CHL1   H20 9339   2.554   1.126   7.902 -0.6402  0.2861 -0.1226
   93CHL1   C21 9340   2.648   0.937   7.828 -0.4773 -0.3245  0.2968
   93CHL1  H21A 9341   2.715   0.934   7.917 -2.8944  2.3845  2.3099
   93CHL1  H21B 9342   2.715   0.977   7.749 -1.6013  0.8237 -0.0758
   93CHL1  H21C 9343   2.625   0.834   7.794  0.2346 -0.0468 -1.0527
   93CHL1   C22 9344   2.492   0.959   8.025 -0.1604  0.7298 -0.2528
   93CHL1  H22A 9345   2.429   0.868   8.021  0.6547  0.1764 -0.8441
   93CHL1  H22B 9346   2.586   0.938   8.080  1.0512  0.0620 -2.5226
   93CHL1   C23 9347   2.437   1.066   8.122  0.4755  0.0731  1.4862
   93CHL1  H23A 9348   2.508   1.152   8.116 -1.9355  2.0315  0.2825
   93CHL1  H23B 9349   2.342   1.106   8.080  1.6287  0.5589 -0.7417
   93CHL1   C24 9350   2.419   1.017   8.265 -0.0663  0.4269  0.1351
   93CHL1  H24A 9351   2.365   0.920   8.264 -0.9932  0.9321 -0.0417
   93CHL1  H24B 9352   2.524   0.990   8.288 -0.2694 -1.4854 -1.0676
   93CHL1   C25 9353   2.362   1.111   8.371  0.0133  0.2598 -0.0001
   93CHL1   H25 9354   2.420   1.206   8.370 -1.6347  1.3200  1.3960
   93CHL1   C26 9355   2.211   1.142   8.345 -0.4522 -0.0781 -0.0242
   93CHL1  H26A 9356   2.176   1.218   8.417 -0.9416 -0.3580  0.0362
   93CHL1  H26B 9357   2.184   1.170   8.241 -1.4790 -2.6334 -0.4783
   93CHL1  H26C 9358   2.146   1.055   8.368  0.2276 -0.5314  0.2341
   93CHL1   C27 9359   2.373   1.054   8.512  0.3177  0.1495 -0.0648
   93CHL1  H27A 9360   2.299   0.976   8.542 -0.7632  0.4955 -1.7636
   93CHL1  H27B 9361   2.469   1.000   8.523  1.3426  1.4656 -2.1291
   93CHL1  H27C 9362   2.376   1.138   8.586  2.0071  0.3904 -0.4073
   94CHL1    C3 9363   4.674   3.587   6.764  0.7923 -0.0171 -0.0062
   94CHL1    H3 9364   4.779   3.624   6.760  0.6278  0.2921 -3.4664
   94CHL1    O3 9365   4.623   3.591   6.629  0.3288 -0.3590  0.2111
   94CHL1   H3' 9366   4.532   3.561   6.627  0.6236 -1.2490  0.0888
   94CHL1    C4 9367   4.652   3.447   6.827  0.0149 -0.2418  0.4992
   94CHL1   H4A 9368   4.547   3.414   6.817 -0.1901  0.3837  0.5843
   94CHL1   H4B 9369   4.707   3.376   6.761 -0.8695 -0.5210  0.0485
   94CHL1    C5 9370   4.697   3.443   6.970 -0.4647 -0.5570  0.2633
   94CHL1    C6 9371   4.798   3.360   7.010  0.4116  0.9271 -0.3766
   94CHL1    H6 9372   4.843   3.290   6.939 -1.3230  0.6444 -1.2308
   94CHL1    C7 9373   4.840   3.346   7.153 -0.9079  0.4613 -0.1580
   94CHL1   H7A 9374   4.839   3.238   7.181  0.1736  1.1277  2.6441
   94CHL1   H7B 9375   4.944   3.378   7.174 -0.3006  0.6943 -3.3007
   94CHL1    C8 9376   4.750   3.429   7.247 -0.5105 -0.4743  0.5667
   94CHL1    H8 9377   4.668   3.356   7.262 -1.7662  0.9380  0.5852
   94CHL1   C14 9378   4.814   3.447   7.382 -0.6080 -0.4330  0.0480
   94CHL1   H14 9379   4.904   3.512   7.374 -0.2108 -0.6842  2.1240
   94CHL1   C15 9380   4.873   3.331   7.462 -0.1532  0.3598  0.4622
   94CHL1  H15A 9381   4.835   3.231   7.430 -2.2502  1.1135  0.5343
   94CHL1  H15B 9382   4.979   3.322   7.430  0.2858  1.4205  1.6075
   94CHL1   C16 9383   4.857   3.358   7.616 -0.6417 -0.3988 -0.3837
   94CHL1  H16A 9384   4.794   3.275   7.654  0.4045 -0.6097  0.9113
   94CHL1  H16B 9385   4.959   3.366   7.659 -0.5492  2.4947 -1.0212
   94CHL1   C17 9386   4.799   3.499   7.620 -0.1023  0.4997  0.0683
   94CHL1   H17 9387   4.881   3.573   7.626  0.4256  0.0481 -1.3639
   94CHL1   C13 9388   4.715   3.514   7.487 -0.8212 -0.0950 -0.0747
   94CHL1   C18 9389   4.581   3.443   7.495  0.8509 -0.5154  0.4658
   94CHL1  H18A 9390   4.589   3.335   7.520 -2.1366 -1.2236 -1.3741
   94CHL1  H18B 9391   4.509   3.485   7.568  2.3233  0.1823  1.5281
   94CHL1  H18C 9392   4.525   3.448   7.399 -0.3835 -2.8797  1.0146
   94CHL1   C12 9393   4.697   3.664   7.437 -0.7599  0.2731  0.7961
   94CHL1  H12A 9394   4.620   3.718   7.495 -0.3959  0.7587  0.8288
   94CHL1  H12B 9395   4.799   3.707   7.431 -1.1593  0.9993 -1.3947
   94CHL1   C11 9396   4.649   3.664   7.287 -0.1611  0.3181 -0.5780
   94CHL1  H11A 9397   4.542   3.635   7.294 -0.1144 -0.6896 -3.3442
   94CHL1  H11B 9398   4.650   3.766   7.241  1.9749  1.1419  1.2499
   94CHL1    C9 9399   4.709   3.566   7.190 -0.4076 -0.1217  0.4339
   94CHL1    H9 9400   4.807   3.609   7.159 -1.6211  1.7037 -0.9186
   94CHL1   C10 9401   4.629   3.548   7.056  0.1066 -0.0114  0.1937
   94CHL1   C19 9402   4.481   3.500   7.088  0.3772 -0.1391  0.0682
   94CHL1  H19A 9403   4.489   3.408   7.151 -1.9549 -1.9672 -2.2113
   94CHL1  H19B 9404   4.430   3.583   7.142 -0.9399 -2.2084  2.1393
   94CHL1  H19C 9405   4.424   3.478   6.996 -0.2667 -1.8760  0.8472
   94CHL1    C1 9406   4.627   3.691   6.992  0.0303  0.1548  0.0704
   94CHL1   H1A 9407   4.553   3.745   7.054  1.0385  0.5613  0.9517
   94CHL1   H1B 9408   4.723   3.747   7.002 -1.4128  2.7387 -0.1323
   94CHL1    C2 9409   4.594   3.694   6.839 -0.0395  0.2594  0.0714
   94CHL1   H2A 9410   4.613   3.790   6.786 -4.1958 -0.7987 -3.6192
   94CHL1   H2B 9411   4.485   3.677   6.832  0.1918 -1.6899  0.8831
   94CHL1   C20 9412   4.715   3.506   7.752  0.1969 -0.1642  0.2969
   94CHL1   H20 9413   4.614   3.461   7.742  0.3480 -0.4739  0.1439
   94CHL1   C21 9414   4.686   3.655   7.785  0.5432  0.3221  0.3435
   94CHL1  H21A 9415   4.778   3.712   7.813 -0.9866  1.8369  2.4535
   94CHL1  H21B 9416   4.607   3.659   7.863 -0.8959  1.8901 -1.1434
   94CHL1  H21C 9417   4.626   3.698   7.702 -0.7285 -2.2070 -0.0853
   94CHL1   C22 9418   4.769   3.437   7.883 -0.4929  0.1608 -0.2270
   94CHL1  H22A 9419   4.698   3.454   7.967  0.1040  2.4080 -0.1467
   94CHL1  H22B 9420   4.767   3.327   7.867 -0.9859  0.0516  0.5488
   94CHL1   C23 9421   4.913   3.478   7.925  0.8873  0.5374 -0.0253
   94CHL1  H23A 9422   4.978   3.473   7.835  0.5056 -1.4851 -0.2245
   94CHL1  H23B 9423   4.919   3.584   7.957 -2.4418  1.5609 -2.5622
   94CHL1   C24 9424   4.977   3.382   8.031 -1.3409  0.0317  0.5813
   94CHL1  H24A 9425   4.911   3.397   8.119  0.3402  0.5411  1.7905
   94CHL1  H24B 9426   4.964   3.276   8.003  1.4206  0.2799 -1.8901
   94CHL1   C25 9427   5.130   3.391   8.062  0.1373 -0.1194 -0.1018
   94CHL1   H25 9428   5.194   3.392   7.972 -0.0797 -1.3961 -0.2754
   94CHL1   C26 9429   5.150   3.520   8.149  0.0405 -0.5160  0.0934
   94CHL1  H26A 9430   5.086   3.509   8.240 -1.7474  0.0505 -1.0699
   94CHL1  H26B 9431   5.255   3.542   8.177 -0.6337  0.8340  1.7076
   94CHL1  H26C 9432   5.124   3.611   8.091 -0.7049 -2.0404 -2.0147
   94CHL1   C27 9433   5.173   3.273   8.154  0.0314  0.9317 -0.1281
   94CHL1  H27A 9434   5.174   3.182   8.091 -0.8889  1.8158 -1.4440
   94CHL1  H27B 9435   5.271   3.288   8.203 -0.0673  1.7209 -0.1558
   94CHL1  H27C 9436   5.096   3.261   8.234 -1.3899 -0.6911 -1.6810
   95CHL1    C3 9437   4.558   2.929   6.682 -0.4790 -0.0001 -0.0545
   95CHL1    H3 9438   4.449   2.911   6.671 -0.1432 -1.0679 -1.9136
   95CHL1    O3 9439   4.607   2.949   6.549 -0.0996 -0.0847 -0.1347
   95CHL1   H3' 9440   4.537   2.922   6.490  2.5426 -0.9487 -3.0485
   95CHL1    C4 9441   4.596   3.049   6.771  0.7285  0.0058  0.0679
   95CHL1   H4A 9442   4.702   3.082   6.760  1.2038 -0.2654  3.1462
   95CHL1   H4B 9443   4.533   3.125   6.722  1.3569 -0.0287 -0.7949
   95CHL1    C5 9444   4.548   3.030   6.916 -0.1189  0.2030 -0.6390
   95CHL1    C6 9445   4.467   3.116   6.978 -0.2094 -1.1078  0.2801
   95CHL1    H6 9446   4.439   3.208   6.925 -0.3003 -1.3877 -0.1575
   95CHL1    C7 9447   4.421   3.098   7.117  0.3547  0.0364 -0.9393
   95CHL1   H7A 9448   4.433   3.198   7.163  0.7542 -0.9820  1.2187
   95CHL1   H7B 9449   4.316   3.063   7.119 -0.1014  1.4356 -0.1757
   95CHL1    C8 9450   4.513   3.008   7.195  0.0300 -0.5802 -0.0910
   95CHL1    H8 9451   4.609   3.062   7.204 -1.1429  1.2924  1.8887
   95CHL1   C14 9452   4.461   2.986   7.336  0.0662 -0.3828  0.6995
   95CHL1   H14 9453   4.358   2.948   7.319  0.2163  0.1710 -1.7138
   95CHL1   C15 9454   4.455   3.107   7.435  0.3668 -0.3250  0.1962
   95CHL1  H15A 9455   4.549   3.164   7.422 -1.3480  2.3795 -0.9619
   95CHL1  H15B 9456   4.373   3.175   7.402  0.4712 -2.3407 -4.7882
   95CHL1   C16 9457   4.427   3.047   7.577 -0.2316 -0.5184 -0.8038
   95CHL1  H16A 9458   4.505   3.088   7.644 -0.0993  0.5889 -1.6215
   95CHL1  H16B 9459   4.319   3.062   7.597 -0.6855 -3.2581 -0.9281
   95CHL1   C17 9460   4.454   2.890   7.558  0.2956 -0.7244 -0.0107
   95CHL1   H17 9461   4.349   2.855   7.546 -0.9797  1.9320  2.8336
   95CHL1   C13 9462   4.522   2.872   7.423  0.4540 -0.2012  0.0645
   95CHL1   C18 9463   4.675   2.895   7.435  0.1401 -0.3600 -0.6168
   95CHL1  H18A 9464   4.714   2.803   7.485  0.5976 -1.1453 -2.3735
   95CHL1  H18B 9465   4.721   2.911   7.336  0.8373  0.5959 -0.1420
   95CHL1  H18C 9466   4.696   2.985   7.497  0.2635 -1.2150  0.6228
   95CHL1   C12 9467   4.504   2.746   7.346 -0.0199 -0.1924 -0.1329
   95CHL1  H12A 9468   4.546   2.652   7.388  1.5507  0.7877  0.5360
   95CHL1  H12B 9469   4.397   2.726   7.323 -0.1945 -0.9886  1.3279
   95CHL1   C11 9470   4.574   2.752   7.202 -0.8662  0.2552  0.8091
   95CHL1  H11A 9471   4.685   2.755   7.208 -0.9218 -0.0979  2.0880
   95CHL1  H11B 9472   4.553   2.656   7.151  1.1121  0.8645 -1.2317
   95CHL1    C9 9473   4.526   2.876   7.117  0.5771  0.2479  0.2709
   95CHL1    H9 9474   4.422   2.846   7.090  0.1726 -0.0251  2.0503
   95CHL1   C10 9475   4.600   2.903   6.984  0.0298  0.2973 -0.1065
   95CHL1   C19 9476   4.752   2.914   7.014 -0.1701 -0.2259  0.3298
   95CHL1  H19A 9477   4.778   2.994   7.087  0.3984 -1.4884  1.5436
   95CHL1  H19B 9478   4.796   2.821   7.058  1.9600  1.3717  1.6958
   95CHL1  H19C 9479   4.805   2.938   6.920  0.7889 -0.4850  0.7930
   95CHL1    C1 9480   4.572   2.787   6.889 -0.2416 -0.6871 -0.3155
   95CHL1   H1A 9481   4.619   2.689   6.910  2.8690  0.3603 -1.9989
   95CHL1   H1B 9482   4.462   2.770   6.889  0.0350 -2.9483 -2.9779
   95CHL1    C2 9483   4.612   2.805   6.744 -0.1657 -0.1522 -0.0808
   95CHL1   H2A 9484   4.578   2.719   6.683 -0.4488 -0.3592  0.3707
   95CHL1   H2B 9485   4.723   2.802   6.743 -0.1331 -0.0982 -3.4552
   95CHL1   C20 9486   4.529   2.829   7.678 -0.0238 -0.5694  0.1163
   95CHL1   H20 9487   4.629   2.876   7.675  0.2211 -0.8851  2.3061
   95CHL1   C21 9488   4.536   2.679   7.684  0.4087  0.2906  0.5975
   95CHL1  H21A 9489   4.586   2.640   7.775 -0.1296 -0.5088  0.5605
   95CHL1  H21B 9490   4.609   2.639   7.610 -0.1423  0.1696  0.1165
   95CHL1  H21C 9491   4.431   2.643   7.680 -0.6670  3.2349  0.7881
   95CHL1   C22 9492   4.469   2.869   7.820  0.5388  1.1274 -0.2433
   95CHL1  H22A 9493   4.518   2.812   7.902  2.2559  0.1893 -1.8916
   95CHL1  H22B 9494   4.485   2.978   7.840 -2.9407  1.3570  1.7780
   95CHL1   C23 9495   4.317   2.839   7.843  0.2095  0.6853 -0.4477
   95CHL1  H23A 9496   4.253   2.858   7.753 -0.1801  0.5000 -0.2108
   95CHL1  H23B 9497   4.309   2.730   7.865  0.8655  0.8741  0.7342
   95CHL1   C24 9498   4.255   2.925   7.957 -0.5284 -0.3733 -0.6430
   95CHL1  H24A 9499   4.264   3.031   7.925 -2.7057  0.4402  1.2971
   95CHL1  H24B 9500   4.146   2.905   7.964 -0.9627  1.9924 -0.2189
   95CHL1   C25 9501   4.322   2.909   8.094 -0.5704  0.3138 -0.2570
   95CHL1   H25 9502   4.429   2.941   8.088 -0.7649  1.1770  0.7565
   95CHL1   C26 9503   4.267   3.015   8.194 -0.3148 -0.5769 -0.2466
   95CHL1  H26A 9504   4.269   3.116   8.147  0.5340 -0.9966 -1.1348
   95CHL1  H26B 9505   4.162   2.990   8.220 -1.4334  1.7875 -2.2483
   95CHL1  H26C 9506   4.314   3.019   8.294  1.0160 -0.9765 -0.8473
   95CHL1   C27 9507   4.297   2.768   8.145 -0.0284  0.2783 -0.1761
   95CHL1  H27A 9508   4.353   2.698   8.078 -2.4587 -0.2206 -1.7424
   95CHL1  H27B 9509   4.350   2.763   8.242 -1.7336  0.5769  0.7823
   95CHL1  H27C 9510   4.191   2.737   8.152 -0.3545  0.8465 -2.0801
   96CHL1    C3 9511   4.585   2.070   6.733  0.2877  0.2614 -0.0370
   96CHL1    H3 9512   4.601   1.963   6.706 -1.0397 -0.1040  0.5775
   96CHL1    O3 9513   4.565   2.135   6.612 -0.4129 -0.0037 -0.3755
   96CHL1   H3' 9514   4.650   2.128   6.568 -0.7049 -1.8330 -0.6841
   96CHL1    C4 9515   4.449   2.075   6.814  0.4216 -0.0868  0.3998
   96CHL1   H4A 9516   4.408   2.178   6.821 -3.6530 -1.6221  0.7728
   96CHL1   H4B 9517   4.366   2.023   6.761  2.2880 -2.6530 -0.1049
   96CHL1    C5 9518   4.461   2.016   6.956 -0.3349 -0.8339  0.8940
   96CHL1    C6 9519   4.387   1.916   7.004  0.2172 -0.2102  0.1733
   96CHL1    H6 9520   4.305   1.879   6.941  1.8070 -2.1540 -0.8057
   96CHL1    C7 9521   4.392   1.852   7.131  0.5948 -0.1137  0.7156
   96CHL1   H7A 9522   4.292   1.833   7.176  0.7369  0.9861  1.5458
   96CHL1   H7B 9523   4.440   1.757   7.102  0.0589 -0.8312  2.1041
   96CHL1    C8 9524   4.468   1.935   7.231 -0.1509  0.2990 -0.2715
   96CHL1    H8 9525   4.408   2.024   7.258  0.6552  0.5077  0.8516
   96CHL1   C14 9526   4.500   1.852   7.354 -0.3441 -0.0092  0.7788
   96CHL1   H14 9527   4.568   1.768   7.331 -1.2400 -0.5067 -0.1035
   96CHL1   C15 9528   4.385   1.784   7.422  0.1025 -0.1337  0.3397
   96CHL1  H15A 9529   4.300   1.855   7.411  0.8088  0.7564  0.4778
   96CHL1  H15B 9530   4.379   1.684   7.375  2.4403  0.2412 -0.8500
   96CHL1   C16 9531   4.443   1.763   7.564 -0.2955  0.3529  0.3402
   96CHL1  H16A 9532   4.365   1.812   7.626 -1.8853  0.2399 -1.5426
   96CHL1  H16B 9533   4.451   1.654   7.583  0.5566  0.1933 -0.8392
   96CHL1   C17 9534   4.585   1.830   7.580  0.0768  0.0517  0.4192
   96CHL1   H17 9535   4.659   1.749   7.560  0.0861  0.3669 -0.9108
   96CHL1   C13 9536   4.583   1.932   7.456 -0.3323  0.0219 -0.3607
   96CHL1   C18 9537   4.495   2.055   7.505 -0.2189 -0.6261 -0.1369
   96CHL1  H18A 9538   4.478   2.120   7.417 -3.6828 -1.7259 -0.3586
   96CHL1  H18B 9539   4.400   2.029   7.557  0.7135  0.8119  2.4137
   96CHL1  H18C 9540   4.554   2.117   7.576  0.0908 -2.7016  1.4948
   96CHL1   C12 9541   4.718   1.976   7.404  0.0847 -0.7393  0.3251
   96CHL1  H12A 9542   4.769   2.036   7.482  1.7465 -2.1476  0.3576
   96CHL1  H12B 9543   4.770   1.883   7.372  4.2391  1.3061  0.7959
   96CHL1   C11 9544   4.697   2.060   7.280  0.0062 -0.0320  0.2174
   96CHL1  H11A 9545   4.654   2.159   7.306  0.8590 -0.0456  1.7298
   96CHL1  H11B 9546   4.795   2.090   7.237  0.3052 -0.6317  0.4801
   96CHL1    C9 9547   4.606   1.992   7.174 -0.5266  0.3026  0.6721
   96CHL1    H9 9548   4.665   1.903   7.144  0.8041  1.0568  0.9989
   96CHL1   C10 9549   4.585   2.065   7.040 -0.9185  0.1790 -0.3693
   96CHL1   C19 9550   4.567   2.220   7.064  0.0833  0.4310 -0.9544
   96CHL1  H19A 9551   4.648   2.274   7.116 -2.0562  0.4685  2.4914
   96CHL1  H19B 9552   4.556   2.274   6.968  1.4018 -0.2798 -1.5096
   96CHL1  H19C 9553   4.469   2.226   7.117  0.6237 -2.3407  0.4824
   96CHL1    C1 9554   4.708   2.052   6.951 -0.5385  0.0934  0.4540
   96CHL1   H1A 9555   4.791   2.103   7.004  1.8578 -1.2055 -1.9232
   96CHL1   H1B 9556   4.735   1.945   6.934 -1.2203 -0.2910  1.7325
   96CHL1    C2 9557   4.698   2.114   6.813  0.0459 -0.3487 -0.2726
   96CHL1   H2A 9558   4.787   2.094   6.750 -1.3812 -0.7058 -2.2083
   96CHL1   H2B 9559   4.693   2.222   6.840  1.0662 -0.2352 -0.5480
   96CHL1   C20 9560   4.615   1.874   7.726  0.1857 -0.1496 -0.7837
   96CHL1   H20 9561   4.557   1.965   7.753  2.0481  0.6335  0.6986
   96CHL1   C21 9562   4.765   1.906   7.748  0.6056  0.0157  0.3651
   96CHL1  H21A 9563   4.787   1.930   7.855 -2.2593 -2.1916  1.5161
   96CHL1  H21B 9564   4.794   1.986   7.676  3.2746 -0.2126  1.1321
   96CHL1  H21C 9565   4.834   1.826   7.715 -1.4492 -0.9674 -1.6550
   96CHL1   C22 9566   4.568   1.765   7.836 -0.2053  0.4814 -0.4159
   96CHL1  H22A 9567   4.461   1.746   7.813 -0.0678 -0.1675 -0.5112
   96CHL1  H22B 9568   4.629   1.675   7.814 -0.0044  0.7696 -1.0791
   96CHL1   C23 9569   4.573   1.811   7.979  0.2703  0.1104 -0.4373
   96CHL1  H23A 9570   4.675   1.849   7.998  0.6301 -0.9037 -0.3404
   96CHL1  H23B 9571   4.510   1.902   7.990 -1.0983 -0.9322  0.6677
   96CHL1   C24 9572   4.541   1.713   8.097 -0.1631  0.1974  0.5229
   96CHL1  H24A 9573   4.440   1.671   8.077  2.2484 -4.6843 -2.2201
   96CHL1  H24B 9574   4.612   1.629   8.107  0.2651  0.6042  0.9513
   96CHL1   C25 9575   4.539   1.775   8.239  0.1859 -0.2298  0.2047
   96CHL1   H25 9576   4.465   1.858   8.232 -1.8596 -2.0258  0.1322
   96CHL1   C26 9577   4.482   1.669   8.334  0.5045  0.7882 -0.1984
   96CHL1  H26A 9578   4.557   1.588   8.321  0.6031  0.9492 -0.6335
   96CHL1  H26B 9579   4.475   1.694   8.442  0.2143 -2.3366  0.5488
   96CHL1  H26C 9580   4.382   1.637   8.299 -0.3650 -0.5220  3.2471
   96CHL1   C27 9581   4.677   1.824   8.281 -0.0059  0.0481  0.3174
   96CHL1  H27A 9582   4.679   1.865   8.384 -2.3032  1.4294 -0.1761
   96CHL1  H27B 9583   4.737   1.731   8.272 -1.3200 -0.9534  1.6986
   96CHL1  H27C 9584   4.713   1.895   8.204 -0.7553  0.2835  0.1847
   97OSM      N 9585   1.913   4.621  11.166  0.5461  0.6395  0.1311
   97OSM    C15 9586   1.836   4.744  11.127  0.0743 -0.5225  0.1063
   97OSM   H15A 9587   1.813   4.792  11.221  0.6254 -4.0481  2.1103
   97OSM   H15B 9588   1.736   4.720  11.094  1.2242 -1.4389 -2.9474
   97OSM   H15C 9589   1.884   4.796  11.045 -1.7293 -1.0233 -1.3163
   97OSM    C14 9590   1.978   4.565  11.046 -0.0008 -0.4768 -0.0314
   97OSM   H14A 9591   1.921   4.560  10.955 -1.7305  1.4521  0.9094
   97OSM   H14B 9592   2.004   4.464  11.075  0.9108 -0.1477  0.3236
   97OSM   H14C 9593   2.066   4.622  11.019  0.1834  0.2100  1.9548
   97OSM    C13 9594   2.018   4.650  11.270 -0.5445  0.0815 -0.6846
   97OSM   H13A 9595   1.980   4.648  11.371  1.4625 -5.2479  0.1159
   97OSM   H13B 9596   2.062   4.746  11.249 -0.4245  0.2659  0.3566
   97OSM   H13C 9597   2.091   4.572  11.279  2.8214  3.0152 -1.2378
   97OSM    C12 9598   1.813   4.519  11.221  0.3671 -0.1296 -0.0630
   97OSM   H12A 9599   1.745   4.494  11.142 -1.5140 -3.2679  2.4156
   97OSM   H12B 9600   1.745   4.565  11.292  0.8810  0.2958  0.1559
   97OSM    C11 9601   1.856   4.384  11.279  0.5750 -0.5109  0.4984
   97OSM   H11A 9602   1.763   4.332  11.308  0.3148  0.5524  1.6028
   97OSM   H11B 9603   1.916   4.393  11.372 -1.1685  2.5085  1.4014
   97OSM      P 9604   1.985   4.170  11.227  0.2639  0.3229  0.1422
   97OSM    O13 9605   2.087   4.199  11.329 -0.2416  0.1584 -0.5070
   97OSM    O14 9606   1.884   4.067  11.263 -0.1242  0.3857  0.0767
   97OSM    O11 9607   2.054   4.130  11.091  0.2901  0.5976 -0.0786
   97OSM    O12 9608   1.918   4.308  11.180 -0.2772 -0.0306 -0.1383
   97OSM    C1S 9609   1.966   4.118  10.978 -0.2058  0.7636 -0.2371
   97OSM    H1S 9610   1.942   4.222  10.948  0.3034  0.4029 -1.9454
   97OSM    H1T 9611   1.871   4.075  11.015  0.5220 -0.6649  0.0106
   97OSM     NF 9612   1.931   4.064  10.749 -0.0039 -0.3390  0.2966
   97OSM    HNF 9613   1.855   3.999  10.745 -1.3286  1.0884  1.8027
   97OSM    C2S 9614   2.016   4.038  10.856 -0.2945  0.5815  1.0741
   97OSM    H2S 9615   2.116   4.081  10.833 -0.9404  0.7769 -1.4382
   97OSM    C3S 9616   2.045   3.883  10.892  0.1791 -0.0569 -1.0164
   97OSM    H3S 9617   1.959   3.828  10.934  0.7204 -0.2553 -0.1525
   97OSM     O3 9618   2.152   3.873  10.986  0.1492 -0.1565  0.2170
   97OSM    HO3 9619   2.173   3.965  11.003 -0.6835 -0.2003  1.4787
   97OSM    C4S 9620   2.099   3.823  10.771 -0.3219  0.4289  0.4549
   97OSM    H4S 9621   2.192   3.863  10.729 -0.1833  0.0855  0.4314
   97OSM    C5S 9622   2.033   3.727  10.698  0.2259  0.5956 -0.0393
   97OSM    H5S 9623   1.939   3.688  10.739  1.8698 -1.2449  2.1290
   97OSM    C6S 9624   2.079   3.662  10.564  0.3630  0.6347  0.9154
   97OSM    H6S 9625   2.043   3.557  10.554  0.2976  0.8477 -1.3589
   97OSM    H6T 9626   2.189   3.664  10.550 -0.0808  0.8432 -3.2511
   97OSM    C7S 9627   2.019   3.750  10.449 -0.3402  0.9476  0.4912
   97OSM    H7S 9628   2.053   3.855  10.460  0.9903  0.8897 -2.5665
   97OSM    H7T 9629   1.908   3.752  10.454 -0.5811 -1.9048 -2.3665
   97OSM    C8S 9630   2.067   3.712  10.301 -0.2372  0.4604 -0.1481
   97OSM    H8S 9631   2.043   3.604  10.288 -1.6844  0.5988  1.3277
   97OSM    H8T 9632   2.179   3.713  10.302 -0.0925 -4.0051  1.0302
   97OSM    C9S 9633   2.009   3.798  10.188 -0.2572 -0.5446  0.0011
   97OSM    H9S 9634   2.035   3.905  10.198  3.6025 -1.3394 -0.8402
   97OSM    H9T 9635   1.899   3.799  10.208 -0.6107 -1.8491 -1.7240
   97OSM   C10S 9636   2.047   3.760  10.050  0.7968 -0.6341 -0.5892
   97OSM   H10S 9637   2.036   3.651  10.032  2.0495 -0.6935 -0.9838
   97OSM   H10T 9638   2.154   3.784  10.039 -0.0004  2.0655 -2.9150
   97OSM   C11S 9639   1.965   3.834   9.942 -0.6757 -0.3123  0.7086
   97OSM   H11S 9640   1.978   3.939   9.975  0.9641 -0.2272 -0.1721
   97OSM   H11T 9641   1.857   3.810   9.955 -0.4632 -0.4751  2.3636
   97OSM   C12S 9642   2.004   3.791   9.800 -0.4769 -0.4193  0.2606
   97OSM   H12S 9643   1.990   3.683   9.780 -0.2752 -0.4842  0.4705
   97OSM   H12T 9644   2.114   3.795   9.790 -0.4968 -2.1033 -0.7920
   97OSM   C13S 9645   1.933   3.866   9.686 -0.1429 -0.6829 -0.7224
   97OSM   H13S 9646   1.960   3.973   9.702 -0.1442 -1.1732  3.0111
   97OSM   H13T 9647   1.822   3.864   9.687 -0.1349 -2.6027 -1.2110
   97OSM   C14S 9648   1.983   3.838   9.540  0.0422 -0.0065  0.1359
   97OSM   H14S 9649   2.093   3.852   9.533 -0.1379  0.4319 -2.2611
   97OSM   H14T 9650   1.938   3.916   9.475  1.2811  0.1422 -0.5733
   97OSM   C15S 9651   1.952   3.692   9.492 -1.1376 -1.1547  0.5567
   97OSM   H15S 9652   1.843   3.673   9.497 -1.5778  1.2962  0.6987
   97OSM   H15T 9653   2.006   3.623   9.561 -2.0101 -1.3680  1.0315
   97OSM   C16S 9654   2.015   3.667   9.344  0.0078  0.4197  0.5596
   97OSM   H16S 9655   2.122   3.649   9.365  0.1021  0.2247 -0.0844
   97OSM   H16T 9656   1.990   3.762   9.291  2.1397 -0.4690 -2.1040
   97OSM   C17S 9657   1.952   3.548   9.277 -0.3715  0.2300  0.1629
   97OSM   H17S 9658   1.946   3.470   9.356 -2.4267  0.3540  0.1428
   97OSM   H17T 9659   2.007   3.487   9.203  1.4866  0.8327  1.0159
   97OSM   C18S 9660   1.808   3.580   9.230 -0.4427 -0.1126 -0.5028
   97OSM   H18S 9661   1.815   3.647   9.141  2.1013 -1.5631 -1.4362
   97OSM   H18T 9662   1.747   3.636   9.305 -1.2716 -1.1541 -0.3911
   97OSM   H18U 9663   1.741   3.492   9.221 -0.1869 -0.4526  0.7700
   97OSM    C1F 9664   1.923   4.180  10.685  0.0355  0.4679  0.1429
   97OSM     OF 9665   1.985   4.279  10.723  0.0136  0.3751 -0.4634
   97OSM    C2F 9666   1.831   4.177  10.570  0.7259  0.6694 -0.1892
   97OSM    H2F 9667   1.738   4.223  10.609  0.9620  1.4707 -0.5732
   97OSM    H2G 9668   1.824   4.068  10.550 -0.1136  0.9391 -1.4136
   97OSM    C3F 9669   1.891   4.239  10.445 -0.1055 -0.6581 -0.2480
   97OSM    H3F 9670   1.919   4.343  10.474  0.6418 -0.3430 -2.0592
   97OSM    H3G 9671   1.808   4.247  10.372  0.4891  3.2184 -0.6100
   97OSM    C4F 9672   2.010   4.162  10.391 -0.0221 -0.1403 -0.1155
   97OSM    H4F 9673   1.987   4.053  10.395 -1.6212  0.2501  3.1153
   97OSM    H4G 9674   2.101   4.177  10.452  0.4288 -3.0353  0.0042
   97OSM    C5F 9675   2.051   4.190  10.240  0.2087 -0.4584  0.1848
   97OSM    H5F 9676   1.984   4.147  10.163  0.8491 -2.8843  0.9310
   97OSM    H5G 9677   2.145   4.134  10.217  0.0098 -1.0032  0.6641
   97OSM    C6F 9678   2.062   4.337  10.204 -0.8585 -0.9857 -0.7169
   97OSM    H6F 9679   2.145   4.370  10.271 -1.8002 -0.0365 -0.0115
   97OSM    H6G 9680   1.968   4.391  10.228  0.0672 -0.6483  2.3891
   97OSM    C7F 9681   2.116   4.376  10.061  0.3937  0.3759  0.0894
   97OSM    H7F 9682   2.047   4.326   9.990 -0.9742  1.5279  0.5984
   97OSM    H7G 9683   2.213   4.321  10.060  0.1792  0.0069 -0.7937
   97OSM    C8F 9684   2.139   4.526  10.034 -0.4946  0.4390 -0.3860
   97OSM    H8F 9685   2.068   4.590  10.091  0.7796  1.4844  0.0446
   97OSM    H8G 9686   2.103   4.552   9.932 -0.9608  0.0318 -0.3237
   97OSM    C9F 9687   2.285   4.578  10.052 -0.1242  0.5367 -0.0814
   97OSM    H9F 9688   2.321   4.585  10.156 -3.6383  0.0247  1.2497
   97OSM   C10F 9689   2.365   4.629   9.959  0.4610  0.1161 -0.7722
   97OSM   H10F 9690   2.466   4.656   9.993 -1.5265  2.2438  3.9661
   97OSM   C11F 9691   2.338   4.632   9.809  0.6409 -0.5068 -0.2315
   97OSM   H11F 9692   2.410   4.697   9.755  1.3055 -0.5500  0.5964
   97OSM   H11G 9693   2.236   4.667   9.784  1.0644  2.6040  2.0853
   97OSM   C12F 9694   2.357   4.495   9.738  0.5296  0.5006 -0.1805
   97OSM   H12F 9695   2.297   4.430   9.805  2.0278 -1.9982 -1.1857
   97OSM   H12G 9696   2.461   4.457   9.749 -0.2215 -1.3837  0.6718
   97OSM   C13F 9697   2.310   4.514   9.593 -0.2143 -0.2979  0.4303
   97OSM   H13F 9698   2.364   4.600   9.549  0.3816 -0.9479 -0.1274
   97OSM   H13G 9699   2.204   4.542   9.610 -0.0613 -0.3859  1.5977
   97OSM   C14F 9700   2.319   4.389   9.507 -0.0562 -0.5258 -0.0263
   97OSM   H14F 9701   2.248   4.316   9.553 -2.2448  1.0163 -0.8819
   97OSM   H14G 9702   2.421   4.345   9.515  0.5209  0.1530 -2.8431
   97OSM   C15F 9703   2.288   4.400   9.358  0.1546 -0.5205  0.6351
   97OSM   H15F 9704   2.346   4.486   9.319  0.6062 -1.2536 -0.3125
   97OSM   H15G 9705   2.179   4.420   9.353  0.1685 -0.7154 -0.5628
   97OSM   C16F 9706   2.319   4.272   9.282  0.6065  0.1219 -0.2689
   97OSM   H16F 9707   2.424   4.236   9.287 -0.2278 -2.1123  2.4179
   97OSM   H16G 9708   2.301   4.279   9.172  1.1997 -3.0733 -0.6127
   97OSM   C17F 9709   2.231   4.155   9.347  0.8776 -0.1995 -0.7173
   97OSM   H17F 9710   2.131   4.202   9.354  1.6261  1.2817  0.1379
   97OSM   H17G 9711   2.270   4.126   9.447  1.3948 -1.3939 -1.2509
   97OSM   C18F 9712   2.221   4.040   9.249  0.3854  0.0156  0.0702
   97OSM   H18F 9713   2.188   3.946   9.299 -0.2518 -0.5726 -1.3899
   97OSM   H18G 9714   2.320   4.011   9.208 -0.0953 -3.0285  0.9572
   97OSM   H18H 9715   2.150   4.054   9.164 -2.7193  2.9039  3.0119
   98OSM      N 9716   1.743   3.397  11.384 -0.0031 -0.0991  0.2018
   98OSM    C15 9717   1.707   3.280  11.462 -0.6886 -0.2777  0.4959
   98OSM   H15A 9718   1.678   3.196  11.401  0.6353  0.7646 -1.6440
   98OSM   H15B 9719   1.629   3.299  11.533  0.0815  0.9729  1.0306
   98OSM   H15C 9720   1.791   3.239  11.516  0.5448  0.9951 -0.4087
   98OSM    C14 9721   1.782   3.510  11.475 -0.5714  0.2918  0.3857
   98OSM   H14A 9722   1.883   3.500  11.511  0.7342  0.6183 -2.9794
   98OSM   H14B 9723   1.722   3.514  11.564 -0.4014 -1.0355  0.5732
   98OSM   H14C 9724   1.773   3.607  11.429  0.1741 -0.1050 -0.6196
   98OSM    C13 9725   1.864   3.369  11.293  0.8709  0.0593 -0.1124
   98OSM   H13A 9726   1.878   3.449  11.221 -0.2665 -0.8082 -1.3137
   98OSM   H13B 9727   1.852   3.276  11.240 -0.1952  1.4878 -2.4467
   98OSM   H13C 9728   1.957   3.354  11.347  0.1971 -1.9609  0.5205
   98OSM    C12 9729   1.630   3.448  11.295  0.2072 -0.5001 -0.2374
   98OSM   H12A 9730   1.657   3.548  11.263  0.8916 -0.4694  0.4179
   98OSM   H12B 9731   1.543   3.471  11.355  1.1992  1.9972  0.3223
   98OSM    C11 9732   1.576   3.367  11.172  0.4047 -0.8044 -0.0466
   98OSM   H11A 9733   1.659   3.350  11.100 -1.4444 -1.9118 -1.9844
   98OSM   H11B 9734   1.496   3.432  11.132  0.1066 -1.2231 -0.1328
   98OSM      P 9735   1.568   3.113  11.156  0.5999 -0.1530 -0.1301
   98OSM    O13 9736   1.702   3.096  11.217 -0.0004  0.1531  0.4849
   98OSM    O14 9737   1.477   3.000  11.181 -0.2136  0.6255 -0.2318
   98OSM    O11 9738   1.602   3.132  10.999 -0.1047  0.3847  0.0633
   98OSM    O12 9739   1.501   3.250  11.213  0.0333  0.0443  0.2210
   98OSM    C1S 9740   1.497   3.193  10.914  0.0116  0.1445 -0.5520
   98OSM    H1S 9741   1.515   3.303  10.908 -1.7468  0.3290 -2.7536
   98OSM    H1T 9742   1.396   3.191  10.961  0.2248 -1.3700 -0.1302
   98OSM     NF 9743   1.386   3.180  10.690 -0.1358 -0.0299 -0.2022
   98OSM    HNF 9744   1.322   3.104  10.687  0.1188 -0.3282  1.6711
   98OSM    C2S 9745   1.499   3.135  10.766 -0.0353 -0.1545  0.0635
   98OSM    H2S 9746   1.594   3.176  10.726 -0.4100  0.0732 -0.6019
   98OSM    C3S 9747   1.517   2.981  10.763  0.5730  0.3011 -0.4623
   98OSM    H3S 9748   1.423   2.941  10.808  0.3107 -0.7973 -1.9710
   98OSM     O3 9749   1.630   2.931  10.838  0.1066 -0.0922  0.0317
   98OSM    HO3 9750   1.638   3.010  10.891 -1.5480 -0.2635  0.5813
   98OSM    C4S 9751   1.533   2.921  10.625  0.0014 -0.0081  0.2253
   98OSM    H4S 9752   1.634   2.920  10.582 -0.5223 -1.6907 -1.0198
   98OSM    C5S 9753   1.438   2.870  10.537 -0.5813 -0.9016  0.0234
   98OSM    H5S 9754   1.333   2.881  10.567  0.0435  1.0274  1.5730
   98OSM    C6S 9755   1.477   2.816  10.405  0.3454  0.8318 -0.3805
   98OSM    H6S 9756   1.426   2.718  10.396 -0.4996  1.3002 -0.8514
   98OSM    H6T 9757   1.587   2.802  10.402  0.0606 -1.3345 -1.7348
   98OSM    C7S 9758   1.433   2.911  10.297 -0.0649 -0.1551 -0.3443
   98OSM    H7S 9759   1.475   3.012  10.319  0.4523 -0.8348  1.8749
   98OSM    H7T 9760   1.322   2.917  10.292 -0.1624 -1.9728 -0.7635
   98OSM    C8S 9761   1.476   2.879  10.148  0.4954  0.4984  0.6658
   98OSM    H8S 9762   1.569   2.818  10.145 -0.6416 -1.2216 -1.2649
   98OSM    H8T 9763   1.491   2.975  10.094  0.4414 -1.0567 -2.2011
   98OSM    C9S 9764   1.358   2.791  10.086  0.5805  0.3576  0.0020
   98OSM    H9S 9765   1.263   2.847  10.070  1.0027  1.2575  0.5558
   98OSM    H9T 9766   1.334   2.716  10.165  0.2732  1.1552  0.6794
   98OSM   C10S 9767   1.403   2.710   9.962  0.7580 -0.1302  0.4158
   98OSM   H10S 9768   1.332   2.628   9.937  2.0720 -0.8168 -1.1673
   98OSM   H10T 9769   1.509   2.680   9.975  0.8005 -0.7310 -1.1228
   98OSM   C11S 9770   1.402   2.809   9.844 -0.0506 -0.3563  0.4546
   98OSM   H11S 9771   1.466   2.893   9.877  0.3127 -0.6378  0.4775
   98OSM   H11T 9772   1.304   2.858   9.829  0.7773  1.7044  1.6212
   98OSM   C12S 9773   1.454   2.748   9.717 -0.5858  0.1947  1.0414
   98OSM   H12S 9774   1.551   2.696   9.735  0.2109  2.0259  2.2368
   98OSM   H12T 9775   1.467   2.822   9.635  1.2510  0.5018  1.5901
   98OSM   C13S 9776   1.361   2.646   9.650  0.0884  0.1286  0.5189
   98OSM   H13S 9777   1.258   2.682   9.629 -0.1875 -1.9715 -1.9082
   98OSM   H13T 9778   1.342   2.569   9.728  1.4037  0.2964  1.0076
   98OSM   C14S 9779   1.432   2.573   9.535 -0.4266  0.0048 -0.2436
   98OSM   H14S 9780   1.393   2.469   9.532  0.8372 -0.5837  2.6809
   98OSM   H14T 9781   1.539   2.559   9.558 -0.2172  2.3382  0.3705
   98OSM   C15S 9782   1.403   2.640   9.401  0.2224  0.5840  0.2248
   98OSM   H15S 9783   1.454   2.739   9.394  0.8348  0.2546  0.0951
   98OSM   H15T 9784   1.293   2.661   9.396  0.1707 -0.0813 -1.7781
   98OSM   C16S 9785   1.440   2.550   9.287 -0.2576 -0.7200 -0.2459
   98OSM   H16S 9786   1.387   2.576   9.193  0.4221 -0.5738 -0.5940
   98OSM   H16T 9787   1.391   2.453   9.309  1.8534 -1.5650  0.8026
   98OSM   C17S 9788   1.585   2.549   9.262 -1.3094 -0.5734 -0.5949
   98OSM   H17S 9789   1.644   2.515   9.350  3.1955 -1.9407 -3.9304
   98OSM   H17T 9790   1.617   2.656   9.255 -0.3906 -0.9124 -1.8362
   98OSM   C18S 9791   1.626   2.473   9.133  0.1607 -0.0102 -0.2406
   98OSM   H18S 9792   1.736   2.460   9.126  0.1036  0.2427 -1.6356
   98OSM   H18T 9793   1.591   2.510   9.035  1.2965 -1.8407 -1.3744
   98OSM   H18U 9794   1.581   2.372   9.145  0.2555  0.2105  2.3456
   98OSM    C1F 9795   1.367   3.309  10.670 -1.0390  0.7863 -0.2120
   98OSM     OF 9796   1.462   3.380  10.703  0.0774  0.2629 -0.0149
   98OSM    C2F 9797   1.234   3.351  10.619 -0.2066 -0.0592  0.0924
   98OSM    H2F 9798   1.199   3.441  10.674  0.4859  1.0415 -1.2215
   98OSM    H2G 9799   1.156   3.274  10.637 -0.2361 -0.0033  0.2021
   98OSM    C3F 9800   1.245   3.370  10.469  0.0813  0.4052 -0.3542
   98OSM    H3F 9801   1.344   3.400  10.430  0.5493  0.5492  0.9303
   98OSM    H3G 9802   1.174   3.451  10.441  0.3613 -0.0433 -2.4179
   98OSM    C4F 9803   1.204   3.244  10.393 -0.2862 -0.2957  0.0369
   98OSM    H4F 9804   1.108   3.199  10.427  0.1058  0.6963  2.5740
   98OSM    H4G 9805   1.276   3.162  10.410 -1.6702 -0.9746  2.9277
   98OSM    C5F 9806   1.185   3.269  10.240  0.9991 -0.0585  0.2233
   98OSM    H5F 9807   1.261   3.341  10.204 -1.3629  2.5539  0.2540
   98OSM    H5G 9808   1.085   3.312  10.220  0.7386 -0.6504  0.2172
   98OSM    C6F 9809   1.199   3.145  10.153  0.2015  0.1946  0.9967
   98OSM    H6F 9810   1.128   3.070  10.195 -1.1444  1.6234  1.3202
   98OSM    H6G 9811   1.300   3.100  10.156 -0.0121 -0.5200 -1.4292
   98OSM    C7F 9812   1.167   3.169   9.998 -0.2127  0.4373 -0.1996
   98OSM    H7F 9813   1.064   3.208   9.989 -0.5630 -0.6791 -1.1811
   98OSM    H7G 9814   1.171   3.066   9.958  0.3945  0.8496 -1.2116
   98OSM    C8F 9815   1.277   3.247   9.922  0.1196 -0.8879 -0.3555
   98OSM    H8F 9816   1.371   3.203   9.961 -0.3397 -0.4547  1.2777
   98OSM    H8G 9817   1.282   3.352   9.958  0.0789 -1.3077  0.8850
   98OSM    C9F 9818   1.267   3.233   9.767  0.8509  0.5452 -0.3961
   98OSM    H9F 9819   1.239   3.134   9.728  1.0752  0.9785 -1.6639
   98OSM   C10F 9820   1.274   3.323   9.670 -0.3350 -0.3300 -0.5367
   98OSM   H10F 9821   1.247   3.293   9.568 -0.9643  0.8882 -0.7282
   98OSM   C11F 9822   1.301   3.467   9.692 -0.0846 -0.0976  0.4792
   98OSM   H11F 9823   1.404   3.493   9.724  0.4697 -0.1483 -1.1846
   98OSM   H11G 9824   1.241   3.513   9.773  0.3375  0.0107  0.7313
   98OSM   C12F 9825   1.266   3.543   9.556  0.6045 -0.3458  0.5981
   98OSM   H12F 9826   1.268   3.653   9.574  0.5156 -0.6465  2.5439
   98OSM   H12G 9827   1.160   3.512   9.542  0.4023  0.9333 -0.8346
   98OSM   C13F 9828   1.359   3.515   9.436 -0.2223 -0.0915 -0.0906
   98OSM   H13F 9829   1.342   3.415   9.392  0.3576  0.1926 -0.9836
   98OSM   H13G 9830   1.465   3.519   9.471  0.2664 -0.5904 -1.4390
   98OSM   C14F 9831   1.340   3.620   9.319 -0.0573  0.2314  0.5114
   98OSM   H14F 9832   1.354   3.727   9.345 -0.0951  0.4681 -0.4178
   98OSM   H14G 9833   1.233   3.622   9.289  0.7994  1.1231 -2.7106
   98OSM   C15F 9834   1.437   3.590   9.206  0.0386  0.3962  0.0754
   98OSM   H15F 9835   1.455   3.482   9.192  1.9452  0.7972 -0.7478
   98OSM   H15G 9836   1.533   3.643   9.222  1.0949 -1.5094  0.1466
   98OSM   C16F 9837   1.375   3.624   9.071 -0.3318  0.0522 -0.6743
   98OSM   H16F 9838   1.285   3.562   9.054  0.0285 -0.3145 -1.2467
   98OSM   H16G 9839   1.449   3.606   8.990 -1.1478 -1.1947 -1.1476
   98OSM   C17F 9840   1.326   3.770   9.048 -0.1224 -0.2157  0.0904
   98OSM   H17F 9841   1.416   3.836   9.050 -0.0834 -0.2868  0.8576
   98OSM   H17G 9842   1.266   3.795   9.138 -2.0600  0.7499 -1.4462
   98OSM   C18F 9843   1.248   3.809   8.921 -0.0024  0.6821 -1.2411
   98OSM   H18F 9844   1.241   3.918   8.900 -2.0176  0.5829 -1.1722
   98OSM   H18G 9845   1.144   3.769   8.921  0.4930 -0.6569 -0.1337
   98OSM   H18H 9846   1.311   3.765   8.841  0.4209 -2.4901  0.7215
   99OSM      N 9847   3.792   4.162  11.049  0.7699 -0.0255  0.2487
   99OSM    C15 9848   3.932   4.210  11.042  0.4611  0.0953  0.4382
   99OSM   H15A 9849   3.978   4.220  11.140 -2.6426  1.0863  1.8670
   99OSM   H15B 9850   3.946   4.308  10.998  0.8795 -0.1286  0.0664
   99OSM   H15C 9851   3.990   4.139  10.985 -3.8082 -2.0188 -1.5346
   99OSM    C14 9852   3.785   4.035  11.118  0.5056  0.2656  0.2590
   99OSM   H14A 9853   3.817   4.033  11.221  2.3140  1.5564 -0.2439
   99OSM   H14B 9854   3.840   3.962  11.059 -0.7267  0.0977 -0.7156
   99OSM   H14C 9855   3.683   4.001  11.128 -0.0999  1.8324 -0.4672
   99OSM    C13 9856   3.708   4.265  11.124  0.1662  0.2138  0.0136
   99OSM   H13A 9857   3.720   4.266  11.232 -1.5004  3.8985  0.2482
   99OSM   H13B 9858   3.603   4.253  11.106 -0.1282  2.7588 -0.1521
   99OSM   H13C 9859   3.730   4.362  11.083 -0.6759  0.1857 -0.5094
   99OSM    C12 9860   3.736   4.144  10.909 -0.1571  0.6169  0.9604
   99OSM   H12A 9861   3.636   4.107  10.924 -0.6662  1.1013 -1.0767
   99OSM   H12B 9862   3.791   4.065  10.859 -0.5128 -0.0046  1.5393
   99OSM    C11 9863   3.737   4.269  10.817  0.1088  0.5628  0.4569
   99OSM   H11A 9864   3.691   4.233  10.722 -2.3608  2.5153  0.8558
   99OSM   H11B 9865   3.845   4.286  10.803  0.1771  0.2483  0.6007
   99OSM      P 9866   3.522   4.416  10.837 -0.3727 -0.1998 -0.0174
   99OSM    O13 9867   3.440   4.316  10.904 -0.2136  0.5142  0.2301
   99OSM    O14 9868   3.493   4.556  10.868 -0.0396  0.2738 -0.0674
   99OSM    O11 9869   3.504   4.396  10.683 -0.2510  0.2739  0.2673
   99OSM    O12 9870   3.670   4.393  10.857 -0.9302 -0.1859  0.8402
   99OSM    C1S 9871   3.555   4.494  10.591 -0.1648 -0.0200  0.5342
   99OSM    H1S 9872   3.629   4.564  10.635 -0.1978  0.3124  0.0640
   99OSM    H1T 9873   3.473   4.564  10.565 -0.8687 -0.5570  1.2826
   99OSM     NF 9874   3.662   4.545  10.382 -0.4228  0.2087  0.0020
   99OSM    HNF 9875   3.599   4.588  10.319 -1.3855  0.1248  0.8999
   99OSM    C2S 9876   3.603   4.431  10.453 -0.1945 -0.0369  0.1677
   99OSM    H2S 9877   3.674   4.347  10.472 -0.3147  0.2715  2.0235
   99OSM    C3S 9878   3.486   4.365  10.389  0.2741 -0.7118  1.0737
   99OSM    H3S 9879   3.407   4.442  10.377  2.2171  1.0941 -0.4435
   99OSM     O3 9880   3.432   4.261  10.467  0.0038 -0.9647  0.6600
   99OSM    HO3 9881   3.459   4.297  10.552  1.1438  0.9717 -0.5067
   99OSM    C4S 9882   3.530   4.315  10.254 -0.0552 -0.6837 -0.0215
   99OSM    H4S 9883   3.617   4.248  10.261  0.8241  0.5862  1.7335
   99OSM    C5S 9884   3.495   4.365  10.141 -0.4439 -0.2748 -0.1926
   99OSM    H5S 9885   3.426   4.451  10.147 -0.2496  0.0385 -2.1657
   99OSM    C6S 9886   3.545   4.327  10.012 -0.8872 -0.1291  1.1020
   99OSM    H6S 9887   3.641   4.376   9.987 -0.9917 -0.6771 -0.3959
   99OSM    H6T 9888   3.472   4.348   9.931 -0.1802 -0.3373  0.4155
   99OSM    C7S 9889   3.572   4.176   9.981 -0.4531 -0.6891  0.3656
   99OSM    H7S 9890   3.631   4.125  10.060 -1.5555  0.1510  1.7323
   99OSM    H7T 9891   3.622   4.169   9.882 -0.8800  1.2454 -0.0012
   99OSM    C8S 9892   3.433   4.105   9.977 -0.5653  0.3298  0.1151
   99OSM    H8S 9893   3.370   4.153   9.900  1.3884  1.2417 -0.9566
   99OSM    H8T 9894   3.388   4.123  10.077 -1.7505 -1.3216 -0.0911
   99OSM    C9S 9895   3.448   3.952   9.951 -0.2521 -0.8149 -0.0736
   99OSM    H9S 9896   3.345   3.912   9.968 -0.0114 -0.7923  1.5316
   99OSM    H9T 9897   3.520   3.902  10.019  1.0296 -0.8019 -1.4211
   99OSM   C10S 9898   3.485   3.916   9.810  0.1301 -0.2704 -0.0051
   99OSM   H10S 9899   3.584   3.942   9.767 -0.2956  0.9275 -0.2774
   99OSM   H10T 9900   3.418   3.976   9.746 -0.1239 -4.0946 -3.4959
   99OSM   C11S 9901   3.454   3.769   9.782 -0.5687  0.7725  0.0107
   99OSM   H11S 9902   3.353   3.760   9.826 -1.7514  0.8184 -2.5888
   99OSM   H11T 9903   3.518   3.705   9.847 -1.6706 -0.4350 -0.0830
   99OSM   C12S 9904   3.435   3.725   9.633  0.4013  0.0092 -0.0306
   99OSM   H12S 9905   3.359   3.794   9.590 -1.0138 -0.7842  1.1725
   99OSM   H12T 9906   3.526   3.737   9.571  1.0429  2.4324  1.3385
   99OSM   C13S 9907   3.362   3.593   9.614 -0.7492  0.4768  0.3963
   99OSM   H13S 9908   3.260   3.601   9.658 -1.8091 -1.1462 -1.6312
   99OSM   H13T 9909   3.418   3.512   9.665 -0.4422  0.6168  0.2779
   99OSM   C14S 9910   3.354   3.539   9.472 -0.3552 -0.7187 -0.5707
   99OSM   H14S 9911   3.369   3.429   9.470  3.3179 -0.2786 -0.0788
   99OSM   H14T 9912   3.436   3.582   9.409  0.0140  0.3983  0.6544
   99OSM   C15S 9913   3.230   3.588   9.397  0.0707  0.4489 -0.2363
   99OSM   H15S 9914   3.208   3.696   9.411  0.1118  0.4393 -0.0994
   99OSM   H15T 9915   3.137   3.537   9.430  0.3022  0.1916  0.0138
   99OSM   C16S 9916   3.229   3.547   9.249  0.3329 -0.4610  0.3530
   99OSM   H16S 9917   3.315   3.596   9.198  1.8840 -2.5447  0.9103
   99OSM   H16T 9918   3.136   3.587   9.203  0.5969  3.0294  2.6583
   99OSM   C17S 9919   3.255   3.401   9.213 -0.2199  0.3631  0.1953
   99OSM   H17S 9920   3.188   3.349   9.285  1.0032 -1.5511  0.0011
   99OSM   H17T 9921   3.362   3.382   9.237 -0.5879 -2.0988  0.0867
   99OSM   C18S 9922   3.233   3.374   9.072 -0.6187  0.2955 -0.5078
   99OSM   H18S 9923   3.133   3.408   9.037 -1.3160 -0.3837  0.7965
   99OSM   H18T 9924   3.241   3.264   9.058  0.6526  0.4856 -1.3416
   99OSM   H18U 9925   3.307   3.427   9.008  1.3715 -2.2162 -0.3470
   99OSM    C1F 9926   3.787   4.589  10.399  0.5260  0.1548  0.1257
   99OSM     OF 9927   3.872   4.522  10.457  0.4390 -0.2445 -0.1788
   99OSM    C2F 9928   3.825   4.714  10.326  0.7143  0.5309 -0.3209
   99OSM    H2F 9929   3.881   4.773  10.403  0.7310  1.0123 -0.7015
   99OSM    H2G 9930   3.738   4.779  10.302 -0.4200 -1.9871 -3.3107
   99OSM    C3F 9931   3.908   4.675  10.198 -0.0909 -0.0238  0.2229
   99OSM    H3F 9932   3.968   4.763  10.165  0.0440 -0.0132  0.4928
   99OSM    H3G 9933   3.990   4.608  10.232 -0.8777 -0.9112  0.3950
   99OSM    C4F 9934   3.835   4.616  10.080  0.5465  0.1776 -0.2549
   99OSM    H4F 9935   3.744   4.673  10.049 -0.3327 -1.6138 -1.0158
   99OSM    H4G 9936   3.786   4.523  10.114 -1.4716  1.2535 -0.1296
   99OSM    C5F 9937   3.927   4.578   9.963 -0.0109 -0.4351 -0.4730
   99OSM    H5F 9938   3.891   4.484   9.915  0.4210 -1.9000  1.9704
   99OSM    H5G 9939   4.033   4.561   9.994  0.1691  1.4607  0.0234
   99OSM    C6F 9940   3.927   4.668   9.838  0.4728 -0.3690 -0.6602
   99OSM    H6F 9941   3.962   4.771   9.861  0.1096 -0.2434 -0.6778
   99OSM    H6G 9942   3.818   4.675   9.819  0.1123 -0.5391  1.2316
   99OSM    C7F 9943   4.003   4.609   9.724 -0.2956 -0.3401  0.1183
   99OSM    H7F 9944   3.967   4.510   9.689 -0.6838  0.3779 -1.5743
   99OSM    H7G 9945   4.109   4.608   9.756 -0.3799  0.1009  0.4227
   99OSM    C8F 9946   3.990   4.683   9.581  0.2249  0.5037 -0.6094
   99OSM    H8F 9947   4.012   4.791   9.592 -0.8032  0.7008 -0.3903
   99OSM    H8G 9948   3.883   4.677   9.551  0.5148  1.0452 -1.7474
   99OSM    C9F 9949   4.078   4.627   9.470  0.2020 -0.1873  0.0139
   99OSM    H9F 9950   4.170   4.678   9.437  0.3834 -0.0456  0.7323
   99OSM   C10F 9951   4.039   4.531   9.386  0.7510  0.2522 -0.7769
   99OSM   H10F 9952   4.107   4.503   9.304  2.0219  0.7243  0.0933
   99OSM   C11F 9953   3.912   4.452   9.393 -0.3296  0.4487  0.4108
   99OSM   H11F 9954   3.842   4.491   9.470 -0.3146  0.4619  0.4171
   99OSM   H11G 9955   3.937   4.349   9.428  1.7597  1.1491  1.0398
   99OSM   C12F 9956   3.842   4.434   9.261 -0.6283 -0.2268 -0.4245
   99OSM   H12F 9957   3.917   4.402   9.186 -0.1267 -0.1929  0.0595
   99OSM   H12G 9958   3.803   4.530   9.221 -0.0239 -0.1287 -0.7840
   99OSM   C13F 9959   3.733   4.321   9.262 -0.3340  0.5375 -0.1646
   99OSM   H13F 9960   3.768   4.219   9.286  0.3660  0.4629 -1.4437
   99OSM   H13G 9961   3.704   4.297   9.157 -0.4672  2.1120 -0.5164
   99OSM   C14F 9962   3.613   4.364   9.336  0.8096 -0.1139 -0.0520
   99OSM   H14F 9963   3.576   4.453   9.282 -0.6298 -0.6378  0.0535
   99OSM   H14G 9964   3.637   4.389   9.441  1.8674 -2.5821  0.3449
   99OSM   C15F 9965   3.486   4.270   9.348  0.4472 -0.2479 -0.2558
   99OSM   H15F 9966   3.404   4.312   9.410 -0.8053 -1.0305 -1.3543
   99OSM   H15G 9967   3.517   4.179   9.404 -1.9000 -0.3151  1.0030
   99OSM   C16F 9968   3.432   4.214   9.221  0.0398 -0.6439  0.2476
   99OSM   H16F 9969   3.516   4.178   9.157  1.0406 -1.2969  1.9017
   99OSM   H16G 9970   3.372   4.293   9.172  0.5010 -0.7191 -0.4612
   99OSM   C17F 9971   3.342   4.090   9.246 -0.1739 -0.4842 -0.1680
   99OSM   H17F 9972   3.253   4.140   9.291 -1.5234 -1.0575 -2.1011
   99OSM   H17G 9973   3.374   4.020   9.326  1.1327  0.7385  0.3889
   99OSM   C18F 9974   3.293   4.013   9.128 -0.2689 -0.0361  0.3845
   99OSM   H18F 9975   3.228   4.077   9.064  0.5200 -0.1893 -0.5828
   99OSM   H18G 9976   3.251   3.915   9.160 -2.5759  0.8284  0.1464
   99OSM   H18H 9977   3.381   3.986   9.066 -1.1479 -0.4870 -0.7065
  100OSM      N 9978   5.154   4.659  10.994 -0.5125 -0.3278 -0.4775
  100OSM    C15 9979   5.123   4.516  11.002  0.0298  0.7950 -0.0339
  100OSM   H15A 9980   5.109   4.484  11.104  0.8043 -2.0335 -0.7557
  100OSM   H15B 9981   5.204   4.455  10.965 -1.0982  0.6138 -2.2891
  100OSM   H15C 9982   5.038   4.488  10.941 -0.2714  0.2783  0.6217
  100OSM    C14 9983   5.041   4.739  11.059 -0.0248 -0.2401  0.1698
  100OSM   H14A 9984   4.944   4.701  11.028  0.9557 -2.0597 -0.7520
  100OSM   H14B 9985   5.036   4.845  11.040  0.4808 -0.3052 -0.3055
  100OSM   H14C 9986   5.052   4.726  11.166  1.8756 -0.1389 -0.0080
  100OSM    C13 9987   5.270   4.686  11.087 -0.0727 -0.2233  0.0403
  100OSM   H13A 9988   5.262   4.638  11.183  1.1386 -0.0998  0.2156
  100OSM   H13B 9989   5.268   4.793  11.105 -2.0851 -0.6306  2.3882
  100OSM   H13C 9990   5.355   4.634  11.044 -1.0211 -2.6908  1.0651
  100OSM    C12 9991   5.181   4.709  10.851 -0.5145 -0.2768 -0.5178
  100OSM   H12A 9992   5.172   4.816  10.859  2.9428 -0.0010  0.3685
  100OSM   H12B 9993   5.103   4.670  10.787  0.7234  0.1440 -2.3123
  100OSM    C11 9994   5.321   4.680  10.785 -0.4804  0.1660 -0.2514
  100OSM   H11A 9995   5.392   4.738  10.847 -0.2210  0.0856 -0.4714
  100OSM   H11B 9996   5.337   4.722  10.683  1.6857 -2.1689 -0.9105
  100OSM      P 9997   5.485   4.488  10.829  0.3974  0.3212  0.0179
  100OSM    O13 9998   5.510   4.531  10.968  0.9014  0.7076  0.3143
  100OSM    O14 9999   5.489   4.343  10.790  0.1289  0.3142 -0.1900
  100OSM    O1110000   5.571   4.568  10.721  0.2840 -0.7570  0.3627
  100OSM    O1210001   5.338   4.540  10.789  0.2659  0.1939  0.3582
  100OSM    C1S10002   5.639   4.520  10.612 -1.0406 -0.3223  0.8754
  100OSM    H1S10003   5.605   4.416  10.588 -1.6023  0.1378 -0.3495
  100OSM    H1T10004   5.749   4.516  10.621 -0.7221  4.0964 -0.3045
  100OSM     NF10005   5.664   4.553  10.364  1.0949  0.2138  0.3492
  100OSM    HNF10006   5.744   4.609  10.342  0.8136  0.9770  1.2183
  100OSM    C2S10007   5.607   4.609  10.490 -0.0591  0.0019  0.6139
  100OSM    H2S10008   5.496   4.608  10.486 -0.1072  0.7510  1.5476
  100OSM    C3S10009   5.643   4.755  10.510 -0.1721 -0.1156  0.9863
  100OSM    H3S10010   5.750   4.783  10.503  0.2472 -1.8527  0.0763
  100OSM     O310011   5.623   4.819  10.640 -0.2164 -0.2581 -0.3581
  100OSM    HO310012   5.604   4.747  10.701  0.6927  1.0582  1.5134
  100OSM    C4S10013   5.586   4.835  10.396  0.4648  0.8212  0.4378
  100OSM    H4S10014   5.651   4.844  10.308  1.4150 -1.3397  0.8920
  100OSM    C5S10015   5.461   4.889  10.400  0.5604  0.3595 -0.0055
  100OSM    H5S10016   5.403   4.876  10.493  1.4274  1.2599  0.6705
  100OSM    C6S10017   5.393   4.963  10.287 -0.9471  0.0126 -0.1659
  100OSM    H6S10018   5.410   5.072  10.296  4.0677 -0.7575  1.6760
  100OSM    H6T10019   5.285   4.941  10.278 -0.8326 -1.4124  1.5683
  100OSM    C7S10020   5.457   4.932  10.153 -0.4765 -0.7652  0.8707
  100OSM    H7S10021   5.429   4.830  10.119  1.3521 -0.5684 -1.3383
  100OSM    H7T10022   5.567   4.944  10.146 -0.5990  0.0033  0.2256
  100OSM    C8S10023   5.407   5.014  10.037 -0.1060 -0.0896 -0.3699
  100OSM    H8S10024   5.435   5.121  10.054  0.8435 -0.4304  0.2281
  100OSM    H8T10025   5.296   5.008  10.041 -0.1356  0.8806  0.4492
  100OSM    C9S10026   5.445   4.967   9.898 -0.4964 -0.3269 -0.4111
  100OSM    H9S10027   5.405   4.863   9.904 -1.0440 -0.0979 -0.0904
  100OSM    H9T10028   5.552   4.982   9.872 -0.5194  0.9302  0.2136
  100OSM   C10S10029   5.362   5.026   9.780  0.0991 -0.6748  0.4315
  100OSM   H10S10030   5.277   5.082   9.823 -0.8307  0.3999 -2.7214
  100OSM   H10T10031   5.326   4.934   9.729  2.2156 -1.8624  1.0045
  100OSM   C11S10032   5.442   5.113   9.684 -1.2716 -0.2380 -0.0177
  100OSM   H11S10033   5.527   5.062   9.634  0.5220  1.5265  1.1502
  100OSM   H11T10034   5.473   5.194   9.754 -1.9294 -2.3367  2.8254
  100OSM   C12S10035   5.368   5.174   9.561 -0.4215  0.0267 -0.7867
  100OSM   H12S10036   5.277   5.228   9.596 -0.2541 -0.5814  0.6152
  100OSM   H12T10037   5.333   5.086   9.504  1.2222 -2.4021  1.8126
  100OSM   C13S10038   5.442   5.276   9.470 -0.7363 -0.4462 -0.4038
  100OSM   H13S10039   5.531   5.230   9.422 -1.1840 -0.1395 -1.5406
  100OSM   H13T10040   5.481   5.347   9.547 -0.9964 -0.9419  0.1976
  100OSM   C14S10041   5.341   5.335   9.377 -0.3117 -0.5112 -0.4923
  100OSM   H14S10042   5.266   5.383   9.443  0.5391 -1.3767  1.1240
  100OSM   H14T10043   5.298   5.249   9.321  2.0349 -1.6359 -0.6159
  100OSM   C15S10044   5.385   5.439   9.272 -0.4064  0.0790 -0.1314
  100OSM   H15S10045   5.480   5.405   9.226  0.7559 -0.5138  2.6064
  100OSM   H15T10046   5.403   5.532   9.329  0.0811 -0.0273 -0.1124
  100OSM   C16S10047   5.293   5.452   9.147 -0.4889  0.0357 -0.1817
  100OSM   H16S10048   5.194   5.496   9.172  0.0445  1.5218 -0.5973
  100OSM   H16T10049   5.287   5.350   9.105  3.8387 -0.7471  0.7928
  100OSM   C17S10050   5.360   5.533   9.038  0.5383 -0.1724 -0.6214
  100OSM   H17S10051   5.463   5.494   9.026  1.7472  1.9429  2.2536
  100OSM   H17T10052   5.372   5.638   9.074  1.1031 -1.1475  2.1105
  100OSM   C18S10053   5.294   5.535   8.899 -0.1242 -0.7062 -0.3422
  100OSM   H18S10054   5.358   5.608   8.846 -0.0903  0.6379  1.4817
  100OSM   H18T10055   5.190   5.573   8.905 -0.7441 -1.9285 -2.9155
  100OSM   H18U10056   5.296   5.428   8.867  0.0306 -0.3487 -1.5313
  100OSM    C1F10057   5.630   4.443  10.298 -0.4396  0.2727 -0.2348
  100OSM     OF10058   5.543   4.375  10.349  0.2336  0.1038 -0.3213
  100OSM    C2F10059   5.700   4.409  10.170  0.2679 -0.0856 -0.2117
  100OSM    H2F10060   5.781   4.336  10.192  1.0207  0.6545 -0.5016
  100OSM    H2G10061   5.741   4.498  10.118 -3.0821  0.5905 -1.8073
  100OSM    C3F10062   5.605   4.337  10.066  0.1622  0.2948  0.2737
  100OSM    H3F10063   5.551   4.246  10.099 -1.1684  1.4316  1.3098
  100OSM    H3G10064   5.661   4.318   9.973 -3.3894 -0.1862 -1.8493
  100OSM    C4F10065   5.491   4.430  10.010  0.2437  0.3801  0.1367
  100OSM    H4F10066   5.429   4.470  10.093 -0.3997 -1.0170  0.3546
  100OSM    H4G10067   5.415   4.372   9.953 -0.6988  1.5908  0.1381
  100OSM    C5F10068   5.540   4.549   9.934  0.1597  0.7664  0.0372
  100OSM    H5F10069   5.644   4.573   9.964 -0.0079  1.2617  0.2225
  100OSM    H5G10070   5.464   4.623   9.969  0.0538  0.6565  0.0411
  100OSM    C6F10071   5.523   4.530   9.776  0.5926 -0.1411  0.3598
  100OSM    H6F10072   5.424   4.486   9.753  1.6882 -1.3640 -2.2143
  100OSM    H6G10073   5.603   4.464   9.738  0.4855 -0.2542  0.3332
  100OSM    C7F10074   5.540   4.654   9.690  0.7666  0.0089 -0.0811
  100OSM    H7F10075   5.640   4.698   9.714  0.1998  2.2289 -1.6720
  100OSM    H7G10076   5.461   4.727   9.718 -0.2251 -0.6522 -1.1278
  100OSM    C8F10077   5.540   4.632   9.535  0.1688  0.1737  0.1701
  100OSM    H8F10078   5.447   4.577   9.507  0.2668 -0.8316  1.7046
  100OSM    H8G10079   5.627   4.566   9.514 -0.8535 -0.9472 -0.6633
  100OSM    C9F10080   5.552   4.761   9.461  0.0173 -0.2966  0.3864
  100OSM    H9F10081   5.626   4.835   9.495 -1.0134  0.8462  0.1526
  100OSM   C10F10082   5.470   4.804   9.364  0.3700 -0.0407  0.2935
  100OSM   H10F10083   5.499   4.898   9.315 -2.1516  0.6869  0.1368
  100OSM   C11F10084   5.355   4.732   9.305  0.6057 -0.2288  0.2122
  100OSM   H11F10085   5.284   4.811   9.273  1.6924  0.4786 -0.4987
  100OSM   H11G10086   5.304   4.665   9.378 -0.2196  0.9312  0.6967
  100OSM   C12F10087   5.410   4.653   9.180  0.6697  0.3083 -0.3956
  100OSM   H12F10088   5.334   4.583   9.140  1.8495 -0.8310 -0.6474
  100OSM   H12G10089   5.484   4.580   9.219  1.7280  0.4015 -2.1839
  100OSM   C13F10090   5.462   4.748   9.076  0.2135 -0.1521  0.0720
  100OSM   H13F10091   5.538   4.820   9.114  0.7158 -1.4657  1.5824
  100OSM   H13G10092   5.380   4.821   9.062  0.9753  0.7058  0.0185
  100OSM   C14F10093   5.514   4.681   8.949 -0.3573  0.8938  0.4918
  100OSM   H14F10094   5.437   4.624   8.893  0.6634  1.8168 -1.9108
  100OSM   H14G10095   5.601   4.617   8.975  0.2504  1.1350 -0.9298
  100OSM   C15F10096   5.580   4.771   8.846 -0.5683 -0.5726 -0.8475
  100OSM   H15F10097   5.673   4.818   8.885 -1.1694  1.2435 -1.5461
  100OSM   H15G10098   5.509   4.854   8.823 -0.1931 -0.8270 -3.0207
  100OSM   C16F10099   5.617   4.698   8.716 -0.0780  0.1938  0.1975
  100OSM   H16F10100   5.515   4.674   8.678 -0.4755  2.7640 -0.4662
  100OSM   H16G10101   5.676   4.606   8.733 -0.2362  0.3371  1.6681
  100OSM   C17F10102   5.696   4.787   8.621  0.2262  0.0853 -0.4657
  100OSM   H17F10103   5.642   4.882   8.601  1.9138  0.7101 -2.1992
  100OSM   H17G10104   5.703   4.744   8.519 -0.8382 -2.5097  0.5359
  100OSM   C18F10105   5.840   4.830   8.669 -0.3641 -0.5328 -0.1726
  100OSM   H18F10106   5.845   4.893   8.761  0.1279 -0.3651 -0.3154
  100OSM   H18G10107   5.882   4.898   8.592 -0.8919 -1.3106 -1.1534
  100OSM   H18H10108   5.909   4.746   8.689 -2.2694 -1.9962  0.4536
  101OSM      N10109   1.227   5.028  11.076 -0.0753 -0.3732 -0.5797
  101OSM    C1510110   1.327   4.989  10.976 -0.0776 -0.2073  0.2836
  101OSM   H15A10111   1.311   4.895  10.926 -2.9635 -0.2213  1.1325
  101OSM   H15B10112   1.422   4.968  11.023 -0.0820  0.0989  0.4322
  101OSM   H15C10113   1.329   5.067  10.901 -1.2179  0.9172  1.3916
  101OSM    C1410114   1.300   5.125  11.177  0.1129 -0.2609  0.2473
  101OSM   H14A10115   1.222   5.180  11.227  2.2982  1.1950  2.0983
  101OSM   H14B10116   1.369   5.199  11.141 -1.1312  0.1468 -1.3489
  101OSM   H14C10117   1.361   5.076  11.251  1.7752 -1.0823 -1.6371
  101OSM    C1310118   1.117   5.100  11.015  0.2280 -0.1722  0.0107
  101OSM   H13A10119   1.154   5.186  10.961 -0.4863  1.1534  1.5975
  101OSM   H13B10120   1.045   5.123  11.092  1.4712 -0.0875  1.1513
  101OSM   H13C10121   1.068   5.043  10.938 -0.0077 -0.1122  0.1172
  101OSM    C1210122   1.186   4.907  11.160 -0.0591  0.3991 -0.1636
  101OSM   H12A10123   1.125   4.951  11.237  0.2210  1.8038 -0.7234
  101OSM   H12B10124   1.271   4.856  11.202  0.5225 -2.2015 -4.1772
  101OSM    C1110125   1.106   4.791  11.095  0.4120  0.3552  0.2122
  101OSM   H11A10126   1.019   4.839  11.045  0.7452  0.5066 -0.2239
  101OSM   H11B10127   1.073   4.726  11.178 -1.0707  0.3155 -0.3801
  101OSM      P10128   1.254   4.583  11.042 -0.6675 -0.2036 -0.4179
  101OSM    O1310129   1.390   4.610  11.088  0.0654  0.6171  0.1414
  101OSM    O1410130   1.172   4.500  11.128 -0.0854 -0.2438 -0.3641
  101OSM    O1110131   1.278   4.509  10.906  0.3700  0.8601 -0.8065
  101OSM    O1210132   1.175   4.719  10.997 -0.6699 -0.0973  0.3946
  101OSM    C1S10133   1.332   4.567  10.787  0.5155 -0.8074 -0.2737
  101OSM    H1S10134   1.381   4.665  10.801 -0.7474 -0.0801 -0.8673
  101OSM    H1T10135   1.245   4.579  10.719  0.5553 -3.0823 -0.7795
  101OSM     NF10136   1.477   4.540  10.577  0.1935  0.1399 -0.1180
  101OSM    HNF10137   1.432   4.543  10.489 -0.2951  0.2667  0.1356
  101OSM    C2S10138   1.410   4.466  10.695 -0.7352  0.3186  0.5536
  101OSM    H2S10139   1.495   4.429  10.756 -0.1403  2.6452  1.1963
  101OSM    C3S10140   1.313   4.347  10.653 -0.1945 -0.1941  0.0748
  101OSM    H3S10141   1.230   4.387  10.591  0.6608 -0.7422 -1.4615
  101OSM     O310142   1.233   4.291  10.757 -0.3026 -0.1673  0.4791
  101OSM    HO310143   1.219   4.353  10.829 -0.9432 -1.7609  1.7536
  101OSM    C4S10144   1.393   4.246  10.580  0.7130  0.0100 -0.0378
  101OSM    H4S10145   1.477   4.205  10.636  0.9787  1.0864  0.3569
  101OSM    C5S10146   1.383   4.215  10.448 -0.4711  0.5925 -0.7616
  101OSM    H5S10147   1.326   4.281  10.380 -0.4914 -0.9755 -2.3237
  101OSM    C6S10148   1.461   4.115  10.374 -0.0688  0.0745  0.0404
  101OSM    H6S10149   1.386   4.041  10.338  0.3859  0.5595 -1.9981
  101OSM    H6T10150   1.529   4.069  10.449 -2.6759 -0.2170  2.2743
  101OSM    C7S10151   1.531   4.176  10.247  0.7205  0.7173 -0.5082
  101OSM    H7S10152   1.580   4.270  10.279  1.4181 -1.0565  4.0037
  101OSM    H7T10153   1.445   4.187  10.177 -0.0246  0.1556  0.3078
  101OSM    C8S10154   1.633   4.088  10.160  0.3535 -0.5571 -0.3945
  101OSM    H8S10155   1.593   3.986  10.146  0.3144 -0.3409 -1.9333
  101OSM    H8T10156   1.727   4.084  10.219 -0.8194  1.7136  1.7422
  101OSM    C9S10157   1.640   4.142  10.011 -0.2478  0.2263  0.0866
  101OSM    H9S10158   1.537   4.141   9.969 -0.6017  0.6844  0.9307
  101OSM    H9T10159   1.711   4.074   9.958 -2.0352 -0.5222 -1.4146
  101OSM   C10S10160   1.688   4.289   9.991 -0.0173  0.4686  0.0380
  101OSM   H10S10161   1.796   4.286  10.020 -0.0843 -1.0998  0.1551
  101OSM   H10T10162   1.634   4.349  10.068  0.0348  0.7625 -0.1523
  101OSM   C11S10163   1.675   4.346   9.849  0.0519 -0.0043  0.2197
  101OSM   H11S10164   1.726   4.444   9.845 -0.5064  0.3181  1.0050
  101OSM   H11T10165   1.565   4.348   9.835  0.3073 -0.4472 -2.1055
  101OSM   C12S10166   1.733   4.253   9.749  0.0763 -0.9445  0.5674
  101OSM   H12S10167   1.664   4.167   9.735 -3.0074  1.3251  1.2989
  101OSM   H12T10168   1.828   4.218   9.796 -0.4191 -0.9491  1.5681
  101OSM   C13S10169   1.771   4.316   9.606  0.0627  0.5891  0.0527
  101OSM   H13S10170   1.852   4.391   9.619 -0.1167  0.1719  4.3442
  101OSM   H13T10171   1.684   4.371   9.565  0.1713  2.9151  2.7363
  101OSM   C14S10172   1.815   4.202   9.510  0.3598  0.1161  0.0020
  101OSM   H14S10173   1.750   4.113   9.529 -0.2364  0.0060 -2.3664
  101OSM   H14T10174   1.924   4.180   9.514  0.0166 -2.1492 -1.9814
  101OSM   C15S10175   1.793   4.240   9.368  0.0097  0.1335  0.1071
  101OSM   H15S10176   1.686   4.258   9.344  0.5627  1.5820 -1.3362
  101OSM   H15T10177   1.823   4.157   9.301 -1.9482  0.6878 -1.4974
  101OSM   C16S10178   1.867   4.362   9.318 -0.2775  0.7888 -0.1209
  101OSM   H16S10179   1.971   4.333   9.341  0.0318 -0.0949 -2.4793
  101OSM   H16T10180   1.845   4.448   9.385  0.5798  0.3342  0.7498
  101OSM   C17S10181   1.859   4.393   9.169  1.6417 -0.3829 -0.2880
  101OSM   H17S10182   1.854   4.302   9.107  1.0949  0.2383 -1.1603
  101OSM   H17T10183   1.958   4.437   9.144  1.4680  0.2568  0.1175
  101OSM   C18S10184   1.741   4.479   9.120 -0.0024 -0.2505  0.1405
  101OSM   H18S10185   1.767   4.583   9.149  1.0869 -0.1422 -1.1662
  101OSM   H18T10186   1.639   4.465   9.163 -0.0312 -2.3192 -0.5561
  101OSM   H18U10187   1.724   4.482   9.010 -0.2179  3.4302  0.1863
  101OSM    C1F10188   1.591   4.608  10.593  0.0067 -1.4462  0.4746
  101OSM     OF10189   1.643   4.618  10.703 -0.1952  0.2765  0.4982
  101OSM    C2F10190   1.637   4.696  10.471 -0.0713 -0.0160  0.7754
  101OSM    H2F10191   1.694   4.785  10.506 -0.9751  0.3364  1.3687
  101OSM    H2G10192   1.544   4.730  10.422 -0.0009 -2.2944 -1.0139
  101OSM    C3F10193   1.717   4.617  10.372 -0.4029  0.5144  0.6932
  101OSM    H3F10194   1.650   4.545  10.320  0.8930  0.0484 -0.3511
  101OSM    H3G10195   1.801   4.570  10.427 -0.5663 -0.7298 -0.1052
  101OSM    C4F10196   1.777   4.704  10.259 -0.3859 -0.2890  0.6745
  101OSM    H4F10197   1.880   4.670  10.236 -0.7558 -2.0305  1.5616
  101OSM    H4G10198   1.776   4.814  10.276  2.0987  0.2414 -2.2270
  101OSM    C5F10199   1.699   4.681  10.124  0.8885 -0.0481 -0.4057
  101OSM    H5F10200   1.591   4.707  10.124  0.3979 -2.0278 -0.4193
  101OSM    H5G10201   1.698   4.574  10.094  0.3288 -1.5984  4.6634
  101OSM    C6F10202   1.751   4.772  10.017 -0.1320  0.2776  0.6001
  101OSM    H6F10203   1.744   4.876  10.055  0.4246  0.0623  1.2989
  101OSM    H6G10204   1.862   4.763  10.011 -0.0040  2.6365 -0.9963
  101OSM    C7F10205   1.703   4.747   9.869  0.2944  0.0932  0.9305
  101OSM    H7F10206   1.594   4.766   9.867  0.3476  0.3240  0.1869
  101OSM    H7G10207   1.731   4.643   9.844  1.5020  1.1329 -2.2035
  101OSM    C8F10208   1.778   4.844   9.769 -0.0102 -0.2896 -0.3207
  101OSM    H8F10209   1.884   4.812   9.764  0.2066  0.1879  1.0697
  101OSM    H8G10210   1.772   4.948   9.808 -3.6051 -0.8244  0.7450
  101OSM    C9F10211   1.710   4.832   9.632 -0.4580 -0.1831  0.0775
  101OSM    H9F10212   1.611   4.878   9.618 -2.1794 -3.8855 -0.6169
  101OSM   C10F10213   1.772   4.783   9.518 -0.1240  0.6505 -0.6764
  101OSM   H10F10214   1.712   4.801   9.428 -3.3050 -3.0815  0.5601
  101OSM   C11F10215   1.916   4.741   9.507 -0.5968 -0.2184  0.4159
  101OSM   H11F10216   1.915   4.631   9.493  1.1504 -0.2397  0.3455
  101OSM   H11G10217   1.988   4.766   9.587  1.2274  0.1685 -1.3082
  101OSM   C12F10218   1.970   4.801   9.380  0.4127 -0.3525  0.4340
  101OSM   H12F10219   1.964   4.911   9.390 -1.1195 -0.2758 -0.9423
  101OSM   H12G10220   1.904   4.772   9.295  0.2706 -0.8796  0.7203
  101OSM   C13F10221   2.110   4.758   9.350  0.7572 -0.0360 -0.9107
  101OSM   H13F10222   2.104   4.648   9.339 -1.4603 -0.0074 -0.2701
  101OSM   H13G10223   2.168   4.776   9.444  2.0401  1.8211 -2.0124
  101OSM   C14F10224   2.164   4.817   9.225 -0.6807 -0.5202 -0.5807
  101OSM   H14F10225   2.257   4.759   9.205 -1.1608 -2.0791  1.6160
  101OSM   H14G10226   2.198   4.921   9.243  1.5232 -0.9406 -2.1008
  101OSM   C15F10227   2.078   4.824   9.095  0.1802 -0.3061  0.0898
  101OSM   H15F10228   2.143   4.888   9.033 -0.9870 -0.5043 -1.3803
  101OSM   H15G10229   1.987   4.886   9.112  0.8018  0.3944  0.8941
  101OSM   C16F10230   2.057   4.687   9.020 -0.0633 -0.0984 -0.0256
  101OSM   H16F10231   1.985   4.692   8.936 -0.0849  0.8131  0.0490
  101OSM   H16G10232   2.005   4.622   9.094 -0.0061 -1.4581 -1.1567
  101OSM   C17F10233   2.184   4.627   8.961  0.1454  0.0939  0.1705
  101OSM   H17F10234   2.255   4.624   9.047  1.4038  1.7610 -0.7763
  101OSM   H17G10235   2.231   4.691   8.883 -0.2986 -0.5698 -0.6440
  101OSM   C18F10236   2.157   4.484   8.906  0.0825  0.3043  0.2051
  101OSM   H18F10237   2.263   4.451   8.895  0.1040  0.7377 -0.8850
  101OSM   H18G10238   2.114   4.477   8.804 -1.7335 -0.0407  0.9695
  101OSM   H18H10239   2.111   4.420   8.985 -2.0813  0.0379 -1.2246
  102OSM      N10240   3.725   6.735  11.079 -0.8061  0.3965 -0.2594
  102OSM    C1510241   3.841   6.643  11.050 -0.4180 -0.0156  0.1518
  102OSM   H15A10242   3.908   6.699  10.986  0.9265 -1.5824  0.1702
  102OSM   H15B10243   3.804   6.568  10.981  0.6979  0.0118 -0.4802
  102OSM   H15C10244   3.884   6.604  11.141  2.2591  0.1422 -1.0279
  102OSM    C1410245   3.613   6.650  11.135 -0.2079  0.9406  0.2894
  102OSM   H14A10246   3.529   6.714  11.156 -1.3767 -0.0703 -1.2352
  102OSM   H14B10247   3.645   6.611  11.231 -0.6454 -2.1053 -0.7280
  102OSM   H14C10248   3.579   6.572  11.068  1.8505 -0.2778  0.6061
  102OSM    C1310249   3.755   6.836  11.181  0.3987 -0.0442  0.5196
  102OSM   H13A10250   3.675   6.905  11.205 -1.5413 -1.5738 -1.3234
  102OSM   H13B10251   3.829   6.907  11.147 -0.6505  1.4621  1.3478
  102OSM   H13C10252   3.805   6.788  11.263 -0.3197  1.1341  1.6539
  102OSM    C1210253   3.673   6.801  10.952 -0.7221  0.1642 -0.7186
  102OSM   H12A10254   3.616   6.885  10.988  1.5890  0.6393  2.0133
  102OSM   H12B10255   3.611   6.727  10.905  1.0159 -0.5205 -2.0122
  102OSM    C1110256   3.767   6.870  10.856  0.0679  0.5635  0.1798
  102OSM   H11A10257   3.831   6.928  10.926 -0.1012 -0.6949  1.4054
  102OSM   H11B10258   3.706   6.932  10.787  1.5505  0.9174 -0.8330
  102OSM      P10259   3.813   6.671  10.667  0.1054  0.1865 -0.6760
  102OSM    O1310260   3.937   6.617  10.612  0.4388 -0.3427  0.1808
  102OSM    O1410261   3.699   6.583  10.706 -0.6941  0.2823 -0.5996
  102OSM    O1110262   3.768   6.776  10.558  0.6326  0.2302 -0.1774
  102OSM    O1210263   3.846   6.768  10.793  0.8811  0.3640 -0.0184
  102OSM    C1S10264   3.848   6.865  10.485  0.4921  0.1743 -0.3058
  102OSM    H1S10265   3.953   6.832  10.502  0.2373 -1.1201 -1.2375
  102OSM    H1T10266   3.846   6.968  10.528 -0.3141  0.7130 -1.6057
  102OSM     NF10267   3.903   6.958  10.270  0.8247  0.4944 -1.1841
  102OSM    HNF10268   3.872   7.053  10.279 -0.8678 -0.1720  0.3342
  102OSM    C2S10269   3.807   6.868  10.335 -0.8527  0.0735 -0.3432
  102OSM    H2S10270   3.816   6.770  10.284  2.5441 -0.2134  0.7056
  102OSM    C3S10271   3.655   6.908  10.334  0.6533 -0.1339  0.1140
  102OSM    H3S10272   3.651   7.013  10.371  1.8803 -0.4680  1.2513
  102OSM     O310273   3.575   6.825  10.420 -0.1042 -0.2020 -0.3772
  102OSM    HO310274   3.645   6.781  10.468  0.3894 -0.3165 -1.1811
  102OSM    C4S10275   3.606   6.896  10.197 -0.3069  0.6986 -0.1798
  102OSM    H4S10276   3.586   6.794  10.161 -0.3218  0.3339  0.8372
  102OSM    C5S10277   3.575   7.003  10.129  0.0706 -0.3475  0.3469
  102OSM    H5S10278   3.595   7.102  10.172  0.0526  0.7366 -2.0155
  102OSM    C6S10279   3.528   6.999   9.984 -0.1269 -0.5230 -0.0206
  102OSM    H6S10280   3.430   7.050   9.976 -0.9212 -1.8465  0.9703
  102OSM    H6T10281   3.510   6.895   9.949  1.2418 -0.6562 -0.3359
  102OSM    C7S10282   3.650   7.049   9.901 -0.0136  0.1618 -0.7913
  102OSM    H7S10283   3.725   6.968   9.913  0.9575  1.3127  1.0770
  102OSM    H7T10284   3.685   7.147   9.940  2.2329 -0.1009 -2.0711
  102OSM    C8S10285   3.619   7.077   9.749  0.1492  1.3847 -0.5681
  102OSM    H8S10286   3.624   6.978   9.698  1.4272 -0.2898  2.7082
  102OSM    H8T10287   3.701   7.129   9.694  0.3717  0.6033 -0.9754
  102OSM    C9S10288   3.482   7.137   9.713  0.5236 -0.3879  0.1681
  102OSM    H9S10289   3.476   7.228   9.775  0.1493 -0.5702  0.3995
  102OSM    H9T10290   3.396   7.073   9.741  1.0486 -1.3022 -0.2648
  102OSM   C10S10291   3.484   7.173   9.556  0.1045 -0.2828 -0.1434
  102OSM   H10S10292   3.497   7.082   9.495  1.1387 -0.3073  0.0880
  102OSM   H10T10293   3.579   7.226   9.534 -0.5834  0.7320 -0.6986
  102OSM   C11S10294   3.356   7.247   9.515  0.0757 -0.1448  0.3551
  102OSM   H11S10295   3.339   7.343   9.569  1.1311 -0.4600  1.2723
  102OSM   H11T10296   3.271   7.190   9.556 -0.7884  1.3258  0.6465
  102OSM   C12S10297   3.353   7.280   9.361  0.7822  0.5409  0.6438
  102OSM   H12S10298   3.445   7.337   9.333 -0.8517  2.5008 -0.8555
  102OSM   H12T10299   3.263   7.344   9.348  0.2131 -0.1349  1.2116
  102OSM   C13S10300   3.346   7.147   9.271 -0.1829  0.0246 -0.4528
  102OSM   H13S10301   3.252   7.092   9.291  1.3869 -2.5931 -0.1489
  102OSM   H13T10302   3.427   7.078   9.304 -2.2590 -1.1240  2.4131
  102OSM   C14S10303   3.352   7.194   9.124  0.1579  0.2321  0.5869
  102OSM   H14S10304   3.382   7.110   9.058 -0.5950 -0.2957  0.9130
  102OSM   H14T10305   3.434   7.267   9.109  0.2059 -0.1834 -1.2942
  102OSM   C15S10306   3.214   7.245   9.065 -0.3082  0.5236 -0.0881
  102OSM   H15S10307   3.197   7.337   9.125 -3.2424  0.0415 -0.0916
  102OSM   H15T10308   3.132   7.172   9.083  0.5807 -0.1373  1.4027
  102OSM   C16S10309   3.218   7.278   8.916  0.0446 -0.1958  0.5958
  102OSM   H16S10310   3.238   7.179   8.869  2.8171  0.3917  0.4641
  102OSM   H16T10311   3.300   7.351   8.901  0.6376 -0.9532  0.1400
  102OSM   C17S10312   3.082   7.334   8.868 -0.2610  0.7102  0.4190
  102OSM   H17S10313   3.057   7.427   8.924 -1.9959  0.9309 -0.6713
  102OSM   H17T10314   3.014   7.251   8.899 -1.7220  1.7419  0.0358
  102OSM   C18S10315   3.059   7.356   8.719  0.1098  0.0186 -0.3860
  102OSM   H18S10316   3.113   7.446   8.682 -0.3679  0.3008 -0.3939
  102OSM   H18T10317   2.952   7.361   8.693  0.1604 -1.7103 -0.9726
  102OSM   H18U10318   3.104   7.272   8.661  2.8154 -0.1577  1.8426
  102OSM    C1F10319   4.028   6.930  10.244 -0.3210  0.1229  0.3097
  102OSM     OF10320   4.076   6.825  10.277 -0.2093 -0.2596  0.0125
  102OSM    C2F10321   4.116   7.019  10.170  0.5823 -0.1547  0.3087
  102OSM    H2F10322   4.218   7.014  10.213  0.0188  1.8151  1.9466
  102OSM    H2G10323   4.082   7.121  10.199  0.4637 -0.2087  0.3612
  102OSM    C3F10324   4.115   6.999  10.017  0.4084  0.1815 -0.4903
  102OSM    H3F10325   4.008   7.014   9.991  0.0756  0.0269  0.7584
  102OSM    H3G10326   4.143   6.900   9.975 -0.8311  0.2572 -1.5603
  102OSM    C4F10327   4.190   7.110   9.941 -0.4409 -0.4803 -0.4894
  102OSM    H4F10328   4.301   7.112   9.939 -0.4479 -0.6865 -1.3725
  102OSM    H4G10329   4.158   7.204   9.991 -0.5568 -0.9525  0.3360
  102OSM    C5F10330   4.151   7.131   9.790 -0.5150  0.0372  0.1389
  102OSM    H5F10331   4.046   7.167   9.787 -0.3799  0.2882 -1.9410
  102OSM    H5G10332   4.164   7.030   9.747  0.5622  0.5299 -0.7108
  102OSM    C6F10333   4.250   7.232   9.719  0.8724 -0.1783 -0.0166
  102OSM    H6F10334   4.351   7.189   9.704  1.0752  0.8785 -1.7509
  102OSM    H6G10335   4.269   7.327   9.774 -1.6437  1.4499 -1.8242
  102OSM    C7F10336   4.202   7.282   9.584  0.1522 -0.4372 -0.3142
  102OSM    H7F10337   4.261   7.367   9.543 -0.6598  1.7799  2.8452
  102OSM    H7G10338   4.109   7.341   9.604 -0.8372 -2.0807  0.0013
  102OSM    C8F10339   4.191   7.174   9.480 -0.2164  0.4559  0.2727
  102OSM    H8F10340   4.137   7.209   9.389 -0.5792 -1.5328 -0.2973
  102OSM    H8G10341   4.149   7.078   9.517  0.7764 -1.0012 -2.2632
  102OSM    C9F10342   4.329   7.124   9.441 -0.0137 -0.9781  0.6359
  102OSM    H9F10343   4.394   7.087   9.522  1.7561  0.0464 -0.2700
  102OSM   C10F10344   4.379   7.126   9.316  0.3810 -0.0520  0.2327
  102OSM   H10F10345   4.478   7.080   9.296  0.4806  0.1196  0.3336
  102OSM   C11F10346   4.330   7.177   9.189  0.1305 -0.5466 -0.0878
  102OSM   H11F10347   4.364   7.280   9.165 -1.0944 -0.6960 -2.5669
  102OSM   H11G10348   4.220   7.170   9.192  0.0739 -0.1695 -1.1397
  102OSM   C12F10349   4.375   7.091   9.074  0.4407 -0.6804 -0.2857
  102OSM   H12F10350   4.392   6.990   9.115  2.3935 -0.6886 -1.0972
  102OSM   H12G10351   4.474   7.120   9.034  0.6004 -2.7198 -1.3905
  102OSM   C13F10352   4.273   7.068   8.957 -0.0077 -0.5103  0.7011
  102OSM   H13F10353   4.257   7.167   8.909 -1.3053 -2.0271 -2.0820
  102OSM   H13G10354   4.178   7.024   8.993  1.0330 -2.2004  1.4613
  102OSM   C14F10355   4.332   6.973   8.849  0.0641  0.4456  0.3284
  102OSM   H14F10356   4.440   6.998   8.841 -0.1703  1.3329 -0.1191
  102OSM   H14G10357   4.265   7.004   8.766 -2.5926  0.8167  2.5568
  102OSM   C15F10358   4.326   6.822   8.864  0.4042 -1.0312 -0.1305
  102OSM   H15F10359   4.224   6.778   8.873 -0.2148  0.1323 -1.2111
  102OSM   H15G10360   4.395   6.800   8.947  0.5340  1.1945  0.3885
  102OSM   C16F10361   4.381   6.738   8.752 -0.5058 -0.7947 -0.1353
  102OSM   H16F10362   4.371   6.628   8.765  0.2327 -1.0165 -1.3631
  102OSM   H16G10363   4.487   6.766   8.736 -1.7221  3.6905 -1.3083
  102OSM   C17F10364   4.307   6.758   8.623 -0.4973  0.2813 -0.6116
  102OSM   H17F10365   4.328   6.857   8.578 -1.6231  1.4754  1.3949
  102OSM   H17G10366   4.198   6.756   8.647 -0.3654  0.8528  0.0416
  102OSM   C18F10367   4.360   6.648   8.530  0.5727  0.0303 -0.0143
  102OSM   H18F10368   4.361   6.550   8.583  0.2994  0.0524  0.0317
  102OSM   H18G10369   4.453   6.662   8.471  0.2105 -2.2419 -1.1957
  102OSM   H18H10370   4.282   6.644   8.451 -1.7615  0.9084  2.1580
  103OSM      N10371   3.330   3.645  10.703  0.1933  0.2322  0.0269
  103OSM    C1510372   3.259   3.569  10.598  0.7837 -0.2990 -1.1777
  103OSM   H15A10373   3.156   3.578  10.631  0.8071  1.0240 -1.4396
  103OSM   H15B10374   3.291   3.466  10.596 -0.2646 -0.6355 -1.1680
  103OSM   H15C10375   3.263   3.617  10.501 -1.0926 -1.5781 -1.9344
  103OSM    C1410376   3.482   3.613  10.703 -0.3741 -0.4562 -0.3633
  103OSM   H14A10377   3.536   3.647  10.616  0.3443 -0.8503 -0.0705
  103OSM   H14B10378   3.494   3.506  10.693 -1.0568 -0.4350 -1.4004
  103OSM   H14C10379   3.541   3.643  10.788 -0.0946  1.8053 -1.3383
  103OSM    C1310380   3.315   3.794  10.682 -0.1317  0.3943  0.5057
  103OSM   H13A10381   3.213   3.825  10.663  0.0702  0.4382 -0.4978
  103OSM   H13B10382   3.357   3.827  10.589 -0.6401 -4.1118 -1.4454
  103OSM   H13C10383   3.356   3.850  10.765  0.2203 -0.2967  0.8063
  103OSM    C1210384   3.278   3.605  10.840 -0.2923  0.1825  0.2214
  103OSM   H12A10385   3.335   3.652  10.919 -1.7052 -0.0219  1.3791
  103OSM   H12B10386   3.293   3.499  10.853  1.3782  0.4313  0.3781
  103OSM    C1110387   3.130   3.613  10.873  0.4834 -0.5793  0.2374
  103OSM   H11A10388   3.093   3.717  10.868 -2.9896 -1.8199 -1.5915
  103OSM   H11B10389   3.115   3.589  10.981 -0.4395  0.9299  0.4526
  103OSM      P10390   3.001   3.398  10.829 -0.3390 -0.3301  0.2400
  103OSM    O1310391   3.115   3.306  10.824 -0.0601  0.4675 -0.1114
  103OSM    O1410392   2.939   3.418  10.961 -0.1285  0.0599 -0.4471
  103OSM    O1110393   2.891   3.355  10.726  0.7746  0.6388  0.3167
  103OSM    O1210394   3.052   3.539  10.778  0.3337 -0.0657  0.4097
  103OSM    C1S10395   2.866   3.432  10.606 -0.1552 -0.4689  0.6147
  103OSM    H1S10396   2.936   3.394  10.528  3.2971  1.1102  2.8160
  103OSM    H1T10397   2.881   3.542  10.613 -0.1633 -0.4531  0.3918
  103OSM     NF10398   2.711   3.496  10.419 -0.3487  0.8550 -0.2046
  103OSM    HNF10399   2.673   3.588  10.425  0.3050  1.2181 -1.4604
  103OSM    C2S10400   2.723   3.427  10.544 -0.1124 -0.5168  0.1039
  103OSM    H2S10401   2.698   3.319  10.532 -3.7557  0.1866  0.7813
  103OSM    C3S10402   2.620   3.489  10.649  0.4775 -0.8459  0.2312
  103OSM    H3S10403   2.647   3.596  10.640  3.1314 -1.4138  0.8747
  103OSM     O310404   2.634   3.435  10.777  0.7764  0.0394  0.0311
  103OSM    HO310405   2.715   3.384  10.772  0.1626 -0.8788 -0.7569
  103OSM    C4S10406   2.480   3.466  10.594 -0.1654  0.0668 -0.0060
  103OSM    H4S10407   2.431   3.546  10.538  2.8394  1.4468 -0.7783
  103OSM    C5S10408   2.420   3.352  10.604  1.1120  0.1173  0.9325
  103OSM    H5S10409   2.468   3.270  10.658  1.1932 -0.4177  0.0715
  103OSM    C6S10410   2.275   3.327  10.555  0.0630  0.1606 -0.1854
  103OSM    H6S10411   2.217   3.421  10.544  0.1181 -0.1597 -3.5583
  103OSM    H6T10412   2.232   3.254  10.627 -0.8089  0.6621 -0.1997
  103OSM    C7S10413   2.265   3.271  10.416 -0.3951  0.6371  0.5202
  103OSM    H7S10414   2.156   3.253  10.400  0.1871 -1.2762 -1.5334
  103OSM    H7T10415   2.331   3.182  10.410  0.3666  1.2427 -0.2111
  103OSM    C8S10416   2.316   3.380  10.315  0.7186  0.0152 -0.1858
  103OSM    H8S10417   2.423   3.395  10.337  1.2193 -2.0874 -1.0714
  103OSM    H8T10418   2.242   3.463  10.325 -1.7126 -1.9560 -1.3257
  103OSM    C9S10419   2.305   3.335  10.169  0.2285 -0.9016 -0.4007
  103OSM    H9S10420   2.227   3.256  10.165 -0.7697  0.0622 -0.2566
  103OSM    H9T10421   2.401   3.281  10.153 -0.2632 -0.9654 -3.5708
  103OSM   C10S10422   2.285   3.441  10.063  0.4372  0.1479  0.3090
  103OSM   H10S10423   2.369   3.514  10.056  0.8119 -0.1970  1.1154
  103OSM   H10T10424   2.191   3.497  10.083 -0.6371 -0.5789 -2.4778
  103OSM   C11S10425   2.282   3.375   9.925  0.3690  0.3576  0.1700
  103OSM   H11S10426   2.204   3.297   9.914  0.0983  0.9611 -2.6284
  103OSM   H11T10427   2.383   3.333   9.902  0.2448 -0.0857  0.4256
  103OSM   C12S10428   2.251   3.489   9.822 -0.5384  0.2702 -0.7596
  103OSM   H12S10429   2.292   3.582   9.865  0.6134 -0.2897 -0.6313
  103OSM   H12T10430   2.143   3.517   9.830 -0.9645 -1.2700 -0.8593
  103OSM   C13S10431   2.285   3.460   9.674 -0.6211  0.5890  1.2529
  103OSM   H13S10432   2.381   3.405   9.676 -0.7012  0.4451  1.1095
  103OSM   H13T10433   2.298   3.556   9.619 -2.0415 -0.9109 -1.8254
  103OSM   C14S10434   2.178   3.370   9.607 -0.2960 -0.3356 -0.3013
  103OSM   H14S10435   2.078   3.412   9.631  0.5863  0.7126  1.6572
  103OSM   H14T10436   2.188   3.276   9.666 -1.2965 -0.4654 -0.3346
  103OSM   C15S10437   2.196   3.333   9.458  0.3055 -0.2472 -0.8170
  103OSM   H15S10438   2.306   3.322   9.448  0.3208 -0.4018 -0.4729
  103OSM   H15T10439   2.171   3.424   9.399 -0.2851 -0.2271 -0.5357
  103OSM   C16S10440   2.105   3.219   9.414 -0.1372  0.2163 -0.2176
  103OSM   H16S10441   2.006   3.268   9.421  0.5111  1.1905  3.0999
  103OSM   H16T10442   2.096   3.128   9.478  1.3038 -0.9219 -1.5758
  103OSM   C17S10443   2.121   3.160   9.274  0.9782  0.1033  0.0916
  103OSM   H17S10444   2.209   3.093   9.284  0.8781  0.0269  0.4919
  103OSM   H17T10445   2.147   3.242   9.205  1.2668  0.1664  0.2750
  103OSM   C18S10446   2.002   3.077   9.219  0.3318 -0.2696 -0.5995
  103OSM   H18S10447   2.026   2.969   9.221  1.3025 -0.0983 -2.0443
  103OSM   H18T10448   1.985   3.108   9.114 -0.0938 -2.0985 -1.0869
  103OSM   H18U10449   1.911   3.093   9.281  0.0225 -0.2017 -1.0656
  103OSM    C1F10450   2.786   3.463  10.312  0.6926  0.5214  0.2341
  103OSM     OF10451   2.839   3.351  10.322  0.0763  0.1119 -0.3474
  103OSM    C2F10452   2.784   3.555  10.187 -0.7818 -0.6806  0.2756
  103OSM    H2F10453   2.879   3.611  10.191 -1.4631  0.6690 -1.2842
  103OSM    H2G10454   2.703   3.631  10.196 -0.0093  0.1569  0.1747
  103OSM    C3F10455   2.752   3.469  10.066  0.3343  0.3191 -0.1479
  103OSM    H3F10456   2.657   3.413  10.079  1.2500 -1.9371 -2.6322
  103OSM    H3G10457   2.824   3.385  10.058 -1.5257 -1.7620  3.5736
  103OSM    C4F10458   2.748   3.534   9.925  0.0993 -0.3817 -0.3873
  103OSM    H4F10459   2.844   3.585   9.900 -0.2023 -0.7918 -2.4359
  103OSM    H4G10460   2.667   3.609   9.916  0.6671  0.4610  1.1385
  103OSM    C5F10461   2.701   3.422   9.827 -0.7425 -0.1894 -0.0143
  103OSM    H5F10462   2.614   3.365   9.867 -1.1624  0.0976 -0.5172
  103OSM    H5G10463   2.780   3.343   9.832  1.2677  1.7333 -0.7192
  103OSM    C6F10464   2.673   3.460   9.687  0.4132 -0.5024 -0.3105
  103OSM    H6F10465   2.758   3.523   9.655 -0.6211  1.5802  0.9452
  103OSM    H6G10466   2.585   3.527   9.685  1.3484  0.7793  0.4717
  103OSM    C7F10467   2.656   3.342   9.587 -0.0427  0.1314 -0.3927
  103OSM    H7F10468   2.578   3.278   9.633  1.1338 -0.1985  1.1454
  103OSM    H7G10469   2.746   3.280   9.571 -2.5100 -3.6996 -0.0432
  103OSM    C8F10470   2.605   3.394   9.447  0.6261  0.6410 -0.2965
  103OSM    H8F10471   2.680   3.472   9.423  1.0314 -0.0407 -1.2945
  103OSM    H8G10472   2.503   3.437   9.456  0.9554  1.0704  1.5140
  103OSM    C9F10473   2.606   3.276   9.345 -0.2386 -0.6774 -0.3783
  103OSM    H9F10474   2.516   3.214   9.339  0.7137 -1.8776 -2.8954
  103OSM   C10F10475   2.709   3.247   9.257 -0.3058 -0.1213 -0.5520
  103OSM   H10F10476   2.682   3.188   9.168 -1.4929  2.2454 -1.7969
  103OSM   C11F10477   2.842   3.317   9.245  0.7872 -0.1255  0.0217
  103OSM   H11F10478   2.923   3.249   9.209  0.6417 -0.0359 -0.4906
  103OSM   H11G10479   2.880   3.352   9.343  2.3248  1.8439 -1.2292
  103OSM   C12F10480   2.849   3.436   9.143 -0.8421  0.2161 -0.0317
  103OSM   H12F10481   2.949   3.484   9.136 -2.0105  2.7028 -0.4186
  103OSM   H12G10482   2.788   3.519   9.185  0.7890  1.1980  0.4184
  103OSM   C13F10483   2.817   3.392   9.001  0.2777  0.7546 -0.2575
  103OSM   H13F10484   2.721   3.337   8.991  0.8306 -0.8017  2.4677
  103OSM   H13G10485   2.885   3.307   8.977 -0.4370 -0.3418  1.4783
  103OSM   C14F10486   2.833   3.503   8.892  0.2433  1.3929  0.1242
  103OSM   H14F10487   2.932   3.551   8.906  0.3551  1.2996 -0.3408
  103OSM   H14G10488   2.750   3.576   8.898  1.4940  3.0911 -2.3634
  103OSM   C15F10489   2.822   3.441   8.749  0.8230  0.0226 -0.7871
  103OSM   H15F10490   2.860   3.337   8.760 -2.0815 -1.2987 -2.5617
  103OSM   H15G10491   2.888   3.508   8.690  1.9902  1.0490  1.6420
  103OSM   C16F10492   2.674   3.415   8.700 -0.1213  0.6495  0.1833
  103OSM   H16F10493   2.611   3.498   8.739 -0.0380  1.4043 -1.2551
  103OSM   H16G10494   2.651   3.320   8.755  1.6775  1.1499  1.8466
  103OSM   C17F10495   2.663   3.404   8.547  0.7585  0.2363 -0.0607
  103OSM   H17F10496   2.677   3.505   8.504  0.2391 -0.1576 -1.1816
  103OSM   H17G10497   2.566   3.368   8.507  0.6757  1.3820 -0.9289
  103OSM   C18F10498   2.771   3.323   8.480 -0.0721  0.3720 -0.2382
  103OSM   H18F10499   2.793   3.230   8.537 -1.4738 -0.4860 -1.0563
  103OSM   H18G10500   2.864   3.382   8.465  0.2581 -0.7001 -2.7925
  103OSM   H18H10501   2.730   3.285   8.384  1.0806 -0.1512 -0.5275
  104OSM      N10502   4.968   3.244  11.040 -0.0176  0.5747 -0.6735
  104OSM    C1510503   4.844   3.201  11.111  0.3109 -0.1846 -0.4467
  104OSM   H15A10504   4.751   3.219  11.058 -0.0249 -1.3741 -0.2703
  104OSM   H15B10505   4.845   3.254  11.205  2.1230 -0.6493 -0.1935
  104OSM   H15C10506   4.851   3.094  11.117  0.5179 -0.2907 -2.1958
  104OSM    C1410507   4.987   3.390  11.049  0.2996  0.0652  0.1968
  104OSM   H14A10508   5.085   3.416  11.012  1.2915  0.1502  2.7431
  104OSM   H14B10509   4.979   3.425  11.151 -0.5625 -0.3028  0.2620
  104OSM   H14C10510   4.912   3.441  10.990  0.1448 -0.9572 -0.5044
  104OSM    C1310511   5.085   3.189  11.121 -0.2097  0.3234  0.1260
  104OSM   H13A10512   5.091   3.082  11.111  1.3323  0.5378 -1.4882
  104OSM   H13B10513   5.072   3.213  11.226 -1.3787  0.3761 -0.0273
  104OSM   H13C10514   5.182   3.228  11.095  1.6278 -4.1972 -0.2335
  104OSM    C1210515   4.971   3.201  10.897 -0.2986  0.5698  0.0174
  104OSM   H12A10516   5.074   3.218  10.868 -0.1200 -2.4819 -1.3465
  104OSM   H12B10517   4.905   3.262  10.837 -0.1357 -0.1134 -0.8708
  104OSM    C1110518   4.936   3.051  10.866 -0.4112 -0.8245  0.3019
  104OSM   H11A10519   5.001   2.981  10.923  0.5139 -0.1854  0.0288
  104OSM   H11B10520   4.960   3.032  10.760  3.1384  1.4229  0.6171
  104OSM      P10521   4.689   3.063  10.785  0.0821 -0.0949 -0.2431
  104OSM    O1310522   4.560   3.046  10.852 -0.5143  0.3786  0.3693
  104OSM    O1410523   4.722   3.184  10.716 -0.5853  0.0030 -0.0934
  104OSM    O1110524   4.708   2.936  10.691  0.8068  0.5711 -0.3379
  104OSM    O1210525   4.797   3.023  10.899 -0.0019 -0.6461  0.0075
  104OSM    C1S10526   4.606   2.908  10.591 -0.3263 -0.2042  0.3223
  104OSM    H1S10527   4.503   2.940  10.618 -1.5840 -2.2680 -1.8202
  104OSM    H1T10528   4.591   2.798  10.598 -0.0300 -0.1424  2.1721
  104OSM     NF10529   4.556   2.961  10.344  0.4129 -0.5627 -0.1559
  104OSM    HNF10530   4.551   2.885  10.280  0.1886  0.8446 -1.8373
  104OSM    C2S10531   4.656   2.956  10.450 -0.0456 -0.3532 -0.0089
  104OSM    H2S10532   4.694   3.060  10.461 -2.9063  0.8762 -1.3200
  104OSM    C3S10533   4.771   2.866  10.414 -0.1943  0.1410  0.0202
  104OSM    H3S10534   4.722   2.771  10.383 -0.0910  0.0724  0.0672
  104OSM     O310535   4.855   2.823  10.520  0.1529 -0.4265 -0.1021
  104OSM    HO310536   4.819   2.862  10.600 -1.7770  1.8711 -2.0391
  104OSM    C4S10537   4.842   2.906  10.292  1.3569 -0.2632  0.7593
  104OSM    H4S10538   4.788   2.882  10.199  0.5897 -2.8168  1.8312
  104OSM    C5S10539   4.950   2.988  10.285  0.8785  1.0714 -0.2652
  104OSM    H5S10540   4.989   3.027  10.381  0.7813 -1.0449  0.6661
  104OSM    C6S10541   5.018   3.029  10.156 -0.1385 -0.6780 -0.0243
  104OSM    H6S10542   5.118   2.980  10.161  0.5930  0.9449  1.5894
  104OSM    H6T10543   5.030   3.139  10.157 -2.8049 -0.3478  0.5295
  104OSM    C7S10544   4.948   2.989  10.026  0.4469 -0.3449 -0.0273
  104OSM    H7S10545   4.845   3.032  10.024  0.8934  0.8332  1.0779
  104OSM    H7T10546   4.930   2.880  10.036 -0.8875 -0.1850 -0.6043
  104OSM    C8S10547   5.033   3.026   9.905  0.4143 -0.0853 -0.2883
  104OSM    H8S10548   5.139   2.994   9.919  0.6862  0.8530 -0.1437
  104OSM    H8T10549   5.037   3.137   9.901 -0.4385 -0.0376  0.0897
  104OSM    C9S10550   4.968   2.967   9.777  0.5453 -0.2509  0.2060
  104OSM    H9S10551   4.870   3.019   9.768 -1.6713 -3.5229  3.7353
  104OSM    H9T10552   4.945   2.860   9.798 -0.6736  0.0121  0.2997
  104OSM   C10S10553   5.046   2.988   9.648 -0.3323  1.1217 -0.3873
  104OSM   H10S10554   5.149   2.950   9.663 -0.0484  1.8305 -0.4907
  104OSM   H10T10555   5.050   3.098   9.633 -0.6918  1.1990  0.0532
  104OSM   C11S10556   4.992   2.937   9.523 -0.4237 -0.3943  0.1923
  104OSM   H11S10557   4.886   2.969   9.526 -0.0411  0.7622  1.5679
  104OSM   H11T10558   4.988   2.826   9.516  0.1027 -0.5052  1.5774
  104OSM   C12S10559   5.069   2.992   9.408 -0.1534 -0.4749  0.0972
  104OSM   H12S10560   5.172   2.954   9.391 -0.6954 -1.2376 -1.5763
  104OSM   H12T10561   5.074   3.101   9.429  2.2078 -0.7388  1.1199
  104OSM   C13S10562   4.997   2.976   9.275 -0.6195 -0.2223  0.4538
  104OSM   H13S10563   4.901   3.032   9.274 -1.5288 -1.7003  2.4817
  104OSM   H13T10564   4.972   2.870   9.252 -1.9222 -0.0313  0.9944
  104OSM   C14S10565   5.088   3.033   9.166  0.4099  0.3561 -0.3102
  104OSM   H14S10566   5.175   2.965   9.156  0.5657  0.1467  2.2042
  104OSM   H14T10567   5.132   3.128   9.203 -0.4103  0.3764  0.6519
  104OSM   C15S10568   5.039   3.060   9.013 -0.3913  0.8635  0.7526
  104OSM   H15S10569   5.133   3.091   8.964  0.4489 -1.4690  0.7885
  104OSM   H15T10570   4.971   3.147   9.026  0.2099  1.7089 -1.5121
  104OSM   C16S10571   4.967   2.946   8.941 -0.9740 -0.6577  0.1266
  104OSM   H16S10572   4.880   2.906   8.999 -0.5773 -0.2734  0.9780
  104OSM   H16T10573   5.040   2.865   8.920  3.0534  3.1316 -0.9966
  104OSM   C17S10574   4.907   2.990   8.802  1.3855  0.2430 -0.4286
  104OSM   H17S10575   4.996   2.999   8.736  1.0323 -1.5009 -1.1794
  104OSM   H17T10576   4.864   3.092   8.806  1.6971  0.4034 -1.0653
  104OSM   C18S10577   4.802   2.892   8.752 -0.2446  0.2012 -0.0107
  104OSM   H18S10578   4.715   2.862   8.813  0.4220 -0.0049  0.8496
  104OSM   H18T10579   4.854   2.795   8.737 -1.5432 -0.5600  0.3521
  104OSM   H18U10580   4.759   2.940   8.661 -1.3727  0.3276  0.5777
  104OSM    C1F10581   4.458   3.052  10.339  0.0506 -0.0006  0.0127
  104OSM     OF10582   4.447   3.136  10.425 -0.1254  0.2248 -0.5642
  104OSM    C2F10583   4.368   3.055  10.216  1.0278 -0.4189  0.1363
  104OSM    H2F10584   4.338   2.950  10.198  0.5261 -0.1817 -0.4417
  104OSM    H2G10585   4.419   3.085  10.122  0.1142 -1.9200 -0.8420
  104OSM    C3F10586   4.245   3.145  10.233  0.2635 -0.0707 -0.4439
  104OSM    H3F10587   4.258   3.253  10.208  0.0179  0.0977  0.1456
  104OSM    H3G10588   4.223   3.146  10.342 -1.4727 -0.8118 -0.7803
  104OSM    C4F10589   4.115   3.091  10.172 -0.2752  0.4585 -0.0999
  104OSM    H4F10590   4.041   3.097  10.254  2.7058 -0.7954  2.8312
  104OSM    H4G10591   4.142   2.992  10.128 -1.0941  0.2292 -0.0964
  104OSM    C5F10592   4.063   3.160  10.046 -0.2282 -0.2843 -0.0551
  104OSM    H5F10593   4.038   3.265  10.072 -1.2395 -1.1227  2.5806
  104OSM    H5G10594   3.960   3.122  10.031 -0.4241 -1.4961  3.8079
  104OSM    C6F10595   4.163   3.147   9.933 -0.2950 -0.7655 -0.3636
  104OSM    H6F10596   4.181   3.045   9.892 -0.6271 -1.5371  1.3667
  104OSM    H6G10597   4.263   3.175   9.972 -0.0628 -2.9568  0.6903
  104OSM    C7F10598   4.129   3.247   9.826 -0.5521 -0.3249  0.5505
  104OSM    H7F10599   4.128   3.345   9.878 -2.4193 -0.0657  0.0871
  104OSM    H7G10600   4.029   3.228   9.780 -0.0380 -1.5584 -0.0993
  104OSM    C8F10601   4.231   3.240   9.710 -0.1497 -0.1800  0.2784
  104OSM    H8F10602   4.231   3.133   9.681  0.1472  0.3415 -1.7489
  104OSM    H8G10603   4.333   3.270   9.744 -0.3364 -1.0405  1.6323
  104OSM    C9F10604   4.181   3.323   9.587  0.8809  1.2289 -0.0238
  104OSM    H9F10605   4.105   3.394   9.621 -1.2689 -1.7754  1.6500
  104OSM   C10F10606   4.216   3.299   9.462 -0.2797 -0.7204 -0.5127
  104OSM   H10F10607   4.158   3.342   9.379  2.1879 -0.6725 -2.2596
  104OSM   C11F10608   4.318   3.191   9.428 -0.1670  0.1039  0.8703
  104OSM   H11F10609   4.265   3.093   9.423 -2.7807  1.4107  1.9159
  104OSM   H11G10610   4.394   3.180   9.509  0.7159  2.2598  0.3621
  104OSM   C12F10611   4.398   3.208   9.302  0.0067 -0.3342  0.3439
  104OSM   H12F10612   4.481   3.136   9.288 -1.1904 -1.9334  1.2396
  104OSM   H12G10613   4.456   3.302   9.317 -0.1174 -0.1180 -0.4906
  104OSM   C13F10614   4.311   3.183   9.169  0.5300  0.5537  0.2343
  104OSM   H13F10615   4.226   3.250   9.143  1.1235 -0.1740 -3.9038
  104OSM   H13G10616   4.265   3.083   9.179  0.1766  0.5811 -1.1071
  104OSM   C14F10617   4.389   3.193   9.037  0.1715 -0.1206 -0.0196
  104OSM   H14F10618   4.475   3.124   9.044  0.8541  0.8534  1.5844
  104OSM   H14G10619   4.438   3.291   9.018  2.2560 -1.0446  0.4135
  104OSM   C15F10620   4.313   3.158   8.907  0.5494  0.7076 -0.2086
  104OSM   H15F10621   4.263   3.252   8.874  3.0591  2.5399  1.0595
  104OSM   H15G10622   4.237   3.081   8.932  1.7706 -0.3452  0.3039
  104OSM   C16F10623   4.393   3.097   8.799  0.2323 -0.3575 -0.1031
  104OSM   H16F10624   4.444   3.000   8.820  1.8858  0.8650  1.6968
  104OSM   H16G10625   4.473   3.167   8.770 -0.8079  0.0002 -2.1433
  104OSM   C17F10626   4.302   3.075   8.677  0.1174  0.4124 -0.4910
  104OSM   H17F10627   4.274   3.173   8.633 -0.0719  0.6974  0.2765
  104OSM   H17G10628   4.209   3.035   8.721 -0.0259  0.2899 -0.8948
  104OSM   C18F10629   4.365   2.981   8.573 -0.1123  0.9801  0.7155
  104OSM   H18F10630   4.284   2.954   8.501  1.0760 -1.3612  0.2025
  104OSM   H18G10631   4.390   2.884   8.621 -2.0241  0.1428  0.0873
  104OSM   H18H10632   4.458   3.029   8.537  1.0270  0.4553  2.8768
  105OSM      N10633   0.713   5.379  10.993 -0.0434 -0.4276  0.1750
  105OSM    C1510634   0.585   5.463  11.007  0.2800 -0.7644  0.5417
  105OSM   H15A10635   0.501   5.411  10.964 -1.6314  1.1351  1.8896
  105OSM   H15B10636   0.594   5.560  10.962  1.7438 -0.8833  0.5523
  105OSM   H15C10637   0.572   5.477  11.113  1.8135  0.1124  0.6386
  105OSM    C1410638   0.824   5.461  11.046  0.2759 -0.1143 -0.3166
  105OSM   H14A10639   0.802   5.499  11.144 -1.0120 -3.0198  0.5441
  105OSM   H14B10640   0.834   5.550  10.984 -2.7191 -1.0898 -2.2997
  105OSM   H14C10641   0.920   5.411  11.054  0.8112  0.9547  0.0562
  105OSM    C1310642   0.693   5.260  11.073 -0.2917 -0.1432  0.1299
  105OSM   H13A10643   0.677   5.292  11.175 -1.3588  1.0024 -0.3823
  105OSM   H13B10644   0.778   5.194  11.079 -0.1349 -0.1421 -1.6849
  105OSM   H13C10645   0.600   5.209  11.048  0.6342 -1.1157 -1.3958
  105OSM    C1210646   0.738   5.340  10.842 -0.4859  0.4328  0.9956
  105OSM   H12A10647   0.727   5.429  10.782  0.3493 -0.5043 -0.5782
  105OSM   H12B10648   0.654   5.285  10.805  0.8679 -0.4291 -0.8756
  105OSM    C1110649   0.870   5.271  10.794 -0.4715  0.6643 -0.0779
  105OSM   H11A10650   0.946   5.348  10.822 -1.0385  2.1194 -2.4125
  105OSM   H11B10651   0.873   5.258  10.684  2.0650 -1.7811  0.2309
  105OSM      P10652   0.815   5.001  10.802  0.7117 -0.7592  0.1153
  105OSM    O1310653   0.902   4.895  10.847 -0.1981  0.1267 -0.5102
  105OSM    O1410654   0.674   4.994  10.840  0.9223  0.0983 -0.1064
  105OSM    O1110655   0.817   5.009  10.637 -0.3928  0.0525  0.4690
  105OSM    O1210656   0.869   5.143  10.858 -0.1224 -0.0919 -0.3295
  105OSM    C1S10657   0.710   5.053  10.549 -0.0986  0.4126  0.0203
  105OSM    H1S10658   0.683   5.160  10.565  0.0766  0.3335  0.8712
  105OSM    H1T10659   0.616   4.998  10.571  1.0125 -1.1150  1.0308
  105OSM     NF10660   0.625   5.103  10.319  0.0424 -0.2082 -0.2930
  105OSM    HNF10661   0.582   5.044  10.251 -2.0173  0.2194  0.5806
  105OSM    C2S10662   0.743   5.052  10.395 -0.1657 -0.6076  0.0977
  105OSM    H2S10663   0.831   5.120  10.383 -0.1443 -0.7875 -0.7867
  105OSM    C3S10664   0.780   4.907  10.351  1.1136 -0.4003  0.9356
  105OSM    H3S10665   0.686   4.848  10.356  1.2536 -0.7660 -0.5142
  105OSM     O310666   0.873   4.841  10.432 -0.4357 -0.0717 -0.1124
  105OSM    HO310667   0.888   4.890  10.513 -0.3219  2.4705 -1.6336
  105OSM    C4S10668   0.832   4.907  10.207  0.4034  0.7168  0.3659
  105OSM    H4S10669   0.939   4.932  10.203  0.5233 -0.0263 -1.9438
  105OSM    C5S10670   0.762   4.874  10.098 -0.7850  0.4445 -0.3409
  105OSM    H5S10671   0.659   4.836  10.095 -0.3461 -1.0425  1.9824
  105OSM    C6S10672   0.841   4.883   9.965 -0.1068 -0.1782 -0.0105
  105OSM    H6S10673   0.868   4.780   9.936 -1.2812 -0.5333  0.1134
  105OSM    H6T10674   0.934   4.944   9.967 -1.6703  2.3004  1.6651
  105OSM    C7S10675   0.754   4.941   9.854  0.1541 -0.3505  0.4305
  105OSM    H7S10676   0.697   5.030   9.889 -1.3880 -1.0253 -0.3473
  105OSM    H7T10677   0.672   4.867   9.843 -1.1311  1.1133  0.0594
  105OSM    C8S10678   0.830   4.951   9.723  0.8143  0.1344  0.5953
  105OSM    H8S10679   0.896   4.862   9.721  1.3259  0.4831  1.5898
  105OSM    H8T10680   0.899   5.036   9.745 -0.1413  1.1246 -0.1659
  105OSM    C9S10681   0.752   4.957   9.583  0.3002 -0.1858  0.0492
  105OSM    H9S10682   0.700   4.862   9.559  1.4743 -1.3397  1.9038
  105OSM    H9T10683   0.830   4.982   9.508  1.4613 -0.6818  1.0547
  105OSM   C10S10684   0.639   5.059   9.587  0.4403 -0.3818  0.5947
  105OSM   H10S10685   0.655   5.156   9.639  1.9576  0.3269 -1.1586
  105OSM   H10T10686   0.548   5.028   9.642 -2.0760 -0.9132 -3.7002
  105OSM   C11S10687   0.597   5.101   9.442 -0.2589 -0.0684 -0.3252
  105OSM   H11S10688   0.586   5.011   9.378  1.5104 -0.3981 -0.1834
  105OSM   H11T10689   0.676   5.162   9.394 -0.9676  0.6237 -0.6185
  105OSM   C12S10690   0.467   5.177   9.444  0.5714  0.1926 -0.4411
  105OSM   H12S10691   0.478   5.270   9.504  1.0350 -0.8232  1.0607
  105OSM   H12T10692   0.392   5.108   9.487  0.6077  0.8319  0.6512
  105OSM   C13S10693   0.432   5.202   9.306  0.0317  0.4623  0.1971
  105OSM   H13S10694   0.455   5.116   9.239  3.5020  1.2768  0.2067
  105OSM   H13T10695   0.496   5.281   9.260  1.9514 -2.0338 -1.5988
  105OSM   C14S10696   0.285   5.220   9.286  0.1094 -0.3108 -0.4427
  105OSM   H14S10697   0.261   5.289   9.370  0.0643 -1.6163  0.6299
  105OSM   H14T10698   0.227   5.128   9.306  0.8587 -0.4978  0.9197
  105OSM   C15S10699   0.258   5.266   9.139  0.2556 -0.2844 -0.6903
  105OSM   H15S10700   0.328   5.347   9.109 -1.9958  1.0217 -2.5540
  105OSM   H15T10701   0.153   5.300   9.135 -0.1287 -1.0917  1.6058
  105OSM   C16S10702   0.286   5.155   9.035  0.1575  0.0033  0.6611
  105OSM   H16S10703   0.225   5.074   9.081  2.6064 -0.6365  2.8904
  105OSM   H16T10704   0.391   5.120   9.034 -0.2455 -1.2194  1.2295
  105OSM   C17S10705   0.241   5.192   8.896 -0.2841 -0.6595  0.2064
  105OSM   H17S10706   0.277   5.297   8.885 -0.5913 -0.3832  1.6223
  105OSM   H17T10707   0.130   5.201   8.894 -0.2125 -0.1259 -2.0131
  105OSM   C18S10708   0.286   5.107   8.780 -0.5093  0.0980  0.2017
  105OSM   H18S10709   0.356   5.024   8.803  1.2250  2.3385  3.4154
  105OSM   H18T10710   0.339   5.163   8.699  2.9038 -2.2254  0.7062
  105OSM   H18U10711   0.194   5.065   8.735  1.0334 -1.6041 -1.4258
  105OSM    C1F10712   0.575   5.223  10.335 -0.9632 -0.1783 -0.3453
  105OSM     OF10713   0.648   5.309  10.389 -0.0347 -0.3942  0.7604
  105OSM    C2F10714   0.439   5.257  10.284 -0.6507  0.2642  0.6378
  105OSM    H2F10715   0.383   5.258  10.380 -0.8482  0.3685  0.5222
  105OSM    H2G10716   0.408   5.175  10.216  0.2875 -0.4181  1.0231
  105OSM    C3F10717   0.427   5.391  10.215  0.1698 -0.2067  0.6972
  105OSM    H3F10718   0.477   5.372  10.117  2.1899 -0.9579  1.8394
  105OSM    H3G10719   0.479   5.474  10.268  0.9748  0.9017 -1.7442
  105OSM    C4F10720   0.278   5.421  10.179 -0.5413  0.1738 -0.6060
  105OSM    H4F10721   0.211   5.435  10.266 -0.6867  0.9283 -0.8340
  105OSM    H4G10722   0.231   5.344  10.115  0.8923 -1.6853  0.5513
  105OSM    C5F10723   0.259   5.556  10.105  0.2712 -0.3795 -0.7109
  105OSM    H5F10724   0.298   5.637  10.170  0.1407  0.2228 -1.3693
  105OSM    H5G10725   0.151   5.579  10.095  0.5415  0.2932 -2.3463
  105OSM    C6F10726   0.325   5.558   9.970  0.7995  0.4082 -0.4351
  105OSM    H6F10727   0.434   5.543   9.986  0.6661 -0.1255 -0.0084
  105OSM    H6G10728   0.307   5.653   9.915 -0.4381 -0.7873 -2.1471
  105OSM    C7F10729   0.263   5.464   9.864 -0.0301  0.0964  0.1651
  105OSM    H7F10730   0.154   5.466   9.888 -0.6074  3.1870 -2.4147
  105OSM    H7G10731   0.306   5.363   9.882  2.9593  1.3349  0.2555
  105OSM    C8F10732   0.298   5.503   9.721  0.2368  0.3663  0.1478
  105OSM    H8F10733   0.243   5.593   9.686 -0.1871  0.6730  1.5749
  105OSM    H8G10734   0.272   5.415   9.658  0.6160  1.3288 -1.3779
  105OSM    C9F10735   0.443   5.516   9.705  0.5458  0.2935 -0.2619
  105OSM    H9F10736   0.500   5.430   9.744 -1.7208 -1.2811 -0.3867
  105OSM   C10F10737   0.515   5.627   9.671  0.1350  0.0005 -0.3807
  105OSM   H10F10738   0.625   5.622   9.671  0.0848 -1.4147  0.0626
  105OSM   C11F10739   0.458   5.764   9.634  0.2677  0.2564 -0.2601
  105OSM   H11F10740   0.469   5.843   9.711 -1.1047 -0.8659  1.1229
  105OSM   H11G10741   0.347   5.763   9.628  0.1612  0.0896  1.6127
  105OSM   C12F10742   0.507   5.832   9.502  0.3479 -0.8676  0.9924
  105OSM   H12F10743   0.618   5.828   9.498  0.2967 -2.2889  0.8467
  105OSM   H12G10744   0.467   5.936   9.501 -1.8129 -1.6736  0.3311
  105OSM   C13F10745   0.452   5.766   9.373 -0.2827  0.3581 -0.2326
  105OSM   H13F10746   0.341   5.765   9.377 -0.3109  2.0494 -0.1030
  105OSM   H13G10747   0.489   5.661   9.368 -0.4332  0.2036  1.7902
  105OSM   C14F10748   0.496   5.830   9.243 -0.4641  0.2028  0.4028
  105OSM   H14F10749   0.607   5.831   9.253 -0.3630 -0.5573 -0.5303
  105OSM   H14G10750   0.460   5.934   9.227 -1.0549 -0.0207  0.2869
  105OSM   C15F10751   0.461   5.747   9.123  0.3884  0.1565 -0.1377
  105OSM   H15F10752   0.351   5.754   9.112  0.3992 -0.1829 -0.4614
  105OSM   H15G10753   0.483   5.638   9.130 -2.4036 -0.3206  2.1251
  105OSM   C16F10754   0.534   5.787   8.990  0.1475 -0.0893 -0.4949
  105OSM   H16F10755   0.597   5.698   8.970  0.4448  0.1745 -0.7423
  105OSM   H16G10756   0.600   5.874   9.011 -1.1993  1.7127 -3.3635
  105OSM   C17F10757   0.439   5.819   8.874 -0.2625 -0.1474  0.5757
  105OSM   H17F10758   0.381   5.729   8.842  0.2206 -0.6695  1.1487
  105OSM   H17G10759   0.506   5.826   8.786 -2.5233  2.9464 -0.9623
  105OSM   C18F10760   0.358   5.941   8.885 -0.0990  0.0453  0.1130
  105OSM   H18F10761   0.298   5.954   8.793 -1.7733  1.1814  1.3153
  105OSM   H18G10762   0.425   6.028   8.901 -1.9666  1.4200  0.7188
  105OSM   H18H10763   0.296   5.934   8.978  0.4981 -2.7401  0.3446
  106OSM      N10764   5.978   4.774  10.889  0.2422  0.0480 -0.0208
  106OSM    C1510765   6.024   4.824  11.018  0.2189 -0.2441  0.5779
  106OSM   H15A10766   5.947   4.865  11.081 -0.8171  0.2525 -0.9805
  106OSM   H15B10767   6.096   4.902  10.998  0.1360  0.1998  1.9606
  106OSM   H15C10768   6.074   4.748  11.077 -0.9614 -2.2762 -0.9356
  106OSM    C1410769   5.918   4.636  10.899 -0.7382 -0.9379 -0.4570
  106OSM   H14A10770   5.818   4.652  10.935 -0.2500  1.2278  0.0029
  106OSM   H14B10771   5.981   4.568  10.956 -0.1769  1.6017  2.0678
  106OSM   H14C10772   5.907   4.605  10.797 -1.4250  1.5021 -1.1463
  106OSM    C1310773   5.861   4.865  10.842  0.3401  0.5138 -0.0699
  106OSM   H13A10774   5.895   4.968  10.847  0.1014  0.4881  3.3760
  106OSM   H13B10775   5.772   4.849  10.901 -0.8038  0.5386 -1.7513
  106OSM   H13C10776   5.828   4.830  10.745 -3.6871  4.1152 -0.1227
  106OSM    C1210777   6.086   4.772  10.784  0.7186 -0.4625 -0.5438
  106OSM   H12A10778   6.156   4.699  10.823  0.7814  0.2330  0.6568
  106OSM   H12B10779   6.131   4.870  10.784 -0.4945  0.2262 -5.5241
  106OSM    C1110780   6.046   4.738  10.636 -0.3356 -0.2066 -0.1723
  106OSM   H11A10781   6.125   4.769  10.565 -2.0782  2.2664 -1.0911
  106OSM   H11B10782   5.957   4.799  10.607 -0.7353 -1.5310 -1.8008
  106OSM      P10783   6.146   4.507  10.609 -0.0428 -0.8487 -0.5418
  106OSM    O1310784   6.224   4.521  10.728 -0.2849 -0.0527 -0.7479
  106OSM    O1410785   6.093   4.372  10.576  0.4194  0.2669 -0.1919
  106OSM    O1110786   6.230   4.566  10.488  0.0172  0.0810 -0.0979
  106OSM    O1210787   6.021   4.602  10.607  0.3792 -0.0709  0.5836
  106OSM    C1S10788   6.342   4.493  10.448 -0.0670  0.1341  0.3026
  106OSM    H1S10789   6.332   4.383  10.447 -0.8973  0.2051  0.3041
  106OSM    H1T10790   6.426   4.518  10.516 -0.6155 -1.1260  1.4516
  106OSM     NF10791   6.471   4.431  10.241 -0.0841 -0.3643  0.1794
  106OSM    HNF10792   6.570   4.439  10.250 -0.1462  1.8599 -0.5669
  106OSM    C2S10793   6.382   4.531  10.302  0.4772  0.5234 -0.1974
  106OSM    H2S10794   6.284   4.532  10.250  1.2384 -0.5365 -1.6803
  106OSM    C3S10795   6.450   4.668  10.303  0.4379 -0.3001  0.2943
  106OSM    H3S10796   6.556   4.655  10.336  1.6624  4.2169 -1.5133
  106OSM     O310797   6.389   4.761  10.391 -0.2096 -0.7029 -0.8295
  106OSM    HO310798   6.326   4.706  10.437 -0.1782  1.0305  1.3438
  106OSM    C4S10799   6.456   4.717  10.164  0.2410  0.4319 -0.1283
  106OSM    H4S10800   6.544   4.692  10.102 -0.2246  1.7674 -1.3589
  106OSM    C5S10801   6.368   4.802  10.107  0.2555  0.6634 -0.0842
  106OSM    H5S10802   6.283   4.835  10.167 -1.0573 -1.2679 -0.8328
  106OSM    C6S10803   6.371   4.855   9.963  0.4042 -0.1990 -0.1046
  106OSM    H6S10804   6.270   4.844   9.920  0.1068  0.1673  0.4907
  106OSM    H6T10805   6.453   4.795   9.917  0.8137 -1.2763  1.9754
  106OSM    C7S10806   6.400   5.009   9.946  0.1754 -0.2702  0.6236
  106OSM    H7S10807   6.504   5.027   9.981  1.0739 -0.8825 -1.6516
  106OSM    H7T10808   6.341   5.053  10.029 -0.0101  2.5201 -0.8930
  106OSM    C8S10809   6.374   5.073   9.807  0.5530  0.1572  0.0939
  106OSM    H8S10810   6.443   5.026   9.734 -3.3806 -3.2065 -1.7336
  106OSM    H8T10811   6.405   5.180   9.808 -0.4399  0.4729 -0.9323
  106OSM    C9S10812   6.237   5.056   9.762 -0.0211 -0.5989 -0.0394
  106OSM    H9S10813   6.165   5.062   9.846 -0.4502  0.2066 -0.4497
  106OSM    H9T10814   6.218   4.959   9.713 -1.6992 -0.2654 -0.0552
  106OSM   C10S10815   6.197   5.166   9.655  0.2706 -0.0418 -0.2449
  106OSM   H10S10816   6.192   5.267   9.702 -0.6061  0.0332 -0.4955
  106OSM   H10T10817   6.094   5.139   9.622  0.8854 -1.2881 -1.1635
  106OSM   C11S10818   6.288   5.177   9.529  0.4304  0.3664 -0.4940
  106OSM   H11S10819   6.282   5.077   9.480  1.7462 -1.1014  2.2218
  106OSM   H11T10820   6.394   5.195   9.556  0.0721 -2.1986  2.9028
  106OSM   C12S10821   6.239   5.290   9.426  0.0217 -0.3562 -0.5441
  106OSM   H12S10822   6.224   5.390   9.473 -1.7447 -0.3590 -1.0984
  106OSM   H12T10823   6.139   5.261   9.389 -0.6335 -1.0518  1.6630
  106OSM   C13S10824   6.326   5.302   9.301  0.4756 -0.1681  0.5024
  106OSM   H13S10825   6.378   5.204   9.293 -2.6182 -2.0351  2.0980
  106OSM   H13T10826   6.404   5.378   9.317  1.0936 -0.7440  0.2558
  106OSM   C14S10827   6.244   5.347   9.173  1.1925 -0.1407 -0.0442
  106OSM   H14S10828   6.142   5.310   9.195  1.0163 -0.3279 -1.1391
  106OSM   H14T10829   6.288   5.295   9.085  3.7019  0.9007  0.5395
  106OSM   C15S10830   6.255   5.497   9.142 -0.3827 -0.4637  0.0001
  106OSM   H15S10831   6.364   5.513   9.131 -0.1525 -0.8092  1.6080
  106OSM   H15T10832   6.215   5.554   9.229 -0.6690  0.3334 -0.6494
  106OSM   C16S10833   6.176   5.538   9.021  0.4613 -0.8666  0.4477
  106OSM   H16S10834   6.070   5.510   9.035 -0.0827  0.2552 -1.2475
  106OSM   H16T10835   6.215   5.473   8.940 -1.5715 -1.2604 -0.2433
  106OSM   C17S10836   6.186   5.687   8.987  0.0332  0.2273  0.8256
  106OSM   H17S10837   6.136   5.710   8.890 -0.1155  0.5553  0.9812
  106OSM   H17T10838   6.291   5.711   8.961 -0.5536 -0.3406 -2.2618
  106OSM   C18S10839   6.134   5.792   9.084  0.2645  0.2075  0.3064
  106OSM   H18S10840   6.040   5.763   9.136  0.6712 -1.7030  0.0013
  106OSM   H18T10841   6.113   5.891   9.038  0.4780  0.7676  1.4085
  106OSM   H18U10842   6.202   5.814   9.169  0.3862 -0.1645  0.3040
  106OSM    C1F10843   6.421   4.310  10.217 -0.1091  0.2022 -1.1920
  106OSM     OF10844   6.305   4.280  10.248 -0.1734 -0.4365  0.7034
  106OSM    C2F10845   6.510   4.206  10.159  0.2685  0.1807 -0.7024
  106OSM    H2F10846   6.460   4.147  10.079  1.2141 -0.0125 -1.1540
  106OSM    H2G10847   6.528   4.128  10.236  0.9597 -0.6835 -1.7193
  106OSM    C3F10848   6.653   4.250  10.114 -0.1847  0.0811 -0.2493
  106OSM    H3F10849   6.714   4.158  10.108 -1.7442 -0.8914 -1.7181
  106OSM    H3G10850   6.691   4.308  10.201  0.6600 -0.2029 -0.4289
  106OSM    C4F10851   6.668   4.344   9.984 -0.3133 -0.7933  0.0111
  106OSM    H4F10852   6.767   4.393   9.977 -0.4199 -0.8040 -1.8237
  106OSM    H4G10853   6.589   4.420  10.000 -2.0431 -2.4254 -0.6218
  106OSM    C5F10854   6.633   4.278   9.847  0.0707 -0.0299  1.4884
  106OSM    H5F10855   6.541   4.215   9.848  0.5911 -0.8193  0.0769
  106OSM    H5G10856   6.721   4.213   9.830 -0.1435  0.1211 -0.2785
  106OSM    C6F10857   6.628   4.383   9.738  0.0474 -0.0503 -0.8269
  106OSM    H6F10858   6.726   4.417   9.696  1.2837  1.3310  3.0176
  106OSM    H6G10859   6.592   4.478   9.782  0.6069 -0.6403  0.9491
  106OSM    C7F10860   6.545   4.331   9.621  0.2145  0.6068  0.4708
  106OSM    H7F10861   6.487   4.406   9.564 -1.4420  0.4363  1.8767
  106OSM    H7G10862   6.461   4.270   9.662 -0.5061  1.1934 -0.1207
  106OSM    C8F10863   6.617   4.254   9.511  0.1221 -0.1418 -0.6942
  106OSM    H8F10864   6.676   4.178   9.567 -1.2804 -2.1596 -1.9069
  106OSM    H8G10865   6.693   4.326   9.473 -0.5120 -0.0173 -1.7261
  106OSM    C9F10866   6.526   4.208   9.401 -0.4602 -0.1019 -0.3397
  106OSM    H9F10867   6.454   4.128   9.420  3.0858 -3.8293 -1.7689
  106OSM   C10F10868   6.537   4.248   9.276 -0.0010  0.1975  0.3478
  106OSM   H10F10869   6.465   4.219   9.197 -1.7703  1.2437  1.5281
  106OSM   C11F10870   6.635   4.341   9.219  0.1793  0.3390  0.3358
  106OSM   H11F10871   6.718   4.278   9.181 -0.2564  0.4391 -0.8095
  106OSM   H11G10872   6.674   4.408   9.298 -2.2684  1.1920  0.8801
  106OSM   C12F10873   6.580   4.423   9.107  0.1125  0.0129 -0.0848
  106OSM   H12F10874   6.498   4.488   9.145  0.1414  0.0499 -0.0862
  106OSM   H12G10875   6.557   4.353   9.024  1.3980  0.8499 -1.1741
  106OSM   C13F10876   6.696   4.499   9.045 -0.2013  0.0888 -0.2652
  106OSM   H13F10877   6.781   4.429   9.036  0.9063  1.3161  0.4593
  106OSM   H13G10878   6.732   4.583   9.108  4.1242 -2.5501  0.9733
  106OSM   C14F10879   6.666   4.545   8.913 -0.5103  0.3411  0.3156
  106OSM   H14F10880   6.603   4.634   8.933  1.7117  2.8807 -3.4342
  106OSM   H14G10881   6.603   4.478   8.851 -0.4398  2.1885 -1.8086
  106OSM   C15F10882   6.780   4.588   8.826 -0.3883  0.8375  0.7570
  106OSM   H15F10883   6.738   4.632   8.733 -0.3026 -0.2296  0.2142
  106OSM   H15G10884   6.842   4.500   8.798 -0.6481  0.9170 -0.1014
  106OSM   C16F10885   6.861   4.694   8.903  0.5508 -0.2786  0.0466
  106OSM   H16F10886   6.904   4.635   8.986 -0.5077 -1.0966  0.0223
  106OSM   H16G10887   6.793   4.774   8.940 -0.3898 -0.6374 -0.8663
  106OSM   C17F10888   6.960   4.763   8.808 -0.2742  0.3481 -0.0889
  106OSM   H17F10889   6.969   4.873   8.825 -0.2708  0.1134  1.4513
  106OSM   H17G10890   6.917   4.771   8.706  1.6868 -0.5787 -1.0190
  106OSM   C18F10891   7.098   4.703   8.825 -0.4083  0.9712  0.2223
  106OSM   H18F10892   7.108   4.607   8.770  0.9227  1.5059 -0.4796
  106OSM   H18G10893   7.113   4.687   8.934  1.6581 -0.7810 -0.2842
  106OSM   H18H10894   7.167   4.781   8.788  1.0039 -0.8012 -0.9507
  107OSM      N10895   2.630   2.385  11.317  0.1165 -0.4301  0.2708
  107OSM    C1510896   2.739   2.481  11.328 -0.4274  1.0775  0.0649
  107OSM   H15A10897   2.808   2.437  11.400 -0.5838  1.1104  0.2349
  107OSM   H15B10898   2.705   2.577  11.362  0.2912  1.5385 -0.5103
  107OSM   H15C10899   2.781   2.488  11.229 -2.5199 -0.8652 -0.9947
  107OSM    C1410900   2.682   2.260  11.245  0.3367  0.1944  0.0603
  107OSM   H14A10901   2.607   2.189  11.214 -0.2057  0.3721  0.9596
  107OSM   H14B10902   2.756   2.207  11.303 -0.2908 -0.1089  0.5920
  107OSM   H14C10903   2.730   2.294  11.154  1.3306  0.2772  0.6017
  107OSM    C1310904   2.586   2.338  11.457  0.1347 -0.0653  0.0770
  107OSM   H13A10905   2.667   2.288  11.509 -0.7249 -1.4279  0.1265
  107OSM   H13B10906   2.517   2.256  11.448 -0.9364  0.8760 -0.3440
  107OSM   H13C10907   2.537   2.418  11.511 -1.2833 -0.7826 -0.1407
  107OSM    C1210908   2.515   2.453  11.242 -0.8753  0.4573  0.7626
  107OSM   H12A10909   2.476   2.534  11.301  0.6056  1.0976  0.9012
  107OSM   H12B10910   2.454   2.367  11.219  0.4696 -0.5119  0.7711
  107OSM    C1110911   2.555   2.502  11.103  0.4261  0.1623 -0.1530
  107OSM   H11A10912   2.623   2.591  11.105  0.8580 -0.1353 -1.1738
  107OSM   H11B10913   2.462   2.554  11.070 -1.1502 -1.6543  1.3309
  107OSM      P10914   2.506   2.329  10.926  0.0291  0.1899  0.1739
  107OSM    O1310915   2.573   2.214  10.858  0.3249 -0.4925  0.0900
  107OSM    O1410916   2.379   2.298  11.003 -0.0345 -0.0316 -0.1945
  107OSM    O1110917   2.468   2.437  10.822 -0.0579 -0.5667  0.1057
  107OSM    O1210918   2.605   2.396  11.023  0.1097 -0.3777  0.4784
  107OSM    C1S10919   2.568   2.521  10.754  0.0582  1.1048 -1.1453
  107OSM    H1S10920   2.668   2.475  10.744 -0.5893 -0.9662  1.2903
  107OSM    H1T10921   2.577   2.615  10.813  1.4704 -0.7095  1.6950
  107OSM     NF10922   2.638   2.606  10.531  0.2580 -0.5599 -0.6036
  107OSM    HNF10923   2.642   2.705  10.522  0.7335 -0.6276 -1.1641
  107OSM    C2S10924   2.527   2.541  10.605 -0.1931  0.7950  0.8428
  107OSM    H2S10925   2.510   2.439  10.563  0.1719  1.7114 -1.5947
  107OSM    C3S10926   2.390   2.605  10.594 -0.1524 -0.6674 -0.5560
  107OSM    H3S10927   2.395   2.710  10.629  0.6436 -1.0603  0.5282
  107OSM     O310928   2.284   2.544  10.675  0.3719  0.2451 -1.0290
  107OSM    HO310929   2.341   2.491  10.731 -0.2124  2.0249  1.3480
  107OSM    C4S10930   2.342   2.612  10.448 -0.5483  0.5839  0.2257
  107OSM    H4S10931   2.282   2.522  10.428 -0.6852  0.3504  1.6128
  107OSM    C5S10932   2.344   2.719  10.366  0.8494  0.3614 -0.7147
  107OSM    H5S10933   2.388   2.814  10.401  0.5241  1.4762 -3.2126
  107OSM    C6S10934   2.275   2.735  10.236 -0.2687  0.3516 -0.5271
  107OSM    H6S10935   2.318   2.812  10.169 -0.3425  1.0199  0.1845
  107OSM    H6T10936   2.173   2.772  10.261  0.0496 -0.3025  1.8307
  107OSM    C7S10937   2.256   2.599  10.168  0.3877  0.2375  0.3330
  107OSM    H7S10938   2.183   2.536  10.223  0.7514 -0.0439  0.4937
  107OSM    H7T10939   2.355   2.548  10.164  0.8456  1.0782  0.6054
  107OSM    C8S10940   2.208   2.621  10.022 -0.5032  0.9463 -0.0212
  107OSM    H8S10941   2.226   2.727   9.995  0.1197  1.5634  2.6841
  107OSM    H8T10942   2.098   2.603  10.023 -0.2652 -0.4928  0.8585
  107OSM    C9S10943   2.269   2.527   9.920 -0.2362 -0.5936  0.3735
  107OSM    H9S10944   2.377   2.545   9.903 -0.4738 -0.0009 -0.5351
  107OSM    H9T10945   2.222   2.550   9.822  0.7245 -0.2698 -0.0179
  107OSM   C10S10946   2.244   2.380   9.940 -0.1270 -0.3997  0.5603
  107OSM   H10S10947   2.137   2.361   9.915 -0.7651  0.7299  2.3777
  107OSM   H10T10948   2.254   2.350  10.047  1.2139  1.6108  1.0062
  107OSM   C11S10949   2.344   2.306   9.839 -0.1989 -0.1412  0.1828
  107OSM   H11S10950   2.348   2.202   9.877 -2.8029 -1.5610 -3.1798
  107OSM   H11T10951   2.444   2.354   9.845  0.5495 -2.0070  4.4504
  107OSM   C12S10952   2.302   2.307   9.692  0.5712  0.3272  0.4484
  107OSM   H12S10953   2.266   2.410   9.670 -2.1162 -0.3462  1.4605
  107OSM   H12T10954   2.205   2.252   9.696  1.1251 -0.9105 -2.0220
  107OSM   C13S10955   2.394   2.260   9.575 -0.4380  0.2129  0.0519
  107OSM   H13S10956   2.426   2.155   9.590 -2.9720 -0.5278  0.6270
  107OSM   H13T10957   2.481   2.328   9.571  0.4903 -1.0478 -1.4952
  107OSM   C14S10958   2.332   2.268   9.435  0.1402 -0.6332  0.3514
  107OSM   H14S10959   2.297   2.371   9.416 -0.8765 -0.6804  1.9183
  107OSM   H14T10960   2.243   2.204   9.421  0.6082 -0.9855 -1.1466
  107OSM   C15S10961   2.428   2.231   9.321 -0.5867 -0.0621  0.2735
  107OSM   H15S10962   2.439   2.121   9.328 -0.8124 -0.0158  1.5882
  107OSM   H15T10963   2.522   2.286   9.341  0.3940 -1.5703 -0.1326
  107OSM   C16S10964   2.383   2.280   9.184  0.1460  0.0682  0.3717
  107OSM   H16S10965   2.363   2.389   9.182 -1.4269 -0.2374 -1.2415
  107OSM   H16T10966   2.297   2.216   9.155  0.2917  0.8608 -1.9058
  107OSM   C17S10967   2.484   2.244   9.074  0.3448 -0.7584 -0.5023
  107OSM   H17S10968   2.512   2.138   9.090 -0.4419 -0.7794  0.8347
  107OSM   H17T10969   2.575   2.306   9.090 -0.1047  0.4805 -2.6604
  107OSM   C18S10970   2.439   2.272   8.930 -0.3354  0.2001 -0.0993
  107OSM   H18S10971   2.355   2.207   8.897  0.6178 -1.5322  0.8145
  107OSM   H18T10972   2.535   2.257   8.876 -0.0541  0.7026  0.2553
  107OSM   H18U10973   2.415   2.380   8.922 -1.8775 -0.2117 -1.4044
  107OSM    C1F10974   2.749   2.544  10.499 -0.3337 -0.5557 -0.1450
  107OSM     OF10975   2.773   2.428  10.535  0.6192 -0.1251  0.8537
  107OSM    C2F10976   2.842   2.629  10.417 -0.3397 -0.0854 -0.0161
  107OSM    H2F10977   2.930   2.644  10.483  0.3481 -0.5846 -0.8191
  107OSM    H2G10978   2.793   2.721  10.378  0.9891 -0.5272 -2.9030
  107OSM    C3F10979   2.888   2.551  10.292  0.2061 -0.9386 -0.0908
  107OSM    H3F10980   2.803   2.514  10.230  0.1852 -3.6280  1.4356
  107OSM    H3G10981   2.935   2.462  10.340  1.8204  0.2620  0.5851
  107OSM    C4F10982   2.978   2.639  10.199  0.1315  0.1767 -0.6382
  107OSM    H4F10983   3.065   2.686  10.250 -0.4086  0.7572 -0.2492
  107OSM    H4G10984   2.907   2.721  10.175 -2.5122 -2.3604 -1.6967
  107OSM    C5F10985   3.032   2.561  10.079 -0.4638  0.1538  0.3029
  107OSM    H5F10986   2.957   2.499  10.025  0.4909 -0.0076 -0.8752
  107OSM    H5G10987   3.107   2.486  10.112 -0.3212  0.3229  0.3638
  107OSM    C6F10988   3.104   2.655   9.981 -0.1030 -0.8194  0.2345
  107OSM    H6F10989   3.200   2.676  10.033 -0.2614 -4.0785  1.9771
  107OSM    H6G10990   3.054   2.750   9.954  2.4550 -0.3834 -3.4485
  107OSM    C7F10991   3.128   2.589   9.842 -0.0296  0.3751 -0.0274
  107OSM    H7F10992   3.024   2.556   9.820 -0.3887  0.3116  1.6638
  107OSM    H7G10993   3.186   2.494   9.848 -0.9589 -0.2924 -1.4196
  107OSM    C8F10994   3.169   2.696   9.734 -0.2373 -0.0059  0.5562
  107OSM    H8F10995   3.099   2.781   9.749  0.8397  1.2261 -1.3308
  107OSM    H8G10996   3.130   2.651   9.641 -2.5139  2.6494  0.1791
  107OSM    C9F10997   3.310   2.736   9.742  0.0044 -0.3540 -0.1454
  107OSM    H9F10998   3.335   2.808   9.821  0.2003 -0.2773 -0.2747
  107OSM   C10F10999   3.398   2.705   9.646  0.5811  0.2001 -0.1437
  107OSM   H10F11000   3.496   2.755   9.642  0.9015 -0.4295 -0.1932
  107OSM   C11F11001   3.377   2.617   9.520  0.1777  0.1581  0.2641
  107OSM   H11F11002   3.273   2.580   9.515  0.6683 -1.2529  0.2027
  107OSM   H11G11003   3.456   2.539   9.519 -0.5711 -0.5831 -1.5314
  107OSM   C12F11004   3.381   2.700   9.389  0.0347  0.3806 -0.5907
  107OSM   H12F11005   3.484   2.717   9.351 -0.0565  0.2332 -0.8979
  107OSM   H12G11006   3.337   2.801   9.407 -0.1498  0.3793 -1.0378
  107OSM   C13F11007   3.294   2.639   9.273  0.8633  0.4836  0.1649
  107OSM   H13F11008   3.187   2.620   9.296  0.9800 -0.5681 -0.1269
  107OSM   H13G11009   3.336   2.536   9.265 -1.0448 -0.1872 -1.7110
  107OSM   C14F11010   3.314   2.713   9.137  0.1871  0.4598  0.5219
  107OSM   H14F11011   3.291   2.647   9.052  1.1794 -0.8122  1.2278
  107OSM   H14G11012   3.422   2.737   9.126  0.2401 -0.3372 -0.6947
  107OSM   C15F11013   3.239   2.840   9.108  0.3202 -0.5423  0.2846
  107OSM   H15F11014   3.295   2.930   9.141  0.5907 -1.2097  1.6797
  107OSM   H15G11015   3.148   2.843   9.171 -0.8346  1.8395 -1.3986
  107OSM   C16F11016   3.199   2.848   8.954 -0.5700 -0.3725  0.6586
  107OSM   H16F11017   3.165   2.746   8.927  3.2174 -1.3298 -0.8356
  107OSM   H16G11018   3.291   2.859   8.892 -2.4633  0.1259 -2.1703
  107OSM   C17F11019   3.106   2.968   8.925  0.0599 -0.3209 -0.1257
  107OSM   H17F11020   3.077   2.984   8.819 -1.5340 -1.3381  0.1347
  107OSM   H17G11021   3.154   3.064   8.954  0.1805 -0.2023 -0.7195
  107OSM   C18F11022   2.959   2.945   8.985 -0.1573  0.1396 -0.6871
  107OSM   H18F11023   2.881   3.015   8.947  1.2108  1.1394 -1.7014
  107OSM   H18G11024   2.967   2.967   9.094  2.5924  0.7622 -0.9870
  107OSM   H18H11025   2.930   2.840   8.969  0.1347 -0.0909  0.2487
  108OSM      N11026   6.456   4.132  10.712  0.6689  0.3063 -0.2297
  108OSM    C1511027   6.504   4.127  10.571  0.4001 -0.2810  0.2236
  108OSM   H15A11028   6.561   4.209  10.531  1.5484 -1.3932 -0.4603
  108OSM   H15B11029   6.425   4.095  10.506 -0.0947  0.4822  0.4448
  108OSM   H15C11030   6.585   4.056  10.558  1.3454  0.7120  0.6367
  108OSM    C1411031   6.398   4.265  10.742  0.2995 -0.6928  0.0388
  108OSM   H14A11032   6.381   4.277  10.847  0.3966 -0.8732  0.0753
  108OSM   H14B11033   6.309   4.302  10.694  0.2587  1.0228  1.3974
  108OSM   H14C11034   6.475   4.335  10.711 -0.8868  0.0097 -1.3904
  108OSM    C1311035   6.354   4.030  10.740  0.6894  0.0144 -0.3008
  108OSM   H13A11036   6.256   4.046  10.698 -0.1384  1.0223  1.9621
  108OSM   H13B11037   6.330   4.020  10.845  0.4935  1.7339 -0.1666
  108OSM   H13C11038   6.393   3.937  10.701  0.9979 -0.4744  1.1394
  108OSM    C1211039   6.585   4.114  10.796  0.0025  0.4823 -0.1323
  108OSM   H12A11040   6.558   4.130  10.899  0.5031 -1.4035  0.3254
  108OSM   H12B11041   6.655   4.194  10.781  0.7807  0.2452  2.0494
  108OSM    C1111042   6.655   3.973  10.794 -0.3248 -0.5322 -0.4175
  108OSM   H11A11043   6.586   3.900  10.841  2.4862 -1.2000  2.9001
  108OSM   H11B11044   6.749   3.984  10.852 -0.5166  0.7370 -0.3338
  108OSM      P11045   6.764   3.808  10.629  0.5913 -0.1075  0.3171
  108OSM    O1311046   6.816   3.817  10.490 -0.2630  0.3246  0.3617
  108OSM    O1411047   6.871   3.781  10.734  0.1045 -0.3909 -0.2136
  108OSM    O1111048   6.663   3.689  10.637 -0.5089  0.3568  0.5316
  108OSM    O1211049   6.689   3.940  10.660  0.3161 -0.1921  0.3019
  108OSM    C1S11050   6.536   3.712  10.577  0.2537 -0.2154  0.4060
  108OSM    H1S11051   6.516   3.817  10.544  2.7301  0.6282  1.5134
  108OSM    H1T11052   6.464   3.694  10.659  1.3398 -3.1026  0.7800
  108OSM     NF11053   6.370   3.672  10.390  0.3945 -0.4628  0.3198
  108OSM    HNF11054   6.285   3.621  10.401  0.1478 -0.0141  0.4885
  108OSM    C2S11055   6.497   3.621  10.451  0.0319 -0.0948  1.0384
  108OSM    H2S11056   6.578   3.636  10.377  0.3577  0.0766  1.4348
  108OSM    C3S11057   6.498   3.470  10.493 -0.2973 -0.3535  0.5585
  108OSM    H3S11058   6.430   3.460  10.580 -0.0500 -2.1600  0.5610
  108OSM     O311059   6.631   3.423  10.514  0.8286  0.0485  0.4624
  108OSM    HO311060   6.686   3.501  10.512  1.3713 -0.3695 -1.4314
  108OSM    C4S11061   6.439   3.383  10.378 -0.0290  0.3680  0.3436
  108OSM    H4S11062   6.493   3.359  10.286 -0.0939  0.9964  0.1349
  108OSM    C5S11063   6.318   3.326  10.384 -0.0633 -0.1680 -0.1671
  108OSM    H5S11064   6.266   3.334  10.480 -1.2303 -2.3660 -0.5823
  108OSM    C6S11065   6.247   3.248  10.275 -0.1107 -0.2427 -0.0459
  108OSM    H6S11066   6.138   3.259  10.290 -0.4212  0.7549 -2.7012
  108OSM    H6T11067   6.290   3.145  10.278 -0.1120 -0.2081  1.2729
  108OSM    C7S11068   6.290   3.304  10.136 -0.8674 -0.4183  0.0369
  108OSM    H7S11069   6.399   3.297  10.120 -0.4926  3.1004  0.8084
  108OSM    H7T11070   6.267   3.412  10.139  1.0724  0.1162 -2.8622
  108OSM    C8S11071   6.209   3.241  10.025  0.2182 -0.3282  0.3351
  108OSM    H8S11072   6.105   3.279  10.033  0.5575  0.4803  0.9601
  108OSM    H8T11073   6.188   3.133  10.043  4.0656 -0.9557  1.4792
  108OSM    C9S11074   6.257   3.269   9.880  0.1598  0.4095 -0.1074
  108OSM    H9S11075   6.360   3.233   9.861 -0.9854 -1.5921 -2.9227
  108OSM    H9T11076   6.251   3.379   9.867  2.0313  0.6687  0.9806
  108OSM   C10S11077   6.173   3.211   9.765  0.0922 -0.1356  0.6197
  108OSM   H10S11078   6.068   3.246   9.780  0.4933  1.6759 -0.7440
  108OSM   H10T11079   6.167   3.100   9.776 -0.6416 -0.0841  0.7855
  108OSM   C11S11080   6.230   3.240   9.624  0.0052  0.4611  1.1665
  108OSM   H11S11081   6.335   3.204   9.625  0.3620  1.5178  2.5333
  108OSM   H11T11082   6.237   3.346   9.592  0.5069 -0.3391 -1.5282
  108OSM   C12S11083   6.151   3.173   9.505  0.0950  0.6709  0.4556
  108OSM   H12S11084   6.046   3.181   9.541 -0.3044 -3.5385  0.4050
  108OSM   H12T11085   6.169   3.064   9.499 -1.5261  0.3819  0.5291
  108OSM   C13S11086   6.165   3.244   9.364 -0.0140  1.2914  0.4737
  108OSM   H13S11087   6.180   3.354   9.373  2.4446  0.7772  3.5799
  108OSM   H13T11088   6.067   3.222   9.317  0.0878  0.8762  0.4534
  108OSM   C14S11089   6.270   3.185   9.269 -0.1451  0.2131  0.1808
  108OSM   H14S11090   6.256   3.075   9.274  0.0877  0.1470 -0.5903
  108OSM   H14T11091   6.375   3.208   9.294 -0.2378  1.5526 -0.6187
  108OSM   C15S11092   6.244   3.211   9.122  0.0719 -0.5665 -0.4201
  108OSM   H15S11093   6.270   3.315   9.094 -1.8716 -0.0538 -0.4263
  108OSM   H15T11094   6.139   3.186   9.095  0.2884 -2.0786  0.1346
  108OSM   C16S11095   6.324   3.117   9.034  0.2672 -0.0298  0.3419
  108OSM   H16S11096   6.311   3.008   9.055  2.0713 -0.6392 -1.4532
  108OSM   H16T11097   6.431   3.148   9.033 -0.1800  1.5450 -1.1909
  108OSM   C17S11098   6.290   3.139   8.883  0.0479  0.1053  0.1562
  108OSM   H17S11099   6.306   3.247   8.863  2.0139  0.1181  1.6832
  108OSM   H17T11100   6.181   3.123   8.869  0.3994 -1.9708 -0.4453
  108OSM   C18S11101   6.364   3.057   8.778  0.1149 -0.1867  0.0192
  108OSM   H18S11102   6.474   3.055   8.798 -0.0215 -0.2121  0.7788
  108OSM   H18T11103   6.340   3.100   8.678 -1.2758 -0.9355  0.0173
  108OSM   H18U11104   6.339   2.949   8.787  1.4638 -0.4458  0.9480
  108OSM    C1F11105   6.373   3.789  10.323  0.7568  0.2497 -0.2671
  108OSM     OF11106   6.476   3.843  10.295 -0.1417  0.5014  0.3378
  108OSM    C2F11107   6.236   3.843  10.294  0.0722 -0.2894  0.1314
  108OSM    H2F11108   6.168   3.840  10.382 -1.0245  2.3394 -0.5718
  108OSM    H2G11109   6.192   3.775  10.218  1.7917  0.0439 -1.1668
  108OSM    C3F11110   6.232   3.990  10.255  0.6124 -0.2698  0.3292
  108OSM    H3F11111   6.295   4.000  10.164 -0.9037  1.7705 -0.5545
  108OSM    H3G11112   6.283   4.037  10.342  0.5739 -1.6185  1.0950
  108OSM    C4F11113   6.091   4.045  10.230 -0.4454 -0.3312  0.0884
  108OSM    H4F11114   6.089   4.154  10.249 -0.3059 -0.4632  0.9066
  108OSM    H4G11115   6.017   4.005  10.303  0.7967 -2.0646  0.4359
  108OSM    C5F11116   6.039   4.023  10.082  0.4427 -0.2360  0.2000
  108OSM    H5F11117   6.039   3.912  10.070  1.8318 -0.2935  0.6923
  108OSM    H5G11118   6.115   4.056  10.008  0.0820 -0.6543 -0.3672
  108OSM    C6F11119   5.895   4.066  10.071 -0.2298  0.2349 -0.1382
  108OSM    H6F11120   5.889   4.176  10.084 -3.0893  0.0251  0.7391
  108OSM    H6G11121   5.838   4.016  10.152 -0.3718 -1.7200 -1.4163
  108OSM    C7F11122   5.836   4.009   9.943 -0.3771 -0.0980 -0.0050
  108OSM    H7F11123   5.728   4.034   9.946 -0.4090 -0.0851 -1.0259
  108OSM    H7G11124   5.849   3.899   9.951 -1.5066 -0.1482  1.2018
  108OSM    C8F11125   5.904   4.059   9.812 -0.8339  0.4684  0.6249
  108OSM    H8F11126   6.013   4.036   9.819 -1.3014 -1.5290  1.8080
  108OSM    H8G11127   5.882   4.167   9.819 -2.0695  0.2251  0.6063
  108OSM    C9F11128   5.861   3.987   9.690 -0.2533  0.3397 -0.3593
  108OSM    H9F11129   5.890   3.881   9.680  1.3109  0.5466  1.6900
  108OSM   C10F11130   5.788   4.052   9.594  0.2520  0.0017 -0.5455
  108OSM   H10F11131   5.766   3.993   9.503  0.9296 -0.4096 -0.4545
  108OSM   C11F11132   5.732   4.194   9.581 -0.3175  0.2210  0.0218
  108OSM   H11F11133   5.764   4.255   9.494 -1.7907  1.1827  0.1364
  108OSM   H11G11134   5.758   4.260   9.667  1.2220  0.1507 -0.3659
  108OSM   C12F11135   5.576   4.199   9.559 -0.0255  0.4935 -0.4973
  108OSM   H12F11136   5.538   4.146   9.469  0.2005  3.2709 -2.2825
  108OSM   H12G11137   5.546   4.305   9.548 -0.8016  0.3834  0.4946
  108OSM   C13F11138   5.497   4.143   9.677  0.7382 -0.9656 -0.1245
  108OSM   H13F11139   5.516   4.205   9.767  1.5979 -0.1628 -0.8433
  108OSM   H13G11140   5.514   4.037   9.705  0.3190 -0.3138  2.7566
  108OSM   C14F11141   5.347   4.162   9.650  0.7767 -0.6421 -0.0047
  108OSM   H14F11142   5.307   4.108   9.561  0.3535  0.3117 -0.4005
  108OSM   H14G11143   5.346   4.272   9.635 -1.7251 -0.6967 -0.4624
  108OSM   C15F11144   5.260   4.127   9.774  0.5812 -0.6495 -0.1323
  108OSM   H15F11145   5.321   4.130   9.867 -0.5246  0.1881  0.5852
  108OSM   H15G11146   5.208   4.031   9.754 -1.6203  0.7196 -1.1794
  108OSM   C16F11147   5.149   4.233   9.806 -0.2834 -0.2963 -0.0975
  108OSM   H16F11148   5.090   4.247   9.713  1.4041  1.3316 -0.9679
  108OSM   H16G11149   5.188   4.332   9.838  2.0732 -1.0927 -0.4048
  108OSM   C17F11150   5.045   4.186   9.911  0.1612  0.5185  0.7564
  108OSM   H17F11151   5.096   4.203  10.009  1.4932  3.2457 -0.3446
  108OSM   H17G11152   5.021   4.079   9.897 -0.7044  0.9661 -1.2623
  108OSM   C18F11153   4.912   4.258   9.917  0.1390 -0.0045  0.1632
  108OSM   H18F11154   4.938   4.360   9.953 -0.5453 -0.3558  1.7197
  108OSM   H18G11155   4.834   4.216   9.984  1.2674 -2.3771  0.0483
  108OSM   H18H11156   4.870   4.263   9.815  1.2070 -3.1788 -0.4693
  109OSM      N11157   4.586   2.815  11.196  0.1670 -0.3405 -0.1034
  109OSM    C1511158   4.591   2.685  11.275  0.6853 -0.2300 -0.0802
  109OSM   H15A11159   4.566   2.691  11.380 -1.5658 -2.3961 -0.4406
  109OSM   H15B11160   4.688   2.640  11.272  0.9823  0.3741  0.4191
  109OSM   H15C11161   4.521   2.614  11.234  1.3629 -2.0111  1.8310
  109OSM    C1411162   4.450   2.826  11.145  0.1673  0.1066  0.3501
  109OSM   H14A11163   4.446   2.896  11.063 -4.0077  0.6806  0.9149
  109OSM   H14B11164   4.368   2.850  11.211  1.8050  2.0896  1.7291
  109OSM   H14C11165   4.418   2.736  11.093 -0.1750  0.0902  0.5864
  109OSM    C1311166   4.630   2.926  11.286 -0.0238 -0.6388  0.0034
  109OSM   H13A11167   4.624   3.025  11.244 -1.2899 -0.2608  1.0180
  109OSM   H13B11168   4.731   2.903  11.314 -0.6611 -2.1044  1.1664
  109OSM   H13C11169   4.573   2.928  11.378  0.8413 -0.2522  0.5259
  109OSM    C1211170   4.679   2.807  11.076 -0.2972 -0.0283 -0.7187
  109OSM   H12A11171   4.781   2.814  11.111 -0.6680  1.9550  0.0401
  109OSM   H12B11172   4.679   2.892  11.008  2.6746 -0.5614 -1.4719
  109OSM    C1111173   4.680   2.688  10.987  0.6821 -0.1636 -0.6841
  109OSM   H11A11174   4.730   2.709  10.890  1.9637 -1.0187 -0.2302
  109OSM   H11B11175   4.578   2.649  10.967  0.3632  0.3799 -0.1402
  109OSM      P11176   4.908   2.580  11.047  0.1379  0.1456 -0.0158
  109OSM    O1311177   4.965   2.715  11.029  0.0046  0.5586  0.1382
  109OSM    O1411178   4.949   2.512  11.167 -0.4063  0.8980  0.7583
  109OSM    O1111179   4.940   2.496  10.916  0.2800  0.3269 -0.6903
  109OSM    O1211180   4.747   2.583  11.052  0.1228 -0.4186 -0.1513
  109OSM    C1S11181   4.967   2.561  10.798  0.4714  0.1592 -0.3971
  109OSM    H1S11182   5.078   2.568  10.790  0.5164 -0.2923 -0.1899
  109OSM    H1T11183   4.911   2.657  10.787  1.1239  0.5991  0.0440
  109OSM     NF11184   4.991   2.531  10.559 -0.4621  0.0139 -0.1201
  109OSM    HNF11185   4.961   2.616  10.516 -2.3505  0.2008  1.4800
  109OSM    C2S11186   4.917   2.484  10.672  0.9105  0.2874 -0.1471
  109OSM    H2S11187   4.941   2.377  10.688 -1.5894  0.1008  2.8759
  109OSM    C3S11188   4.769   2.498  10.647 -0.4126 -0.5143 -0.5508
  109OSM    H3S11189   4.743   2.604  10.625 -1.0536 -0.7020 -0.7208
  109OSM     O311190   4.693   2.469  10.761 -0.1487  0.0811  0.0130
  109OSM    HO311191   4.758   2.474  10.831 -1.7711  1.3755  1.4725
  109OSM    C4S11192   4.726   2.416  10.521  0.3313 -0.1618 -0.6958
  109OSM    H4S11193   4.721   2.307  10.537  1.2281  0.1462  1.9272
  109OSM    C5S11194   4.687   2.463  10.402 -0.1153 -0.3416 -0.4433
  109OSM    H5S11195   4.674   2.572  10.393 -0.1861 -0.0171  2.7783
  109OSM    C6S11196   4.656   2.376  10.287 -0.2042  0.9736  0.5316
  109OSM    H6S11197   4.574   2.418  10.226  0.8323  0.8910 -0.9604
  109OSM    H6T11198   4.632   2.270  10.313 -0.6190  1.1307  0.7767
  109OSM    C7S11199   4.774   2.366  10.185 -0.4065  0.3791  0.4133
  109OSM    H7S11200   4.871   2.325  10.220 -0.6183 -0.8172 -0.3722
  109OSM    H7T11201   4.793   2.463  10.133 -2.4288  1.1063  0.9929
  109OSM    C8S11202   4.734   2.274  10.068  0.2169  0.0762 -0.0272
  109OSM    H8S11203   4.778   2.320   9.977  2.4788 -0.8586  0.5581
  109OSM    H8T11204   4.624   2.266  10.051  0.0097  0.3022  1.2037
  109OSM    C9S11205   4.808   2.140  10.084 -0.6254 -0.4945  0.1106
  109OSM    H9S11206   4.791   2.101  10.186  0.0770  0.5647  0.6480
  109OSM    H9T11207   4.918   2.145  10.070 -0.6407 -0.5884 -0.0454
  109OSM   C10S11208   4.750   2.034   9.983  0.1020 -0.5959 -0.3580
  109OSM   H10S11209   4.650   2.009  10.025 -0.1300  0.7324 -0.0981
  109OSM   H10T11210   4.814   1.944   9.991 -0.0400 -0.6700 -0.0524
  109OSM   C11S11211   4.732   2.088   9.843  0.6441 -0.2763  0.0750
  109OSM   H11S11212   4.822   2.140   9.803 -0.1493 -0.8757 -2.6226
  109OSM   H11T11213   4.650   2.162   9.844  0.2338 -0.7175 -0.4442
  109OSM   C12S11214   4.712   1.970   9.741  0.3137 -0.4256  0.2929
  109OSM   H12S11215   4.639   1.892   9.772 -0.6148  0.9104  1.5604
  109OSM   H12T11216   4.799   1.901   9.733  1.2766  1.0786 -3.0878
  109OSM   C13S11217   4.686   2.032   9.601  0.4894  0.3625 -0.1783
  109OSM   H13S11218   4.773   2.096   9.577  0.0376  1.2233  0.4655
  109OSM   H13T11219   4.589   2.087   9.597 -1.3864 -2.6744  1.3863
  109OSM   C14S11220   4.676   1.910   9.504  0.5023 -0.4719 -0.4564
  109OSM   H14S11221   4.596   1.847   9.548 -0.6328 -0.6603 -2.7439
  109OSM   H14T11222   4.770   1.851   9.503  0.0744 -1.2113  1.5225
  109OSM   C15S11223   4.632   1.956   9.364 -1.1103 -0.2931 -0.1677
  109OSM   H15S11224   4.526   1.992   9.367 -0.5154  1.5244 -0.2154
  109OSM   H15T11225   4.626   1.864   9.304  2.1667 -1.6622  1.5153
  109OSM   C16S11226   4.720   2.056   9.293  0.5786  0.2186  0.0296
  109OSM   H16S11227   4.820   2.008   9.301  0.9468  1.0370  0.3692
  109OSM   H16T11228   4.732   2.149   9.353  0.0117  1.0432 -1.1392
  109OSM   C17S11229   4.679   2.085   9.145 -0.7606  0.4292  0.1801
  109OSM   H17S11230   4.572   2.113   9.155 -0.9377 -0.5699  1.1734
  109OSM   H17T11231   4.696   1.989   9.091 -0.8461  1.7302 -2.2594
  109OSM   C18S11232   4.762   2.198   9.097  0.0579 -0.3831  0.8914
  109OSM   H18S11233   4.869   2.170   9.091  1.3037  3.9981  1.1770
  109OSM   H18T11234   4.746   2.279   9.172 -1.4376 -1.4497  1.7583
  109OSM   H18U11235   4.720   2.237   9.002  0.4921  0.1399  0.9120
  109OSM    C1F11236   5.110   2.479  10.514 -0.2025 -1.0284  0.3322
  109OSM     OF11237   5.164   2.382  10.571  0.3369 -0.1783  0.0040
  109OSM    C2F11238   5.157   2.528  10.373  0.7702 -0.5538  0.7695
  109OSM    H2F11239   5.167   2.437  10.310  0.4283  1.7818 -2.7748
  109OSM    H2G11240   5.258   2.574  10.372 -0.1353  1.4718  0.0749
  109OSM    C3F11241   5.058   2.624  10.303 -0.5080  0.2362  0.7138
  109OSM    H3F11242   5.057   2.719  10.362  1.1789  1.1115 -0.6297
  109OSM    H3G11243   4.952   2.591  10.295 -0.1254 -0.3968 -2.6204
  109OSM    C4F11244   5.105   2.662  10.159  0.3110  0.5657  0.2769
  109OSM    H4F11245   5.205   2.710  10.151  0.4256 -0.0859 -2.6732
  109OSM    H4G11246   5.045   2.755  10.151  0.9374  1.0193  0.8747
  109OSM    C5F11247   5.074   2.560  10.061 -0.3059  0.5211 -0.6283
  109OSM    H5F11248   4.964   2.549  10.052 -0.1156 -0.2771 -2.1203
  109OSM    H5G11249   5.121   2.465  10.095 -0.2823  0.7727  0.0511
  109OSM    C6F11250   5.139   2.588   9.923 -0.5033 -0.0874 -0.9394
  109OSM    H6F11251   5.245   2.621   9.931 -0.7977  1.1721 -2.1834
  109OSM    H6G11252   5.083   2.672   9.878  1.9716  1.5539 -1.0130
  109OSM    C7F11253   5.123   2.458   9.839 -0.1022  0.3438  0.3006
  109OSM    H7F11254   5.020   2.421   9.859 -0.5766  2.2046  1.4972
  109OSM    H7G11255   5.188   2.384   9.889  1.8005  1.3451 -0.6467
  109OSM    C8F11256   5.153   2.471   9.690  0.1784 -0.1884 -0.0666
  109OSM    H8F11257   5.259   2.498   9.666  0.3834 -0.4738  0.5194
  109OSM    H8G11258   5.084   2.547   9.647 -0.7325  0.4918  2.5126
  109OSM    C9F11259   5.133   2.334   9.622  0.0118  0.0862 -0.5390
  109OSM    H9F11260   5.145   2.246   9.687 -0.4996 -0.0264 -0.5940
  109OSM   C10F11261   5.087   2.313   9.498  0.3524 -0.7347  0.1910
  109OSM   H10F11262   5.057   2.212   9.467 -0.6494 -0.0779 -1.0271
  109OSM   C11F11263   5.067   2.425   9.404 -0.2675 -0.2927 -0.2599
  109OSM   H11F11264   5.096   2.524   9.445 -2.3210  1.3329 -2.5834
  109OSM   H11G11265   4.959   2.438   9.383 -0.4317 -4.4073 -2.4223
  109OSM   C12F11266   5.146   2.406   9.278  0.0960 -0.3548  0.0997
  109OSM   H12F11267   5.136   2.301   9.241  0.7805  0.0290 -1.2253
  109OSM   H12G11268   5.255   2.414   9.301 -0.3933  0.8551  2.0741
  109OSM   C13F11269   5.100   2.504   9.172 -0.3004  0.2362 -0.2309
  109OSM   H13F11270   5.100   2.598   9.231  1.0255  0.1632 -0.1078
  109OSM   H13G11271   5.006   2.492   9.114  0.1293  0.6684 -1.0131
  109OSM   C14F11272   5.219   2.525   9.070  0.0559 -1.0147  1.1101
  109OSM   H14F11273   5.247   2.430   9.020 -3.3838 -1.6184  0.1717
  109OSM   H14G11274   5.310   2.556   9.126  0.5464 -0.5580  0.0662
  109OSM   C15F11275   5.190   2.614   8.944  0.8132  0.0007  0.3166
  109OSM   H15F11276   5.198   2.720   8.977 -0.1331 -0.0904  0.8456
  109OSM   H15G11277   5.084   2.591   8.919  0.2767  0.0585  2.4654
  109OSM   C16F11278   5.282   2.587   8.820 -0.2678  0.9038 -0.8039
  109OSM   H16F11279   5.268   2.479   8.798 -0.4137  0.2899  2.1236
  109OSM   H16G11280   5.389   2.610   8.842  0.2620 -2.5110  0.4071
  109OSM   C17F11281   5.239   2.673   8.704  0.4769  0.5207  0.4731
  109OSM   H17F11282   5.250   2.780   8.732  1.9075  0.9878 -1.6985
  109OSM   H17G11283   5.138   2.642   8.669  1.3082 -1.4410 -0.2679
  109OSM   C18F11284   5.337   2.658   8.588 -0.6155  0.3253 -0.3463
  109OSM   H18F11285   5.348   2.552   8.556 -0.0250  0.3255 -0.1489
  109OSM   H18G11286   5.439   2.689   8.618 -0.8477  1.2784 -0.5307
  109OSM   H18H11287   5.312   2.726   8.503  0.8928 -0.2264 -1.2467
  110OSM      N11288   0.108   1.053  11.129  0.0142 -0.2719 -0.1671
  110OSM    C1511289   0.128   1.196  11.178 -0.2817  0.2469 -0.1127
  110OSM   H15A11290   0.116   1.198  11.285 -0.6844 -0.5222 -0.1430
  110OSM   H15B11291   0.052   1.254  11.127 -1.2533  0.5133  1.5992
  110OSM   H15C11292   0.224   1.232  11.145 -0.4457  1.4671  0.7234
  110OSM    C1411293   0.246   1.000  11.114 -0.5948 -0.6502  0.1270
  110OSM   H14A11294   0.299   1.029  11.204  0.1466 -1.4617 -0.0472
  110OSM   H14B11295   0.278   1.042  11.020 -1.2408  0.7802  0.5346
  110OSM   H14C11296   0.262   0.893  11.108 -1.0661 -0.7654  0.7520
  110OSM    C1311297   0.018   0.987  11.228 -0.1925 -0.0408  0.3634
  110OSM   H13A11298  -0.016   0.901  11.173 -1.5651  0.7182  0.0244
  110OSM   H13B11299  -0.069   1.043  11.256  0.0391  1.3172 -1.5357
  110OSM   H13C11300   0.070   0.953  11.317  2.0437  1.4646 -0.3241
  110OSM    C1211301   0.056   1.060  10.989  0.3510 -0.2622 -0.0363
  110OSM   H12A11302   0.116   1.109  10.914  1.3059  0.5561  1.2369
  110OSM   H12B11303  -0.035   1.118  10.988 -0.3245 -1.3073  0.0554
  110OSM    C1111304   0.029   0.924  10.928  0.6340  0.4684 -0.0987
  110OSM   H11A11305   0.105   0.851  10.963  0.9941  0.3185 -1.1899
  110OSM   H11B11306   0.029   0.921  10.817  2.1882  1.4559 -0.1443
  110OSM      P11307  -0.228   0.950  10.947  0.0879 -0.0983 -0.0352
  110OSM    O1311308  -0.334   0.860  11.003 -0.5485 -0.0865 -0.2096
  110OSM    O1411309  -0.223   1.092  10.991  0.7806 -0.2846 -0.4440
  110OSM    O1111310  -0.250   0.943  10.788  0.1605  0.5932  0.8382
  110OSM    O1211311  -0.088   0.882  10.978 -0.1398  0.6640 -0.6755
  110OSM    C1S11312  -0.234   0.808  10.727 -0.0726 -0.0254  1.0043
  110OSM    H1S11313  -0.300   0.739  10.783 -0.0806 -2.2509 -1.6097
  110OSM    H1T11314  -0.127   0.780  10.724  0.3391  1.5663  0.6808
  110OSM     NF11315  -0.287   0.660  10.529  0.4144  0.5906 -0.0343
  110OSM    HNF11316  -0.215   0.632  10.466 -1.2587  0.7619 -2.0648
  110OSM    C2S11317  -0.289   0.796  10.585 -0.3205 -0.0276  0.8041
  110OSM    H2S11318  -0.394   0.832  10.593  0.2031  1.1246  2.7565
  110OSM    C3S11319  -0.207   0.891  10.491  0.1399 -0.4005 -0.5637
  110OSM    H3S11320  -0.101   0.859  10.501  0.1818 -0.7280 -2.0329
  110OSM     O311321  -0.205   1.029  10.535  0.2496 -0.0215 -0.1681
  110OSM    HO311322  -0.213   1.018  10.630 -0.1527  1.6377 -0.0062
  110OSM    C4S11323  -0.257   0.875  10.348 -0.0888 -0.2380  0.3031
  110OSM    H4S11324  -0.360   0.907  10.326 -0.0163 -0.4532 -0.3629
  110OSM    C5S11325  -0.188   0.803  10.254  0.2727 -0.0734  0.0410
  110OSM    H5S11326  -0.094   0.752  10.279  0.3029 -1.3833 -2.6176
  110OSM    C6S11327  -0.242   0.775  10.117  0.2441  0.6050  0.6128
  110OSM    H6S11328  -0.238   0.665  10.103  1.3602  0.7203 -0.1176
  110OSM    H6T11329  -0.169   0.820  10.046  1.4557 -1.4391  0.5312
  110OSM    C7S11330  -0.376   0.845  10.081  0.0723  0.7508 -0.2191
  110OSM    H7S11331  -0.383   0.946  10.127  0.3828  1.5164 -1.8068
  110OSM    H7T11332  -0.464   0.788  10.117  1.6445 -1.9262 -0.4889
  110OSM    C8S11333  -0.406   0.867   9.929  0.0185  0.4850 -0.7152
  110OSM    H8S11334  -0.420   0.767   9.881  0.8812  0.2067 -0.3914
  110OSM    H8T11335  -0.315   0.913   9.887  1.4896  1.9290  3.7901
  110OSM    C9S11336  -0.536   0.946   9.911 -0.8218 -0.2652 -0.2552
  110OSM    H9S11337  -0.531   1.043   9.966 -1.2379 -0.5333  0.2572
  110OSM    H9T11338  -0.625   0.892   9.949 -1.8595  0.4300 -1.6597
  110OSM   C10S11339  -0.555   0.976   9.761  0.4313  0.5987 -0.3516
  110OSM   H10S11340  -0.565   0.874   9.720  0.7040 -0.4633  2.1127
  110OSM   H10T11341  -0.461   1.024   9.726  1.0470 -0.7844 -0.6354
  110OSM   C11S11342  -0.678   1.057   9.724 -0.2906 -0.1614  0.0196
  110OSM   H11S11343  -0.657   1.151   9.779 -0.3986  0.0827 -0.3542
  110OSM   H11T11344  -0.775   1.011   9.754  1.6019 -3.8651  0.8474
  110OSM   C12S11345  -0.685   1.081   9.570  0.5839 -0.4975  0.7250
  110OSM   H12S11346  -0.583   1.105   9.532  0.4081 -0.8207  0.0500
  110OSM   H12T11347  -0.746   1.167   9.537  2.3399  0.8304  0.8882
  110OSM   C13S11348  -0.737   0.955   9.488 -0.3199 -0.5918 -0.8909
  110OSM   H13S11349  -0.839   0.935   9.526 -0.7908  0.1691 -1.7291
  110OSM   H13T11350  -0.675   0.866   9.511 -0.2598 -0.8237 -1.9481
  110OSM   C14S11351  -0.740   0.981   9.338 -0.1899 -0.0604  0.2148
  110OSM   H14S11352  -0.643   1.030   9.312  0.4884 -0.0445  2.6213
  110OSM   H14T11353  -0.817   1.057   9.312 -1.1385 -0.7282  1.0452
  110OSM   C15S11354  -0.772   0.858   9.254 -0.1554  0.3940  0.2656
  110OSM   H15S11355  -0.878   0.826   9.258 -0.4717  1.1249 -1.5846
  110OSM   H15T11356  -0.706   0.773   9.280 -0.3853 -0.0013 -0.4372
  110OSM   C16S11357  -0.751   0.890   9.104  0.4076 -0.3583  0.3718
  110OSM   H16S11358  -0.643   0.910   9.092  0.0919 -0.3010 -3.1167
  110OSM   H16T11359  -0.803   0.981   9.068  1.0203 -0.6156 -1.2147
  110OSM   C17S11360  -0.801   0.781   9.008 -0.6146 -0.8132 -0.8779
  110OSM   H17S11361  -0.912   0.773   9.016 -0.4402 -1.6022  1.0990
  110OSM   H17T11362  -0.770   0.679   9.040  0.0432 -0.8440 -1.6077
  110OSM   C18S11363  -0.758   0.803   8.869 -0.8198 -0.1368  0.2025
  110OSM   H18S11364  -0.649   0.811   8.851 -0.5136 -2.6783  0.8148
  110OSM   H18T11365  -0.797   0.898   8.826 -1.6847 -1.1808 -1.3677
  110OSM   H18U11366  -0.796   0.719   8.807  0.0887 -0.2461 -0.2132
  110OSM    C1F11367  -0.374   0.565  10.551 -0.1839  0.5762  0.3990
  110OSM     OF11368  -0.457   0.570  10.643  0.3439  0.3360 -0.0948
  110OSM    C2F11369  -0.358   0.441  10.465 -0.4482 -0.0965 -0.5378
  110OSM    H2F11370  -0.366   0.357  10.537  0.9326  0.2126 -0.0078
  110OSM    H2G11371  -0.261   0.435  10.410 -0.1523 -0.2699  0.0024
  110OSM    C3F11372  -0.475   0.418  10.372  0.4266  0.3243 -0.0302
  110OSM    H3F11373  -0.575   0.433  10.418  0.8105 -1.9967  1.6364
  110OSM    H3G11374  -0.475   0.312  10.340 -0.5679 -0.0743  1.2561
  110OSM    C4F11375  -0.446   0.498  10.236 -0.2381 -0.2810 -0.2986
  110OSM    H4F11376  -0.344   0.476  10.200  0.3862  1.5233  0.2976
  110OSM    H4G11377  -0.460   0.607  10.254 -0.5955 -0.4839  0.6846
  110OSM    C5F11378  -0.549   0.453  10.127 -0.2127 -0.3563  0.1592
  110OSM    H5F11379  -0.650   0.490  10.151 -0.5600 -0.6864 -0.7579
  110OSM    H5G11380  -0.553   0.342  10.131 -1.1635 -0.2668  1.9615
  110OSM    C6F11381  -0.510   0.481   9.990 -0.1580 -0.5236  0.6792
  110OSM    H6F11382  -0.429   0.414   9.956 -0.8188 -1.2413  0.5212
  110OSM    H6G11383  -0.470   0.585   9.979  0.4952 -0.7969  0.4390
  110OSM    C7F11384  -0.631   0.475   9.888  0.2361 -0.2000  0.3525
  110OSM    H7F11385  -0.698   0.556   9.922 -1.5858 -0.6072 -2.1299
  110OSM    H7G11386  -0.674   0.372   9.890 -1.4321  0.4274 -1.3775
  110OSM    C8F11387  -0.593   0.514   9.743 -0.0452 -0.4856 -0.6592
  110OSM    H8F11388  -0.554   0.618   9.745 -0.0965 -0.4794  0.5305
  110OSM    H8G11389  -0.686   0.524   9.684 -2.3050 -1.7906  2.5907
  110OSM    C9F11390  -0.500   0.417   9.668  0.0426  0.4322 -0.3252
  110OSM    H9F11391  -0.405   0.411   9.723 -0.0706  2.3276  0.0978
  110OSM   C10F11392  -0.524   0.349   9.554  0.5116 -0.0029  0.7878
  110OSM   H10F11393  -0.446   0.285   9.510  0.4886 -0.1276  0.9266
  110OSM   C11F11394  -0.658   0.354   9.480 -1.1276  0.1341 -0.9591
  110OSM   H11F11395  -0.743   0.372   9.550 -0.6645  0.0888 -0.3797
  110OSM   H11G11396  -0.666   0.257   9.427  1.1086 -0.4596 -0.2692
  110OSM   C12F11397  -0.659   0.467   9.368  0.1344  0.0685 -0.5102
  110OSM   H12F11398  -0.562   0.474   9.315 -0.1185 -1.3658 -1.1932
  110OSM   H12G11399  -0.676   0.567   9.413 -0.9483 -0.9652  1.4343
  110OSM   C13F11400  -0.767   0.455   9.260  0.0651  0.0946  0.3843
  110OSM   H13F11401  -0.796   0.556   9.223  0.8675 -0.2540 -1.2036
  110OSM   H13G11402  -0.855   0.416   9.316  1.6666 -2.1814  1.3758
  110OSM   C14F11403  -0.723   0.362   9.145 -0.3434 -0.0254 -0.1460
  110OSM   H14F11404  -0.723   0.258   9.186 -0.2233  0.7612  1.9276
  110OSM   H14G11405  -0.620   0.389   9.116 -0.7568  2.7510  0.8529
  110OSM   C15F11406  -0.818   0.357   9.027  0.5482  0.3626 -0.2177
  110OSM   H15F11407  -0.851   0.462   9.013  0.2167  0.5830  2.0826
  110OSM   H15G11408  -0.902   0.286   9.046  1.3506 -0.1732  1.4249
  110OSM   C16F11409  -0.748   0.307   8.896  0.1868  0.1074  0.2451
  110OSM   H16F11410  -0.740   0.196   8.889  4.4947  0.4435 -2.2229
  110OSM   H16G11411  -0.646   0.350   8.884  0.4360  0.0126  1.9694
  110OSM   C17F11412  -0.817   0.354   8.762  0.2332 -0.2155 -0.6346
  110OSM   H17F11413  -0.849   0.460   8.773 -2.2774 -0.9685 -0.4562
  110OSM   H17G11414  -0.911   0.296   8.756  0.0760  0.0060 -0.3408
  110OSM   C18F11415  -0.721   0.338   8.645 -0.1076 -0.3753 -0.4079
  110OSM   H18F11416  -0.768   0.399   8.565 -0.1760 -0.7176 -0.6325
  110OSM   H18G11417  -0.712   0.228   8.627  0.0311 -0.6645  1.3797
  110OSM   H18H11418  -0.622   0.380   8.672 -0.7088 -0.0389  1.3433
  111OSM      N11419   6.755   4.749  10.891 -0.3564 -0.5451 -0.5233
  111OSM    C1511420   6.661   4.634  10.908  0.4756 -0.3266 -0.7573
  111OSM   H15A11421   6.561   4.670  10.924  0.8733 -0.5683  2.7514
  111OSM   H15B11422   6.676   4.575  10.997 -0.2355 -1.3102 -1.2877
  111OSM   H15C11423   6.666   4.561  10.828  1.2598 -1.5855  0.4061
  111OSM    C1411424   6.726   4.849  10.997  0.4280 -0.3820  0.2483
  111OSM   H14A11425   6.786   4.936  10.972 -1.3061  1.2559  1.6274
  111OSM   H14B11426   6.742   4.806  11.095 -0.5180 -1.2932  0.0001
  111OSM   H14C11427   6.626   4.890  11.002  0.2279 -0.8695  0.2008
  111OSM    C1311428   6.891   4.695  10.916 -0.3048 -0.7667  0.0852
  111OSM   H13A11429   6.890   4.639  11.009 -1.6544 -1.4701 -0.3341
  111OSM   H13B11430   6.965   4.771  10.936  0.9338 -2.1754  0.9661
  111OSM   H13C11431   6.924   4.615  10.851  1.0557 -0.9696  1.0069
  111OSM    C1211432   6.749   4.817  10.755 -0.2408  0.8808 -0.1804
  111OSM   H12A11433   6.654   4.866  10.744  0.5830  2.3120 -1.0794
  111OSM   H12B11434   6.754   4.738  10.681  0.2057  0.3609  0.3954
  111OSM    C1111435   6.850   4.924  10.718 -0.6529 -0.4081 -0.5647
  111OSM   H11A11436   6.843   4.967  10.615 -0.6950 -0.1212 -0.4427
  111OSM   H11B11437   6.951   4.877  10.715  0.1159  1.0729  1.2267
  111OSM      P11438   6.770   5.165  10.778  0.3023  0.0042  0.1576
  111OSM    O1311439   6.663   5.177  10.879  0.4024 -0.2913  0.2049
  111OSM    O1411440   6.870   5.272  10.767  0.1929 -0.2393 -0.8860
  111OSM    O1111441   6.707   5.148  10.640 -0.1693  0.2883  0.6528
  111OSM    O1211442   6.856   5.035  10.806 -0.0727 -0.9222 -0.5141
  111OSM    C1S11443   6.630   5.252  10.587  0.0340  0.0805  0.8142
  111OSM    H1S11444   6.630   5.347  10.645 -1.1152  0.5887  0.0219
  111OSM    H1T11445   6.524   5.218  10.593 -0.2181  0.6809 -0.1282
  111OSM     NF11446   6.566   5.381  10.392  0.4994  0.2994 -0.5725
  111OSM    HNF11447   6.502   5.350  10.322  0.5269 -1.3472  0.0974
  111OSM    C2S11448   6.657   5.281  10.434 -0.0560 -0.2159  0.0050
  111OSM    H2S11449   6.758   5.327  10.428 -0.2535  0.0731 -1.0628
  111OSM    C3S11450   6.661   5.148  10.357  0.6506 -0.4300  0.0375
  111OSM    H3S11451   6.562   5.103  10.379  0.6554 -0.4258  0.0645
  111OSM     O311452   6.751   5.047  10.399 -0.0175  0.1893 -0.3980
  111OSM    HO311453   6.764   5.070  10.491 -1.9359  2.7054 -0.6940
  111OSM    C4S11454   6.670   5.185  10.214 -0.1441  0.2359 -0.2952
  111OSM    H4S11455   6.575   5.221  10.170 -0.3404 -1.0458 -0.9216
  111OSM    C5S11456   6.770   5.185  10.133  0.1038 -0.0708  0.1482
  111OSM    H5S11457   6.870   5.163  10.174  1.4042  0.9652 -2.3535
  111OSM    C6S11458   6.775   5.208   9.982  0.1767 -1.2169 -0.3815
  111OSM    H6S11459   6.785   5.112   9.927  0.6573 -1.2231 -0.2759
  111OSM    H6T11460   6.861   5.275   9.963 -0.0504 -1.1537 -1.2202
  111OSM    C7S11461   6.657   5.284   9.915  0.3270  0.3459  0.1701
  111OSM    H7S11462   6.643   5.379   9.972  1.5392  0.3211  0.5242
  111OSM    H7T11463   6.564   5.226   9.928  0.9971 -0.7342  0.2276
  111OSM    C8S11464   6.690   5.331   9.768 -0.0828  0.2003  0.4222
  111OSM    H8S11465   6.714   5.240   9.709 -0.4386  1.0788 -1.1001
  111OSM    H8T11466   6.788   5.385   9.769  0.3215 -0.5283  2.1423
  111OSM    C9S11467   6.577   5.410   9.704 -0.0318 -0.0810  0.4143
  111OSM    H9S11468   6.571   5.509   9.754 -0.7494  0.2890 -0.3837
  111OSM    H9T11469   6.472   5.374   9.712  0.3065 -1.2037 -0.1668
  111OSM   C10S11470   6.602   5.427   9.550 -0.3521 -0.0324  0.0989
  111OSM   H10S11471   6.525   5.486   9.496  0.3524  0.5993 -0.2241
  111OSM   H10T11472   6.611   5.327   9.504 -1.4584  0.4299 -1.1429
  111OSM   C11S11473   6.739   5.500   9.509  0.3527  0.1240 -0.3119
  111OSM   H11S11474   6.831   5.442   9.531 -0.0508  0.1157  1.4120
  111OSM   H11T11475   6.735   5.586   9.579 -0.1030 -0.3214  0.2200
  111OSM   C12S11476   6.746   5.560   9.366 -0.5901 -0.3207 -0.2925
  111OSM   H12S11477   6.846   5.607   9.358 -0.5881 -0.1202  0.8057
  111OSM   H12T11478   6.663   5.634   9.364  0.8058  1.2810 -0.2897
  111OSM   C13S11479   6.738   5.460   9.252  0.0964  0.2551  0.3541
  111OSM   H13S11480   6.651   5.395   9.278 -0.0296  1.3284  2.7384
  111OSM   H13T11481   6.825   5.393   9.238 -0.0785  0.4296 -1.6884
  111OSM   C14S11482   6.702   5.528   9.116 -0.1193 -0.1571 -1.1001
  111OSM   H14S11483   6.788   5.592   9.088  0.9705 -0.2040  2.0126
  111OSM   H14T11484   6.602   5.576   9.123  0.1847  0.2044  1.0415
  111OSM   C15S11485   6.707   5.427   8.998  1.2172 -0.3446  0.2717
  111OSM   H15S11486   6.665   5.330   9.032  1.0987  0.5203  2.6898
  111OSM   H15T11487   6.809   5.403   8.963  0.6315  0.4437 -2.0576
  111OSM   C16S11488   6.615   5.469   8.886  0.2744 -0.4789  0.4335
  111OSM   H16S11489   6.676   5.547   8.834 -0.2915 -0.0348  0.4331
  111OSM   H16T11490   6.519   5.511   8.921 -0.4121  0.3005 -2.2910
  111OSM   C17S11491   6.589   5.363   8.783  0.0238 -1.0557  0.0648
  111OSM   H17S11492   6.690   5.326   8.756 -0.4963 -1.4386 -1.4029
  111OSM   H17T11493   6.542   5.402   8.690 -2.2070 -3.7579 -0.0174
  111OSM   C18S11494   6.487   5.248   8.821  0.7425 -0.0175 -0.2265
  111OSM   H18S11495   6.388   5.293   8.842 -0.4116 -0.5404 -4.0585
  111OSM   H18T11496   6.534   5.193   8.905 -1.1298  0.0996  0.9120
  111OSM   H18U11497   6.475   5.175   8.738  1.2698 -1.0804  0.6315
  111OSM    C1F11498   6.566   5.504  10.433  0.0378  0.7344 -0.1644
  111OSM     OF11499   6.661   5.551  10.495 -0.2704  0.3759 -0.3609
  111OSM    C2F11500   6.446   5.577  10.400 -0.4009 -0.0719  0.1982
  111OSM    H2F11501   6.366   5.543  10.470 -3.1290  5.0214 -0.1901
  111OSM    H2G11502   6.414   5.554  10.296  2.1998 -1.3698 -0.3645
  111OSM    C3F11503   6.463   5.729  10.422 -0.5555  0.4480 -0.1792
  111OSM    H3F11504   6.504   5.739  10.525 -0.5071 -1.5394  0.0228
  111OSM    H3G11505   6.374   5.794  10.410  0.0447  1.1655 -0.7642
  111OSM    C4F11506   6.568   5.800  10.329 -0.3060 -0.5734 -0.0437
  111OSM    H4F11507   6.656   5.732  10.320  1.6583  1.5769  2.2868
  111OSM    H4G11508   6.606   5.895  10.371 -3.3299  0.6500  0.0553
  111OSM    C5F11509   6.514   5.837  10.195 -0.2046  0.1291 -0.1267
  111OSM    H5F11510   6.421   5.896  10.204  0.9449  1.7568  1.2899
  111OSM    H5G11511   6.478   5.745  10.143  2.5117 -0.8033 -0.4422
  111OSM    C6F11512   6.605   5.912  10.098 -0.0749  0.2788  0.3216
  111OSM    H6F11513   6.710   5.875  10.105  0.1909  0.9520 -0.0438
  111OSM    H6G11514   6.610   6.016  10.136 -1.1545  1.0279 -1.5106
  111OSM    C7F11515   6.568   5.906   9.946  0.2146 -0.1771  0.0497
  111OSM    H7F11516   6.597   6.002   9.899  0.2377  0.5733  1.6015
  111OSM    H7G11517   6.458   5.905   9.927 -0.2217  1.5801  2.3071
  111OSM    C8F11518   6.636   5.784   9.873 -0.1083  0.5360 -0.0226
  111OSM    H8F11519   6.586   5.783   9.773 -0.1750  0.9126  0.0058
  111OSM    H8G11520   6.587   5.700   9.925  1.1491  0.8392  1.6827
  111OSM    C9F11521   6.790   5.777   9.868  0.7012 -0.0025 -0.3558
  111OSM    H9F11522   6.838   5.734   9.957  1.1180 -0.1188 -0.6351
  111OSM   C10F11523   6.871   5.821   9.771 -0.1335  0.1603 -0.5521
  111OSM   H10F11524   6.980   5.806   9.771 -0.2341 -0.5897 -0.6609
  111OSM   C11F11525   6.819   5.897   9.657  0.1589 -0.3477 -0.5516
  111OSM   H11F11526   6.735   5.966   9.681 -0.9403 -2.3560  1.5290
  111OSM   H11G11527   6.768   5.832   9.582  1.3182 -0.7009 -1.0417
  111OSM   C12F11528   6.924   5.985   9.590 -0.7691  0.1134  0.1063
  111OSM   H12F11529   7.013   5.925   9.561 -0.5508  0.5257 -0.0973
  111OSM   H12G11530   6.954   6.059   9.667 -1.7953 -0.7378  1.3300
  111OSM   C13F11531   6.875   6.033   9.449  0.0283 -0.2671  0.0832
  111OSM   H13F11532   6.781   6.089   9.466  1.1535  1.0740  2.0735
  111OSM   H13G11533   6.868   5.948   9.378  2.0828  1.8559 -2.7521
  111OSM   C14F11534   6.969   6.138   9.379 -0.0766  0.1376 -0.2058
  111OSM   H14F11535   7.075   6.118   9.405  0.8374  2.9181 -1.6511
  111OSM   H14G11536   6.942   6.237   9.423 -0.6002 -0.4041  0.7220
  111OSM   C15F11537   6.951   6.142   9.227  0.4444 -0.4739 -0.2276
  111OSM   H15F11538   6.978   6.046   9.179 -0.5579 -2.0248  2.2281
  111OSM   H15G11539   7.024   6.220   9.195  2.5952 -0.4733  4.1864
  111OSM   C16F11540   6.811   6.198   9.182  0.2769 -0.5336 -0.1132
  111OSM   H16F11541   6.796   6.271   9.264  1.7727 -1.1789  0.7396
  111OSM   H16G11542   6.734   6.122   9.210  0.3564  0.3130  2.5163
  111OSM   C17F11543   6.816   6.263   9.052 -0.8217 -0.3455  0.7266
  111OSM   H17F11544   6.852   6.185   8.981 -0.9426  1.3608 -1.2582
  111OSM   H17G11545   6.899   6.335   9.038 -0.0996 -1.1601  0.7671
  111OSM   C18F11546   6.677   6.306   9.013  0.0284  0.4691 -0.0850
  111OSM   H18F11547   6.678   6.318   8.902 -0.5051  0.4043 -0.0952
  111OSM   H18G11548   6.642   6.405   9.047  0.1929  0.1633  0.9911
  111OSM   H18H11549   6.598   6.234   9.044 -1.2246  1.0639 -1.8092
  112OSM      N11550   6.527   3.277  10.870  0.5826  0.2441  0.1676
  112OSM    C1511551   6.588   3.202  10.758 -0.3995 -0.4191  0.0219
  112OSM   H15A11552   6.696   3.202  10.758 -0.3983  0.1570  0.4557
  112OSM   H15B11553   6.556   3.244  10.663  1.3438  0.9099 -0.0079
  112OSM   H15C11554   6.567   3.097  10.751  0.4353 -0.6199  0.5003
  112OSM    C1411555   6.615   3.266  10.983 -0.5696 -0.2836 -0.1064
  112OSM   H14A11556   6.572   3.325  11.063  0.7040  1.3231 -0.5818
  112OSM   H14B11557   6.704   3.324  10.965 -0.0628 -1.1802 -0.5478
  112OSM   H14C11558   6.638   3.165  11.014  1.3521  0.2391  0.2672
  112OSM    C1311559   6.520   3.421  10.837  0.1795  0.5381  0.1188
  112OSM   H13A11560   6.612   3.471  10.809  1.2546 -0.4935  1.7299
  112OSM   H13B11561   6.476   3.470  10.922  0.6033 -0.8403  1.1515
  112OSM   H13C11562   6.443   3.439  10.762  0.3713 -1.0332 -0.4837
  112OSM    C1211563   6.390   3.227  10.906 -0.3428 -0.1850  0.3760
  112OSM   H12A11564   6.370   3.277  11.000  0.4043  1.7206 -0.4739
  112OSM   H12B11565   6.398   3.120  10.918 -1.0032 -0.4453 -1.3150
  112OSM    C1111566   6.277   3.240  10.802  0.1288 -1.3076  0.2462
  112OSM   H11A11567   6.199   3.166  10.827 -1.4131  0.3356  0.3732
  112OSM   H11B11568   6.318   3.212  10.703 -1.2028 -1.0337 -0.3946
  112OSM      P11569   6.129   3.421  10.904 -0.3400 -0.1512  0.1715
  112OSM    O1311570   6.164   3.361  11.033 -0.4637 -0.4800  0.3913
  112OSM    O1411571   6.120   3.564  10.894 -1.0961 -0.0949  0.0740
  112OSM    O1111572   5.978   3.370  10.855 -0.1469 -0.1052  0.3364
  112OSM    O1211573   6.225   3.374  10.794 -0.3594  0.0752  0.5559
  112OSM    C1S11574   5.911   3.418  10.735 -0.0560  0.3418  0.0404
  112OSM    H1S11575   5.942   3.522  10.711  0.6584  0.2402  0.4986
  112OSM    H1T11576   5.802   3.410  10.754  0.0665 -2.6202 -0.2688
  112OSM     NF11577   5.926   3.405  10.488  0.2274  0.5597  0.4317
  112OSM    HNF11578   5.841   3.374  10.447  1.7769 -1.2767 -1.5367
  112OSM    C2S11579   5.949   3.333  10.616  0.3866  0.0150  0.1229
  112OSM    H2S11580   6.059   3.316  10.613  0.2610 -0.7631 -0.0597
  112OSM    C3S11581   5.884   3.191  10.628 -0.7293  0.2147 -0.4356
  112OSM    H3S11582   5.774   3.204  10.613 -1.1661 -1.8435  0.8234
  112OSM     O311583   5.889   3.127  10.755  0.4893  0.3275  0.6616
  112OSM    HO311584   5.907   3.198  10.818 -1.2299  2.3714 -1.0881
  112OSM    C4S11585   5.941   3.108  10.510  0.9092 -0.7845  0.6291
  112OSM    H4S11586   5.869   3.113  10.427 -1.6292  1.5084  2.8753
  112OSM    C5S11587   6.041   3.014  10.508 -0.2249 -0.3639  0.0523
  112OSM    H5S11588   6.092   2.990  10.603  1.8514  0.3183 -0.8594
  112OSM    C6S11589   6.093   2.933  10.391  0.2856  0.6399 -1.0250
  112OSM    H6S11590   6.097   2.824  10.412  0.7088  0.4724 -1.9789
  112OSM    H6T11591   6.193   2.955  10.350  1.0740  1.0107  1.0373
  112OSM    C7S11592   5.999   2.937  10.269 -0.1563  0.1792 -0.2835
  112OSM    H7S11593   5.991   3.041  10.232  0.4194  1.1335  2.2126
  112OSM    H7T11594   5.900   2.900  10.305 -0.0575 -1.1488 -1.3129
  112OSM    C8S11595   6.048   2.844  10.154  0.3086 -0.4057  0.0831
  112OSM    H8S11596   6.102   2.749  10.175  0.2873 -0.7984 -1.6027
  112OSM    H8T11597   6.127   2.904  10.106  3.3086 -1.7062  3.1311
  112OSM    C9S11598   5.933   2.796  10.064 -0.2117 -0.0253  0.3629
  112OSM    H9S11599   5.869   2.887  10.057  2.7055  1.9335 -1.8995
  112OSM    H9T11600   5.866   2.716  10.102  2.1455 -2.9314 -1.4320
  112OSM   C10S11601   5.982   2.759   9.918  0.3443  0.2877 -0.1652
  112OSM   H10S11602   6.069   2.690   9.916  0.1212 -0.0936  1.7808
  112OSM   H10T11603   6.027   2.852   9.876 -2.4114  2.6477  1.9174
  112OSM   C11S11604   5.869   2.717   9.820 -0.4862 -0.1816  0.0905
  112OSM   H11S11605   5.799   2.798   9.793 -0.2732 -0.1168 -0.2601
  112OSM   H11T11606   5.818   2.637   9.879  0.7090 -0.6104  0.5640
  112OSM   C12S11607   5.929   2.669   9.682  0.2774  0.3882 -0.3604
  112OSM   H12S11608   6.014   2.598   9.693 -0.5459 -0.8400 -1.6919
  112OSM   H12T11609   5.973   2.759   9.635 -0.4261 -0.8104 -3.4140
  112OSM   C13S11610   5.817   2.620   9.591  0.3280 -0.0781  1.0922
  112OSM   H13S11611   5.732   2.692   9.586  0.0768 -0.4432 -0.0465
  112OSM   H13T11612   5.786   2.521   9.629  0.6059 -1.4950 -2.2255
  112OSM   C14S11613   5.878   2.583   9.455 -0.2877  0.1686 -0.1932
  112OSM   H14S11614   5.807   2.518   9.399 -0.8537 -0.9879  1.7912
  112OSM   H14T11615   5.972   2.525   9.467  1.6576  3.2334 -0.2788
  112OSM   C15S11616   5.907   2.699   9.364 -0.0096  0.2211  0.1700
  112OSM   H15S11617   5.992   2.762   9.399 -0.4920 -0.0619  1.8944
  112OSM   H15T11618   5.819   2.766   9.368 -1.6117 -1.4951 -3.4996
  112OSM   C16S11619   5.918   2.666   9.215  0.2264  0.3589 -0.4707
  112OSM   H16S11620   5.827   2.616   9.176  0.1741  1.4348 -1.7424
  112OSM   H16T11621   6.008   2.602   9.208  1.0083  1.3700  0.1413
  112OSM   C17S11622   5.957   2.787   9.127  0.2928  0.2219  0.2871
  112OSM   H17S11623   5.891   2.874   9.145 -0.3384  0.0324 -1.0799
  112OSM   H17T11624   5.936   2.748   9.025  2.6630 -3.9900  1.2650
  112OSM   C18S11625   6.096   2.834   9.138 -0.2659 -0.4881  0.6459
  112OSM   H18S11626   6.104   2.922   9.070 -0.0076 -2.2445 -1.6571
  112OSM   H18T11627   6.169   2.756   9.109 -0.7097 -0.5522 -0.3214
  112OSM   H18U11628   6.123   2.862   9.242  0.6302  2.2669 -0.2718
  112OSM    C1F11629   5.987   3.514  10.449  0.1410  0.3736  0.6380
  112OSM     OF11630   6.085   3.557  10.510 -0.3514  0.2650 -0.2278
  112OSM    C2F11631   5.933   3.577  10.330  0.3424  0.3539 -0.3825
  112OSM    H2F11632   5.929   3.686  10.350  0.0212  0.6231 -1.8657
  112OSM    H2G11633   5.830   3.539  10.315  0.9358 -1.0736 -0.9347
  112OSM    C3F11634   6.007   3.551  10.196 -0.0875  0.1358 -0.2186
  112OSM    H3F11635   6.018   3.440  10.187 -2.5271  0.0248 -2.4165
  112OSM    H3G11636   6.112   3.586  10.205 -0.5966  1.3253  1.2581
  112OSM    C4F11637   5.948   3.614  10.075  0.4227 -0.0548  0.4468
  112OSM    H4F11638   5.970   3.723  10.068  0.4686 -0.1373 -0.9690
  112OSM    H4G11639   5.837   3.610  10.067  0.4855  0.8258 -1.0784
  112OSM    C5F11640   5.992   3.555   9.938 -0.1843 -0.2824 -0.7628
  112OSM    H5F11641   5.976   3.445   9.940  0.8233 -0.4782 -2.8297
  112OSM    H5G11642   6.098   3.586   9.930  0.6713 -1.8210  3.2339
  112OSM    C6F11643   5.904   3.590   9.823  0.7206 -0.4688  0.3636
  112OSM    H6F11644   5.874   3.697   9.828  1.2360 -0.3395  0.6858
  112OSM    H6G11645   5.810   3.531   9.827 -0.1096  0.9903  4.1747
  112OSM    C7F11646   5.957   3.561   9.682 -0.2397  0.2404  0.2904
  112OSM    H7F11647   6.003   3.461   9.669  0.3414  0.7718 -1.8445
  112OSM    H7G11648   6.039   3.635   9.675  0.2730 -0.3926 -0.4301
  112OSM    C8F11649   5.844   3.591   9.578 -0.5442 -0.2854 -0.1129
  112OSM    H8F11650   5.805   3.693   9.599  0.4091 -0.1645  1.1288
  112OSM    H8G11651   5.770   3.509   9.586 -1.0020  0.3645  2.6607
  112OSM    C9F11652   5.893   3.580   9.435 -0.4597  0.0588  0.4249
  112OSM    H9F11653   5.978   3.512   9.418 -1.5291 -1.3556  0.7185
  112OSM   C10F11654   5.842   3.651   9.330  0.2325  0.5781 -0.4270
  112OSM   H10F11655   5.888   3.626   9.233  0.5981  0.8401 -0.3234
  112OSM   C11F11656   5.728   3.741   9.324  0.0411  0.0455  0.8061
  112OSM   H11F11657   5.704   3.787   9.422  0.6632 -0.4592  1.2019
  112OSM   H11G11658   5.640   3.690   9.279  1.3563 -0.7771 -0.9048
  112OSM   C12F11659   5.748   3.860   9.228  0.1981 -0.0406 -0.0037
  112OSM   H12F11660   5.786   3.829   9.128  0.8806  1.4339 -0.2127
  112OSM   H12G11661   5.825   3.923   9.277  1.2778 -1.0247 -0.3921
  112OSM   C13F11662   5.618   3.942   9.209  0.2498 -0.5465 -0.3008
  112OSM   H13F11663   5.583   3.959   9.313 -1.3941  1.2890 -1.1295
  112OSM   H13G11664   5.558   3.867   9.154 -0.1984  0.8136 -1.7049
  112OSM   C14F11665   5.643   4.080   9.136 -0.2727 -0.0115 -0.0645
  112OSM   H14F11666   5.669   4.048   9.033  2.9703  0.4487  0.5315
  112OSM   H14G11667   5.736   4.127   9.175 -0.6259 -1.2110  2.3418
  112OSM   C15F11668   5.519   4.171   9.133 -0.1372 -0.0227  0.5988
  112OSM   H15F11669   5.513   4.227   9.229  1.6790  0.4092  0.4934
  112OSM   H15G11670   5.430   4.105   9.130  0.1978 -0.5081  1.1948
  112OSM   C16F11671   5.530   4.277   9.016  0.3093  0.1248  0.6070
  112OSM   H16F11672   5.633   4.317   9.021  0.3373  0.7346 -3.1737
  112OSM   H16G11673   5.453   4.354   9.038 -0.4594 -0.5695  0.3558
  112OSM   C17F11674   5.515   4.216   8.876  0.4379  0.1585  0.1086
  112OSM   H17F11675   5.440   4.136   8.891 -0.7748  1.3186  0.3859
  112OSM   H17G11676   5.613   4.167   8.858 -0.6279 -1.3628 -1.7458
  112OSM   C18F11677   5.474   4.308   8.760 -0.0506  0.0662  0.7614
  112OSM   H18F11678   5.392   4.376   8.788 -0.6223  0.5932 -2.0267
  112OSM   H18G11679   5.431   4.241   8.682  1.3945 -0.7427  0.6309
  112OSM   H18H11680   5.558   4.369   8.720 -0.1375  1.2050  2.2884
  113OSM      N11681   6.164   2.650  11.116 -0.2562 -0.6817  0.3038
  113OSM    C1511682   6.245   2.717  11.216 -0.0373  0.0464 -0.1072
  113OSM   H15A11683   6.303   2.797  11.172  1.1253 -1.1218 -0.7347
  113OSM   H15B11684   6.316   2.651  11.264 -0.1865  0.7808  1.1584
  113OSM   H15C11685   6.188   2.754  11.300  1.4058 -2.7761  2.2116
  113OSM    C1411686   6.071   2.543  11.172 -0.5814 -0.3227 -0.1384
  113OSM   H14A11687   6.029   2.486  11.090 -0.7151  1.4881 -1.3629
  113OSM   H14B11688   5.993   2.590  11.228 -1.4224  0.3455 -1.8348
  113OSM   H14C11689   6.128   2.477  11.237 -3.2339  1.2628  3.9401
  113OSM    C1311690   6.080   2.764  11.064 -0.7816 -0.2564 -0.1244
  113OSM   H13A11691   6.006   2.735  10.991 -0.2037  1.0266 -1.2420
  113OSM   H13B11692   6.139   2.842  11.018 -1.0683  0.0692  0.0647
  113OSM   H13C11693   6.023   2.820  11.136 -2.9601 -2.4172 -0.1244
  113OSM    C1211694   6.257   2.589  11.013  0.4625 -0.6467  0.2018
  113OSM   H12A11695   6.208   2.535  10.934  2.5444 -3.6768  0.8947
  113OSM   H12B11696   6.308   2.509  11.064  1.0940 -1.1096 -1.1276
  113OSM    C1111697   6.371   2.681  10.951 -1.0107  0.1506  1.0537
  113OSM   H11A11698   6.317   2.757  10.891 -0.1282  0.0174  0.0706
  113OSM   H11B11699   6.431   2.619  10.881 -0.3860  2.8354 -0.8957
  113OSM      P11700   6.491   2.902  11.048 -0.0625  0.0495  0.5264
  113OSM    O1311701   6.368   2.979  11.073  0.1246 -0.4063  0.2639
  113OSM    O1411702   6.598   2.933  11.146 -0.4924 -0.2531 -0.6298
  113OSM    O1111703   6.553   2.933  10.908  0.1692 -0.0388  0.5901
  113OSM    O1211704   6.464   2.747  11.039  0.1628  0.1840  0.2778
  113OSM    C1S11705   6.659   2.859  10.846  0.3943  0.2750 -0.4755
  113OSM    H1S11706   6.698   2.774  10.906  1.3465  1.3609  0.4814
  113OSM    H1T11707   6.746   2.928  10.837  0.4715  0.3195  0.4911
  113OSM     NF11708   6.729   2.736  10.644  0.3147 -0.6017 -0.7727
  113OSM    HNF11709   6.767   2.777  10.561 -2.6899  1.8124 -1.0176
  113OSM    C2S11710   6.612   2.795  10.707 -1.0929 -0.0903 -0.4689
  113OSM    H2S11711   6.539   2.718  10.739  0.5915 -1.2722  0.6440
  113OSM    C3S11712   6.553   2.905  10.618 -0.3020  0.8370  0.4338
  113OSM    H3S11713   6.618   2.994  10.633  1.7546 -0.2400 -1.8568
  113OSM     O311714   6.422   2.947  10.658  0.3378  0.4012  0.2839
  113OSM    HO311715   6.434   2.950  10.753 -3.1772  0.0409  0.7982
  113OSM    C4S11716   6.528   2.852  10.476 -0.3374 -0.4437  0.1329
  113OSM    H4S11717   6.583   2.916  10.406 -1.3565  1.6600  1.1772
  113OSM    C5S11718   6.451   2.752  10.436  0.6571 -0.4634  0.7715
  113OSM    H5S11719   6.397   2.692  10.510 -0.1972 -2.1241 -1.1308
  113OSM    C6S11720   6.428   2.708  10.292  0.2566  0.4780 -0.1969
  113OSM    H6S11721   6.327   2.663  10.280  0.5804 -0.1100 -0.7913
  113OSM    H6T11722   6.505   2.628  10.276  0.2513  0.4005  0.1707
  113OSM    C7S11723   6.450   2.817  10.182  0.8283 -0.5940 -0.3552
  113OSM    H7S11724   6.555   2.852  10.190  1.1149 -0.8157 -2.8096
  113OSM    H7T11725   6.384   2.902  10.208 -0.6058 -1.7245 -0.2730
  113OSM    C8S11726   6.424   2.767  10.042 -0.6848  0.1722 -0.3085
  113OSM    H8S11727   6.319   2.735  10.032 -1.2338  1.7956 -0.0292
  113OSM    H8T11728   6.481   2.676  10.017  0.0420  0.4769  0.1969
  113OSM    C9S11729   6.465   2.872   9.931  0.6978  0.9132 -0.6930
  113OSM    H9S11730   6.573   2.884   9.956  0.7988 -0.1504 -0.6000
  113OSM    H9T11731   6.416   2.967   9.961 -0.6924 -0.4858  1.6649
  113OSM   C10S11732   6.460   2.833   9.789 -0.1490  0.5262 -0.5342
  113OSM   H10S11733   6.518   2.739   9.777 -0.3469  0.4162 -0.6202
  113OSM   H10T11734   6.506   2.908   9.721 -0.6508  0.3256 -1.0997
  113OSM   C11S11735   6.313   2.826   9.741  0.5493 -0.2412 -0.1397
  113OSM   H11S11736   6.254   2.911   9.781  0.4831 -0.7310  0.8380
  113OSM   H11T11737   6.258   2.735   9.774 -1.6023  1.0794 -0.0363
  113OSM   C12S11738   6.308   2.831   9.590 -0.0287 -0.3276  0.3089
  113OSM   H12S11739   6.359   2.922   9.552 -1.3721  0.5294  0.5210
  113OSM   H12T11740   6.201   2.843   9.564 -0.2076  1.6967  1.8849
  113OSM   C13S11741   6.375   2.720   9.514 -0.4583 -0.1657 -0.4429
  113OSM   H13S11742   6.326   2.632   9.560  0.9251 -0.4987  0.4066
  113OSM   H13T11743   6.481   2.705   9.543 -0.5362  1.0968  0.4964
  113OSM   C14S11744   6.343   2.715   9.369  0.4454  0.4539  0.4353
  113OSM   H14S11745   6.361   2.820   9.337  0.3481  0.2278 -0.3854
  113OSM   H14T11746   6.238   2.687   9.349  0.9087  0.4838 -2.3473
  113OSM   C15S11747   6.435   2.625   9.281  0.6147 -0.6202 -1.1043
  113OSM   H15S11748   6.539   2.663   9.292  0.2195  0.8669 -2.4290
  113OSM   H15T11749   6.409   2.643   9.175 -2.1480 -0.1215 -0.3615
  113OSM   C16S11750   6.416   2.482   9.326  0.7088  0.5559 -0.0372
  113OSM   H16S11751   6.310   2.450   9.318  0.4667  1.1128  0.8920
  113OSM   H16T11752   6.455   2.471   9.430  1.5330 -0.9076 -0.4851
  113OSM   C17S11753   6.510   2.385   9.244 -1.4419 -0.8455  0.5744
  113OSM   H17S11754   6.612   2.429   9.251 -1.5549 -0.5275  0.2521
  113OSM   H17T11755   6.470   2.406   9.142  1.5467 -1.4566 -0.7616
  113OSM   C18S11756   6.494   2.244   9.284  1.0846  0.0599 -0.0826
  113OSM   H18S11757   6.530   2.225   9.388  1.7894 -2.6753 -0.7904
  113OSM   H18T11758   6.532   2.156   9.229 -1.1477 -0.2140 -1.2795
  113OSM   H18U11759   6.385   2.225   9.295  1.2415 -0.3400  0.8832
  113OSM    C1F11760   6.774   2.618  10.681  0.3273 -0.0584 -0.8143
  113OSM     OF11761   6.718   2.558  10.771 -0.4580  1.0853 -0.1574
  113OSM    C2F11762   6.904   2.573  10.617 -0.2279 -0.3988  0.1882
  113OSM    H2F11763   6.980   2.651  10.637  1.6804 -1.8440 -1.2262
  113OSM    H2G11764   6.896   2.569  10.506  0.5730 -0.6722  0.1386
  113OSM    C3F11765   6.961   2.434  10.663  0.3204  0.0363 -0.5029
  113OSM    H3F11766   6.911   2.352  10.607 -0.8869  1.3036 -1.3080
  113OSM    H3G11767   6.947   2.404  10.769  0.7517 -0.4468 -0.5800
  113OSM    C4F11768   7.114   2.441  10.634 -0.0232 -0.0321  0.2835
  113OSM    H4F11769   7.158   2.355  10.689  0.5727 -1.1378 -1.8736
  113OSM    H4G11770   7.157   2.531  10.684 -0.2202  0.4127 -0.3415
  113OSM    C5F11771   7.153   2.445  10.484 -0.3588 -0.6695 -0.6972
  113OSM    H5F11772   7.263   2.427  10.490 -0.5578 -1.6747  0.0877
  113OSM    H5G11773   7.142   2.548  10.443  0.4023  0.1196  0.9944
  113OSM    C6F11774   7.087   2.339  10.397  0.5662  0.4719 -0.0889
  113OSM    H6F11775   6.977   2.349  10.413  0.0167 -2.9331 -1.2508
  113OSM    H6G11776   7.112   2.238  10.435 -2.0328  0.3331  1.3901
  113OSM    C7F11777   7.121   2.359  10.248 -0.5583 -0.4963 -0.5948
  113OSM    H7F11778   7.226   2.343  10.215 -0.7044 -2.1591 -0.2911
  113OSM    H7G11779   7.104   2.463  10.213 -1.9239 -0.4597  0.1421
  113OSM    C8F11780   7.032   2.283  10.146 -0.4173 -0.2291 -0.0377
  113OSM    H8F11781   7.035   2.342  10.052 -2.5564 -0.0381 -0.0162
  113OSM    H8G11782   6.926   2.299  10.176 -0.3238  2.4130 -0.9558
  113OSM    C9F11783   7.083   2.146  10.138  0.6234  0.5897  0.1133
  113OSM    H9F11784   7.062   2.094  10.233  1.7060  0.9602  0.5591
  113OSM   C10F11785   7.139   2.083  10.036 -0.3770 -0.3585 -0.0239
  113OSM   H10F11786   7.174   1.981  10.060  1.9204  0.7497  1.5855
  113OSM   C11F11787   7.178   2.133   9.898  0.2999  0.3931  0.9179
  113OSM   H11F11788   7.280   2.095   9.876 -0.2849 -3.5849  4.4479
  113OSM   H11G11789   7.169   2.241   9.872 -1.7281  0.2604  0.9989
  113OSM   C12F11790   7.099   2.060   9.787  0.7745  0.1907 -0.2030
  113OSM   H12F11791   6.993   2.089   9.780  0.7894  0.1813 -0.4934
  113OSM   H12G11792   7.106   1.950   9.801 -0.8743 -0.0746 -1.3502
  113OSM   C13F11793   7.143   2.083   9.636 -0.9391  0.0571 -0.3441
  113OSM   H13F11794   7.105   2.000   9.572  0.2719 -0.4738 -0.3940
  113OSM   H13G11795   7.254   2.079   9.636 -0.9380 -0.2069 -2.2166
  113OSM   C14F11796   7.101   2.215   9.573 -0.4582 -0.6365  0.2043
  113OSM   H14F11797   7.114   2.304   9.638  0.2065 -0.8172  0.3139
  113OSM   H14G11798   6.994   2.215   9.542 -0.2113 -2.6485 -0.6941
  113OSM   C15F11799   7.183   2.236   9.448 -0.2750 -0.2168 -0.2840
  113OSM   H15F11800   7.290   2.247   9.476 -0.7509  3.1659  0.4686
  113OSM   H15G11801   7.150   2.329   9.396 -1.8887 -0.9541 -0.6041
  113OSM   C16F11802   7.176   2.132   9.335  0.8275  0.5289 -0.1895
  113OSM   H16F11803   7.192   2.036   9.390  1.4103 -0.6084 -2.2791
  113OSM   H16G11804   7.255   2.151   9.260  1.6549  1.3698  0.8889
  113OSM   C17F11805   7.038   2.127   9.263 -0.4473  1.0421 -0.4048
  113OSM   H17F11806   7.019   2.236   9.255  0.5596  1.0622 -3.2017
  113OSM   H17G11807   6.963   2.089   9.336 -0.8775  1.1955 -0.7717
  113OSM   C18F11808   7.018   2.053   9.127 -0.9594 -0.3977  0.7112
  113OSM   H18F11809   7.041   1.947   9.150  0.1908 -0.3785 -0.3203
  113OSM   H18G11810   7.099   2.079   9.055 -2.3047 -0.6145 -0.9059
  113OSM   H18H11811   6.923   2.077   9.075 -0.5242  1.3079  0.6773
  114OSM      N11812   0.535   1.694  11.412  0.2920 -0.2987  0.0955
  114OSM    C1511813   0.654   1.613  11.445  0.4941  0.4886  0.2285
  114OSM   H15A11814   0.634   1.558  11.536 -0.7098 -0.4203 -0.5689
  114OSM   H15B11815   0.743   1.670  11.464 -0.1172  1.2700  0.7696
  114OSM   H15C11816   0.679   1.540  11.369 -0.0482 -0.6679  1.1450
  114OSM    C1411817   0.552   1.824  11.490 -0.9888 -0.3192 -0.3555
  114OSM   H14A11818   0.467   1.887  11.470 -1.3336  0.2833  2.7831
  114OSM   H14B11819   0.648   1.871  11.473 -0.6500 -0.2961  1.5029
  114OSM   H14C11820   0.546   1.799  11.594  0.7266 -1.2972 -0.4779
  114OSM    C1311821   0.535   1.728  11.268 -0.2814 -0.7057 -0.4328
  114OSM   H13A11822   0.512   1.647  11.201  0.2580  0.4048 -1.9855
  114OSM   H13B11823   0.631   1.770  11.242 -0.3468 -0.6659 -0.6079
  114OSM   H13C11824   0.472   1.813  11.250  0.8770  0.9315  2.7875
  114OSM    C1211825   0.406   1.630  11.458  0.4768  0.1310 -0.2133
  114OSM   H12A11826   0.329   1.699  11.426 -0.4834  1.2730  4.2900
  114OSM   H12B11827   0.403   1.627  11.566  1.9494 -3.0710 -0.2170
  114OSM    C1111828   0.369   1.486  11.413 -0.1927 -0.3497 -0.3939
  114OSM   H11A11829   0.447   1.410  11.432 -0.2768 -0.5860 -0.9884
  114OSM   H11B11830   0.357   1.484  11.302  1.5072  1.0569 -0.6287
  114OSM      P11831   0.114   1.508  11.439  0.1244 -0.3595  0.1243
  114OSM    O1311832   0.010   1.422  11.487  0.1001  0.2399  0.0579
  114OSM    O1411833   0.114   1.643  11.495 -0.2943 -0.3254 -0.6158
  114OSM    O1111834   0.114   1.511  11.280 -0.1972 -0.1559 -0.6334
  114OSM    O1211835   0.249   1.446  11.483 -0.6200 -0.7276  0.5560
  114OSM    C1S11836   0.114   1.629  11.200 -0.4549 -0.5714 -0.8501
  114OSM    H1S11837   0.219   1.665  11.200 -0.7338  0.2546 -1.0510
  114OSM    H1T11838   0.050   1.707  11.246  2.0125 -0.2290  2.1900
  114OSM     NF11839   0.115   1.721  10.970  0.2135 -0.1151  0.1867
  114OSM    HNF11840   0.038   1.785  10.970 -0.0880 -0.3744  3.0168
  114OSM    C2S11841   0.090   1.604  11.048  0.2730  0.2549  0.9331
  114OSM    H2S11842   0.163   1.527  11.014  0.7592  0.4715  1.4797
  114OSM    C3S11843  -0.050   1.553  11.030  0.7009 -0.3103  0.3758
  114OSM    H3S11844  -0.113   1.644  11.041  2.2413  1.2368 -2.8766
  114OSM     O311845  -0.083   1.454  11.130 -0.0972  0.5175  0.1784
  114OSM    HO311846  -0.015   1.467  11.196  0.8345  1.4615 -0.9296
  114OSM    C4S11847  -0.080   1.504  10.884 -0.2308 -0.3761  0.1017
  114OSM    H4S11848  -0.070   1.590  10.817 -0.0600  0.0661  0.6816
  114OSM    C5S11849  -0.107   1.382  10.837  0.7846  0.2125  0.5859
  114OSM    H5S11850  -0.107   1.304  10.916  1.8571 -1.6844 -1.2257
  114OSM    C6S11851  -0.141   1.329  10.701 -0.4336  0.4405 -0.5721
  114OSM    H6S11852  -0.244   1.285  10.701 -0.4093  0.3805 -0.8687
  114OSM    H6T11853  -0.071   1.244  10.687 -0.0145  0.9751 -1.8123
  114OSM    C7S11854  -0.122   1.412  10.573  0.0733 -0.3816  0.2356
  114OSM    H7S11855  -0.016   1.425  10.542  0.1482 -1.4282  0.0161
  114OSM    H7T11856  -0.159   1.516  10.588  0.9594 -0.3418  2.3628
  114OSM    C8S11857  -0.200   1.344  10.456 -0.8081  0.0314  0.6781
  114OSM    H8S11858  -0.305   1.340  10.490 -1.1549  0.3551 -0.3652
  114OSM    H8T11859  -0.154   1.245  10.434 -0.0670  1.3164 -4.1652
  114OSM    C9S11860  -0.193   1.400  10.322 -0.4140  0.3652  0.8182
  114OSM    H9S11861  -0.086   1.419  10.298 -0.7810  1.3396 -0.0966
  114OSM    H9T11862  -0.231   1.503  10.312 -0.2447  0.2526 -1.1686
  114OSM   C10S11863  -0.257   1.314  10.209 -0.3282 -0.1121  0.1826
  114OSM   H10S11864  -0.364   1.298  10.236 -1.5744  2.3024 -2.9631
  114OSM   H10T11865  -0.209   1.215  10.193  0.8549  0.7504 -1.8428
  114OSM   C11S11866  -0.254   1.389  10.074  0.5672 -0.0771  0.2629
  114OSM   H11S11867  -0.148   1.413  10.051  0.5142 -0.8762 -0.8845
  114OSM   H11T11868  -0.309   1.482  10.097 -0.1987  0.1501 -2.2721
  114OSM   C12S11869  -0.316   1.324   9.945 -0.0666 -0.9720 -0.9559
  114OSM   H12S11870  -0.426   1.329   9.959  0.1370 -0.4734  0.5607
  114OSM   H12T11871  -0.278   1.220   9.938  2.6681  0.0063 -1.6474
  114OSM   C13S11872  -0.284   1.401   9.818  0.3984 -0.1879 -0.2764
  114OSM   H13S11873  -0.174   1.388   9.814  0.2381 -1.7326 -0.1430
  114OSM   H13T11874  -0.309   1.509   9.817  0.3589 -0.1783  0.9090
  114OSM   C14S11875  -0.338   1.351   9.692  0.0260  0.2401  0.0509
  114OSM   H14S11876  -0.437   1.395   9.669  1.1425  1.4021 -2.7611
  114OSM   H14T11877  -0.346   1.241   9.676 -2.4907  0.0859  2.1393
  114OSM   C15S11878  -0.249   1.414   9.574 -0.0646  1.2445 -0.0696
  114OSM   H15S11879  -0.146   1.390   9.608  0.3049  1.5354 -0.9610
  114OSM   H15T11880  -0.268   1.524   9.572 -0.3339  1.2371  1.6036
  114OSM   C16S11881  -0.281   1.350   9.444  0.3657  0.2476 -0.5005
  114OSM   H16S11882  -0.388   1.351   9.414  0.0769  1.1225  0.5239
  114OSM   H16T11883  -0.264   1.241   9.456 -0.1023  0.2564  0.3021
  114OSM   C17S11884  -0.203   1.412   9.329  0.3319 -0.7017 -0.4906
  114OSM   H17S11885  -0.096   1.424   9.354  0.2818  0.2490 -0.7249
  114OSM   H17T11886  -0.242   1.515   9.313 -1.0026 -0.9132  1.2663
  114OSM   C18S11887  -0.220   1.330   9.201  0.2095 -0.1338 -0.1369
  114OSM   H18S11888  -0.177   1.390   9.118  2.9784  1.6097  2.4349
  114OSM   H18T11889  -0.324   1.305   9.171  1.0089 -0.7815 -2.4860
  114OSM   H18U11890  -0.170   1.232   9.211  0.6058  0.0398 -0.3905
  114OSM    C1F11891   0.235   1.762  10.939  0.1929 -0.2011  0.0527
  114OSM     OF11892   0.332   1.690  10.973 -0.7414  0.0101 -0.5171
  114OSM    C2F11893   0.257   1.893  10.868  0.7539 -0.1264 -0.2333
  114OSM    H2F11894   0.318   1.963  10.929 -0.5264  0.0284  0.8970
  114OSM    H2G11895   0.159   1.941  10.847  0.9676 -0.5887 -2.4449
  114OSM    C3F11896   0.333   1.867  10.732  0.1837  0.3385 -0.5504
  114OSM    H3F11897   0.434   1.824  10.749 -0.3520 -0.9871 -0.6487
  114OSM    H3G11898   0.335   1.963  10.676 -1.1657  0.2172 -0.8359
  114OSM    C4F11899   0.277   1.761  10.633  0.3011  0.4793 -0.0349
  114OSM    H4F11900   0.168   1.780  10.633  0.3061  0.5087 -1.1754
  114OSM    H4G11901   0.300   1.662  10.679  0.7595  1.3117  1.5839
  114OSM    C5F11902   0.331   1.786  10.491  0.7734  0.1559  0.5970
  114OSM    H5F11903   0.435   1.747  10.491 -0.3568 -2.9921  0.4277
  114OSM    H5G11904   0.327   1.894  10.466  0.2804 -0.5310 -2.4251
  114OSM    C6F11905   0.263   1.713  10.371  0.5024  0.3131  0.3509
  114OSM    H6F11906   0.323   1.732  10.279  1.4752  0.9004  1.0949
  114OSM    H6G11907   0.169   1.765  10.343 -0.6044 -2.6150 -1.6243
  114OSM    C7F11908   0.236   1.563  10.397 -0.0653  0.1410  0.4934
  114OSM    H7F11909   0.177   1.542  10.489  1.6251  0.1642  1.6005
  114OSM    H7G11910   0.336   1.517  10.410  1.1037  2.0575 -1.3598
  114OSM    C8F11911   0.168   1.499  10.278 -0.4057 -0.1617  0.0001
  114OSM    H8F11912   0.077   1.558  10.250 -0.6511  1.9417  4.7929
  114OSM    H8G11913   0.135   1.397  10.306 -0.8933 -0.6395 -2.1979
  114OSM    C9F11914   0.250   1.483  10.154  0.3959 -0.6976  0.2643
  114OSM    H9F11915   0.352   1.445  10.164  1.0516  1.2902  1.4850
  114OSM   C10F11916   0.214   1.508  10.025 -0.0110 -0.3540  0.5902
  114OSM   H10F11917   0.285   1.506   9.941  0.5651  1.6278  0.9814
  114OSM   C11F11918   0.088   1.563   9.964  0.0532 -0.2646  0.2518
  114OSM   H11F11919   0.006   1.555  10.037 -1.1123  0.5477 -0.9398
  114OSM   H11G11920   0.052   1.513   9.871  0.2403 -2.6647  1.4383
  114OSM   C12F11921   0.102   1.714   9.941  0.3383  0.0222  0.0673
  114OSM   H12F11922   0.176   1.730   9.860 -1.6149  0.4668 -1.6598
  114OSM   H12G11923   0.152   1.770  10.023 -1.5800  1.4551  0.2906
  114OSM   C13F11924  -0.027   1.787   9.905  0.4832 -0.3764  0.1677
  114OSM   H13F11925  -0.016   1.897   9.909 -0.3596 -0.3320  2.3450
  114OSM   H13G11926  -0.104   1.767   9.983 -0.9857 -1.3258 -1.4839
  114OSM   C14F11927  -0.091   1.750   9.771  0.1676 -0.2418  0.0819
  114OSM   H14F11928  -0.198   1.775   9.784  0.6782  0.8080  2.5712
  114OSM   H14G11929  -0.094   1.642   9.749 -0.8171 -0.2589  0.2883
  114OSM   C15F11930  -0.032   1.827   9.651  0.1150 -0.5498 -0.1968
  114OSM   H15F11931   0.078   1.842   9.660 -0.0600  0.6458  0.1212
  114OSM   H15G11932  -0.077   1.928   9.644  1.4654  0.0083 -1.0169
  114OSM   C16F11933  -0.067   1.767   9.515  0.5964  0.3339  0.1407
  114OSM   H16F11934  -0.175   1.786   9.494  0.5343  0.9806  1.0709
  114OSM   H16G11935  -0.049   1.657   9.512  2.7663  0.6926 -0.3906
  114OSM   C17F11936   0.012   1.836   9.411 -0.0937  0.0265  1.2477
  114OSM   H17F11937   0.118   1.811   9.435  0.1102 -1.5085 -1.0028
  114OSM   H17G11938  -0.003   1.946   9.419 -1.2150  0.1479 -1.6538
  114OSM   C18F11939  -0.031   1.799   9.272 -0.5042  0.3808 -0.2187
  114OSM   H18F11940  -0.018   1.690   9.256 -1.4530  0.6774 -3.2722
  114OSM   H18G11941   0.033   1.862   9.207  0.4989  1.6165  1.9208
  114OSM   H18H11942  -0.138   1.821   9.250 -0.5434  0.3665 -0.0466
  115OSM      N11943   3.175   4.683   5.910  0.4513 -0.0811 -0.3224
  115OSM    C1511944   3.306   4.649   5.972 -0.3871  1.2723  0.0394
  115OSM   H15A11945   3.378   4.639   5.893 -1.5364  2.1348 -1.1402
  115OSM   H15B11946   3.300   4.556   6.026  0.8732  0.9921 -0.2804
  115OSM   H15C11947   3.353   4.721   6.037  2.3844  1.7480 -2.3987
  115OSM    C1411948   3.187   4.821   5.847 -0.2930 -0.1892  0.4555
  115OSM   H14A11949   3.101   4.857   5.793 -1.5821 -0.1000  2.5300
  115OSM   H14B11950   3.276   4.830   5.786 -1.0491  1.6530 -0.3912
  115OSM   H14C11951   3.204   4.892   5.926  0.3758  0.1921 -0.0286
  115OSM    C1311952   3.148   4.589   5.801 -0.0103  0.6234  0.3094
  115OSM   H13A11953   3.171   4.488   5.830 -1.3389 -0.5873 -2.6704
  115OSM   H13B11954   3.199   4.618   5.710  1.8242  2.6954  1.9316
  115OSM   H13C11955   3.044   4.599   5.776  0.3312 -2.4858 -2.8628
  115OSM    C1211956   3.057   4.678   6.019 -0.5732 -0.1305  0.4843
  115OSM   H12A11957   3.028   4.577   6.040  1.0124  0.0569  3.9716
  115OSM   H12B11958   2.971   4.716   5.966 -1.5483 -3.6861 -0.6280
  115OSM    C1111959   3.082   4.750   6.154 -0.7777  0.1983 -0.7271
  115OSM   H11A11960   3.175   4.715   6.205 -2.3134 -0.4125  1.7333
  115OSM   H11B11961   2.998   4.721   6.221 -0.2322  2.1201  0.8389
  115OSM      P11962   3.210   4.985   6.200 -0.1464  0.2661 -0.5165
  115OSM    O1311963   3.330   4.938   6.131 -0.3410 -0.1288 -0.6515
  115OSM    O1411964   3.163   5.128   6.186  0.4635  0.3890 -0.3096
  115OSM    O1111965   3.222   4.928   6.347  0.1372 -0.1428  0.4062
  115OSM    O1211966   3.092   4.892   6.142  0.2185  0.3251 -0.2644
  115OSM    C1S11967   3.105   4.922   6.430 -0.0395  0.2867  0.2305
  115OSM    H1S11968   3.052   4.825   6.418 -0.2989  0.5216 -0.5484
  115OSM    H1T11969   3.022   4.988   6.399 -0.2391  0.3050  0.8025
  115OSM     NF11970   2.997   4.955   6.653  0.5759 -0.3699 -0.5736
  115OSM    HNF11971   2.964   5.049   6.664  0.6194 -0.1841 -1.9405
  115OSM    C2S11972   3.125   4.954   6.583  0.6268  0.3686 -0.3521
  115OSM    H2S11973   3.190   4.876   6.629 -1.7346 -0.8742  1.0178
  115OSM    C3S11974   3.201   5.093   6.593  0.2938  0.6580  0.4908
  115OSM    H3S11975   3.144   5.169   6.536 -1.2790  0.2921  1.5429
  115OSM     O311976   3.324   5.089   6.524 -0.1476  0.1940 -0.1772
  115OSM    HO311977   3.307   5.018   6.461 -0.2633 -1.2960  1.4851
  115OSM    C4S11978   3.215   5.138   6.737  0.2734  0.0003  0.1965
  115OSM    H4S11979   3.237   5.057   6.809  2.1927 -0.4115 -0.8264
  115OSM    C5S11980   3.210   5.260   6.785  0.3496 -0.1901 -0.5705
  115OSM    H5S11981   3.182   5.339   6.714  2.3923 -2.1566 -3.7157
  115OSM    C6S11982   3.227   5.308   6.922  1.0155 -0.8398  0.0256
  115OSM    H6S11983   3.141   5.377   6.935  1.7969  0.3661 -1.0622
  115OSM    H6T11984   3.319   5.370   6.933  0.4700  0.1232 -0.6940
  115OSM    C7S11985   3.231   5.197   7.030  0.2262  0.0574 -0.2463
  115OSM    H7S11986   3.318   5.129   7.016 -0.6916 -0.6890 -2.5186
  115OSM    H7T11987   3.145   5.130   7.014 -0.4970  1.7249 -3.8464
  115OSM    C8S11988   3.231   5.260   7.166  0.0716 -0.4538 -0.2456
  115OSM    H8S11989   3.164   5.349   7.163  2.5381  1.4497 -0.3403
  115OSM    H8T11990   3.332   5.297   7.195  0.3111 -2.6275  1.8654
  115OSM    C9S11991   3.185   5.160   7.283  0.6182 -0.4089 -0.0189
  115OSM    H9S11992   3.257   5.076   7.277  0.4568 -0.7073  1.8975
  115OSM    H9T11993   3.081   5.124   7.270 -0.1070  0.9022  1.9319
  115OSM   C10S11994   3.202   5.209   7.428  0.7442  0.1551 -1.0934
  115OSM   H10S11995   3.296   5.267   7.436  0.2747  0.9549 -1.2782
  115OSM   H10T11996   3.207   5.119   7.493  2.9478  0.6567 -0.5471
  115OSM   C11S11997   3.094   5.304   7.484 -0.3186 -0.9039  0.3312
  115OSM   H11S11998   3.002   5.247   7.459  0.1711 -1.5484 -0.0199
  115OSM   H11T11999   3.097   5.403   7.434  0.4897 -1.7100 -1.2494
  115OSM   C12S12000   3.098   5.309   7.636 -1.1735  0.1368 -0.2298
  115OSM   H12S12001   3.184   5.357   7.687  0.2328 -1.0035 -1.4799
  115OSM   H12T12002   3.100   5.203   7.669  0.4800  0.2861  0.1822
  115OSM   C13S12003   2.978   5.390   7.701 -0.1096 -0.3988 -0.3524
  115OSM   H13S12004   2.886   5.345   7.659 -1.3940 -1.3340  3.2341
  115OSM   H13T12005   3.000   5.492   7.664  0.5655  0.6525  2.7483
  115OSM   C14S12006   2.979   5.393   7.859 -0.6644  0.5920  0.4816
  115OSM   H14S12007   3.074   5.433   7.900 -0.1362 -1.1547  1.0170
  115OSM   H14T12008   2.967   5.293   7.906  1.6709  1.3032  2.6377
  115OSM   C15S12009   2.856   5.479   7.908  0.2148  0.0064 -0.4334
  115OSM   H15S12010   2.757   5.445   7.869  0.0556  0.2360 -0.2354
  115OSM   H15T12011   2.868   5.577   7.857  2.6823 -0.7044 -1.2716
  115OSM   C16S12012   2.855   5.506   8.059 -0.1554  0.0181 -0.0823
  115OSM   H16S12013   2.774   5.580   8.074  0.3563  0.7126 -0.7236
  115OSM   H16T12014   2.954   5.544   8.091 -0.3324 -0.9621  1.7102
  115OSM   C17S12015   2.822   5.378   8.141 -0.0366  0.3404  0.6353
  115OSM   H17S12016   2.892   5.300   8.104 -0.5124  1.0158 -1.7611
  115OSM   H17T12017   2.723   5.345   8.102  0.7760  0.4265 -1.5719
  115OSM   C18S12018   2.824   5.390   8.296 -0.1552  0.4269  0.1720
  115OSM   H18S12019   2.921   5.442   8.310  0.4623 -0.0690 -2.0484
  115OSM   H18T12020   2.813   5.290   8.344  0.2239  0.4025  0.2044
  115OSM   H18U12021   2.735   5.452   8.322 -0.4924 -0.3280  0.8653
  115OSM    C1F12022   2.925   4.847   6.671 -0.2319 -0.3532 -0.3449
  115OSM     OF12023   2.971   4.738   6.639 -0.3872 -0.1728  0.6962
  115OSM    C2F12024   2.787   4.860   6.733  0.1371  0.1013  0.3272
  115OSM    H2F12025   2.723   4.806   6.659  0.2003 -0.1256  0.4385
  115OSM    H2G12026   2.755   4.966   6.736  0.3435  0.2457 -1.4672
  115OSM    C3F12027   2.780   4.801   6.873 -0.2621 -0.6318  0.1327
  115OSM    H3F12028   2.827   4.701   6.866  0.9221 -0.1737  1.2206
  115OSM    H3G12029   2.672   4.806   6.897 -0.2132  2.3485 -0.0314
  115OSM    C4F12030   2.858   4.883   6.984 -0.2158  0.9451 -0.2681
  115OSM    H4F12031   2.817   4.985   6.995 -1.7751  0.2513  0.4695
  115OSM    H4G12032   2.964   4.884   6.951  0.5645  1.0630  2.1641
  115OSM    C5F12033   2.881   4.804   7.121  0.2870  0.5859 -0.1359
  115OSM    H5F12034   2.925   4.870   7.198  0.1822  0.5507 -0.0453
  115OSM    H5G12035   2.941   4.715   7.092 -0.3938 -0.6285  2.0643
  115OSM    C6F12036   2.748   4.762   7.182  0.0003  0.1978  0.1538
  115OSM    H6F12037   2.680   4.711   7.110 -0.4822 -0.1029  0.8085
  115OSM    H6G12038   2.682   4.845   7.218  2.0221  1.2718  1.4606
  115OSM    C7F12039   2.769   4.661   7.302  0.5700  0.1916  0.4066
  115OSM    H7F12040   2.848   4.590   7.269 -0.9196 -0.8196 -1.0318
  115OSM    H7G12041   2.669   4.614   7.310 -0.1016  1.3175 -1.1293
  115OSM    C8F12042   2.807   4.715   7.435 -0.1057 -0.4193  0.3764
  115OSM    H8F12043   2.716   4.772   7.464  0.9502  1.6902 -0.3011
  115OSM    H8G12044   2.891   4.788   7.426  1.0807 -1.6258  1.5555
  115OSM    C9F12045   2.849   4.604   7.531 -0.2970  0.0392 -0.3538
  115OSM    H9F12046   2.836   4.501   7.494 -1.1247 -0.5032  1.3954
  115OSM   C10F12047   2.890   4.622   7.656 -0.1637 -0.0241 -0.2421
  115OSM   H10F12048   2.917   4.530   7.709 -1.2778 -0.0841  0.2276
  115OSM   C11F12049   2.904   4.748   7.730  0.3373 -0.6717 -0.9803
  115OSM   H11F12050   2.866   4.838   7.678  0.0242  1.0191  2.0764
  115OSM   H11G12051   3.009   4.774   7.755 -0.6233  2.4201  0.0598
  115OSM   C12F12052   2.821   4.755   7.857 -0.0989 -0.6553 -0.4013
  115OSM   H12F12053   2.721   4.710   7.841 -0.0825 -0.9849  0.3891
  115OSM   H12G12054   2.803   4.861   7.883  1.4551 -0.3640 -0.4403
  115OSM   C13F12055   2.871   4.673   7.974  0.0531  0.1750  0.7911
  115OSM   H13F12056   2.877   4.565   7.946 -2.9948  0.3380 -0.6861
  115OSM   H13G12057   2.791   4.678   8.051 -1.3574  0.6101 -0.6624
  115OSM   C14F12058   2.998   4.740   8.042  0.1099  0.8077  0.2371
  115OSM   H14F12059   2.976   4.849   8.033 -2.7394  0.3703  1.4008
  115OSM   H14G12060   3.087   4.713   7.981  2.1915  1.9663  2.6791
  115OSM   C15F12061   3.012   4.677   8.181  0.8404 -0.1309  0.7418
  115OSM   H15F12062   3.019   4.567   8.173  1.1128 -0.0459 -0.2901
  115OSM   H15G12063   2.918   4.706   8.233  0.5250  0.8768 -0.3504
  115OSM   C16F12064   3.121   4.726   8.264  0.4843 -1.0223  0.5173
  115OSM   H16F12065   3.100   4.696   8.369 -1.0016 -1.6985  0.0401
  115OSM   H16G12066   3.134   4.835   8.247 -1.6164 -1.0229 -1.2640
  115OSM   C17F12067   3.264   4.679   8.221  0.2985 -0.0756 -0.6563
  115OSM   H17F12068   3.287   4.700   8.115 -0.0487  0.4489 -0.6328
  115OSM   H17G12069   3.273   4.568   8.232  4.5025  0.2343 -0.1965
  115OSM   C18F12070   3.377   4.728   8.317 -0.0749  0.1229  0.2590
  115OSM   H18F12071   3.477   4.701   8.277  1.8977  4.1614  2.2174
  115OSM   H18G12072   3.382   4.657   8.403  1.0927 -1.0542 -0.7484
  115OSM   H18H12073   3.356   4.831   8.350  1.0476 -0.4705  2.9209
  116OSM      N12074   1.352   2.220   5.919  0.1435  0.3307 -0.2796
  116OSM    C1512075   1.433   2.284   5.804 -0.2029 -0.1772  0.2807
  116OSM   H15A12076   1.540   2.283   5.822  0.1463  3.9097 -1.2170
  116OSM   H15B12077   1.413   2.389   5.790  1.2469  0.0082 -0.5096
  116OSM   H15C12078   1.428   2.228   5.711  0.7122  1.5390 -0.8211
  116OSM    C1412079   1.209   2.203   5.872 -0.1178  0.6384 -0.0461
  116OSM   H14A12080   1.147   2.167   5.953 -0.0795 -1.8582 -1.0681
  116OSM   H14B12081   1.205   2.124   5.798  0.8764 -1.5493  2.1264
  116OSM   H14C12082   1.164   2.288   5.824 -0.7196  0.8203  0.8203
  116OSM    C1312083   1.421   2.093   5.953  0.8549 -0.5343 -0.0584
  116OSM   H13A12084   1.358   2.049   6.029  0.3702 -0.4851 -0.4303
  116OSM   H13B12085   1.517   2.116   5.996 -0.3944  1.5949  1.7205
  116OSM   H13C12086   1.441   2.035   5.864  2.4751  2.4150 -1.6930
  116OSM    C1212087   1.360   2.310   6.042  0.3371 -0.5995  0.2196
  116OSM   H12A12088   1.325   2.408   6.014 -0.6384 -0.9670  0.1098
  116OSM   H12B12089   1.465   2.328   6.061  0.3022 -2.0769  1.9934
  116OSM    C1112090   1.275   2.277   6.174 -0.4380  0.1065  0.1162
  116OSM   H11A12091   1.306   2.361   6.240  0.2727  0.3732 -0.5517
  116OSM   H11B12092   1.330   2.189   6.215 -1.0618  0.5915  2.0248
  116OSM      P12093   1.031   2.331   6.237  0.0817 -0.5964  0.4011
  116OSM    O1312094   1.026   2.461   6.167  0.2427  0.4103  1.0068
  116OSM    O1412095   0.903   2.261   6.249 -0.5317 -0.5003 -0.1042
  116OSM    O1112096   1.101   2.343   6.375  0.3335 -0.1755 -0.5463
  116OSM    O1212097   1.135   2.248   6.159  0.0629 -0.2936  0.1598
  116OSM    C1S12098   1.106   2.228   6.458 -0.5905 -0.5017  0.2123
  116OSM    H1S12099   1.194   2.163   6.437 -2.2878 -1.9167 -2.7656
  116OSM    H1T12100   1.022   2.156   6.448 -0.8922 -0.0310 -0.6212
  116OSM     NF12101   1.151   2.149   6.697 -0.3147 -0.6978 -0.0938
  116OSM    HNF12102   1.079   2.088   6.728  0.3796 -2.4559 -1.8552
  116OSM    C2S12103   1.107   2.260   6.612  0.3383  1.0452 -0.2636
  116OSM    H2S12104   1.184   2.338   6.624  1.3968 -0.0797  0.3898
  116OSM    C3S12105   0.966   2.321   6.655  0.2546 -0.1807 -0.2603
  116OSM    H3S12106   0.887   2.246   6.632 -1.6935  1.9426 -0.7290
  116OSM     O312107   0.915   2.427   6.574  0.2399 -0.2304  0.6443
  116OSM    HO312108   0.956   2.415   6.488 -0.1852  0.6142  0.3166
  116OSM    C4S12109   0.967   2.366   6.799  0.2095  0.3717  0.0946
  116OSM    H4S12110   0.943   2.278   6.861  0.7776 -1.2771 -1.9884
  116OSM    C5S12111   0.990   2.485   6.856  0.0348 -0.5817  0.3783
  116OSM    H5S12112   1.006   2.569   6.787 -0.5593 -1.2013 -0.5444
  116OSM    C6S12113   0.983   2.511   7.007 -0.2379 -0.2862 -0.4261
  116OSM    H6S12114   0.987   2.621   7.026 -1.5577 -0.5795  1.6956
  116OSM    H6T12115   1.072   2.461   7.051  0.6963  2.1493  0.5586
  116OSM    C7S12116   0.849   2.465   7.071 -0.1722  0.7878  0.0323
  116OSM    H7S12117   0.825   2.362   7.038 -2.4437  0.7046  1.7646
  116OSM    H7T12118   0.766   2.531   7.038 -0.9626 -0.2392 -0.0874
  116OSM    C8S12119   0.853   2.471   7.230 -0.9219  0.1340  0.6749
  116OSM    H8S12120   0.892   2.559   7.285  0.5767 -0.8043  1.1476
  116OSM    H8T12121   0.930   2.398   7.263 -2.0020 -0.9108  0.9188
  116OSM    C9S12122   0.717   2.438   7.297 -0.4863 -0.0173  0.4086
  116OSM    H9S12123   0.689   2.331   7.289  1.3429 -0.4789 -0.1413
  116OSM    H9T12124   0.638   2.498   7.248 -1.8003 -1.9933  0.0788
  116OSM   C10S12125   0.711   2.458   7.458 -0.0944 -0.1134  0.0461
  116OSM   H10S12126   0.793   2.396   7.501  1.4786  1.6819 -0.2990
  116OSM   H10T12127   0.611   2.431   7.497 -0.1614  1.4865  1.0070
  116OSM   C11S12128   0.742   2.604   7.497  0.2701 -0.1540 -0.6219
  116OSM   H11S12129   0.676   2.671   7.438 -0.1528 -0.8771 -0.9875
  116OSM   H11T12130   0.846   2.627   7.467  0.1221  1.9692  0.4493
  116OSM   C12S12131   0.727   2.635   7.644 -0.1419  0.3420 -0.1448
  116OSM   H12S12132   0.620   2.649   7.671 -0.6350 -2.3300 -0.5945
  116OSM   H12T12133   0.774   2.734   7.662 -0.2259  0.2957  0.3392
  116OSM   C13S12134   0.799   2.533   7.735  0.1548  0.8163  0.0553
  116OSM   H13S12135   0.907   2.540   7.709  0.2671 -1.1956 -0.0870
  116OSM   H13T12136   0.758   2.432   7.713 -1.6063  1.1464  1.7447
  116OSM   C14S12137   0.780   2.561   7.887 -0.5553  0.0101  0.2781
  116OSM   H14S12138   0.679   2.540   7.927  0.3269 -1.1355  1.9539
  116OSM   H14T12139   0.822   2.662   7.908  2.1801 -1.1285  0.5286
  116OSM   C15S12140   0.869   2.476   7.975  0.5435  1.0203  0.4259
  116OSM   H15S12141   0.974   2.467   7.940 -1.0999 -1.5442 -4.2690
  116OSM   H15T12142   0.835   2.370   7.981  3.6780 -0.1783 -2.0201
  116OSM   C16S12143   0.876   2.531   8.117  0.0254 -0.4411  0.0365
  116OSM   H16S12144   0.786   2.511   8.178  0.6276 -1.7584  0.5066
  116OSM   H16T12145   0.896   2.640   8.106 -2.0992  0.1608  1.7730
  116OSM   C17S12146   0.996   2.469   8.194 -0.6062 -0.2284 -0.5004
  116OSM   H17S12147   1.009   2.534   8.284  1.1674 -1.6012  0.2550
  116OSM   H17T12148   1.092   2.486   8.140 -0.0335 -1.8548 -0.0041
  116OSM   C18S12149   0.982   2.325   8.228  0.1145 -0.1571 -0.1659
  116OSM   H18S12150   1.004   2.260   8.140 -1.4739 -0.7646 -0.1321
  116OSM   H18T12151   0.883   2.295   8.270  0.5430  0.6122  1.4451
  116OSM   H18U12152   1.055   2.295   8.307  0.7341  0.7219 -0.4103
  116OSM    C1F12153   1.275   2.098   6.699 -0.0251 -0.3759  0.1651
  116OSM     OF12154   1.364   2.138   6.630  0.0898  0.4771 -0.1507
  116OSM    C2F12155   1.292   1.989   6.791 -0.3162  0.1377 -1.1073
  116OSM    H2F12156   1.315   1.899   6.730  2.3173  0.4097 -0.5435
  116OSM    H2G12157   1.209   1.960   6.859  1.5884 -0.1747  1.0970
  116OSM    C3F12158   1.410   2.022   6.878 -0.0238 -0.4716 -0.8564
  116OSM    H3F12159   1.501   2.051   6.822 -0.2694  0.4632 -0.7833
  116OSM    H3G12160   1.430   1.944   6.954 -0.7760 -2.6190 -2.8078
  116OSM    C4F12161   1.396   2.151   6.971  0.3057 -0.0533  0.8876
  116OSM    H4F12162   1.384   2.234   6.899 -4.3326 -0.3754  1.1240
  116OSM    H4G12163   1.490   2.180   7.023  1.2833 -0.2263 -0.7779
  116OSM    C5F12164   1.286   2.135   7.073  0.3354 -0.0154 -0.5876
  116OSM    H5F12165   1.287   2.030   7.108 -0.2432  0.2949  0.3856
  116OSM    H5G12166   1.192   2.158   7.019 -1.0948 -1.0042  1.4103
  116OSM    C6F12167   1.294   2.234   7.191  0.4106 -0.0648 -0.3002
  116OSM    H6F12168   1.278   2.334   7.147 -0.6521  1.1222  2.6661
  116OSM    H6G12169   1.397   2.241   7.233  0.5779  1.2195 -0.9171
  116OSM    C7F12170   1.207   2.202   7.312 -0.1074 -0.0594 -0.2611
  116OSM    H7F12171   1.260   2.124   7.371  3.1172  0.5539 -2.1761
  116OSM    H7G12172   1.110   2.162   7.276 -0.8699  0.9877  0.5989
  116OSM    C8F12173   1.189   2.332   7.397 -0.0976  0.1764 -0.5664
  116OSM    H8F12174   1.136   2.408   7.336  0.8374  1.2358 -0.0888
  116OSM    H8G12175   1.293   2.372   7.407 -0.7404  1.5519  0.8883
  116OSM    C9F12176   1.098   2.329   7.516  0.5298 -0.1809 -0.4748
  116OSM    H9F12177   0.989   2.323   7.501  0.0600  0.8089  2.1286
  116OSM   C10F12178   1.137   2.337   7.644  0.8519  0.4513 -0.7103
  116OSM   H10F12179   1.062   2.325   7.723  1.9046  1.9415  0.5629
  116OSM   C11F12180   1.279   2.345   7.687  0.7845 -0.2702  0.0689
  116OSM   H11F12181   1.302   2.408   7.776  0.0066  1.2076 -0.7643
  116OSM   H11G12182   1.348   2.385   7.610  0.0977  2.5869  0.8784
  116OSM   C12F12183   1.327   2.197   7.714 -0.0866  0.0358 -0.0430
  116OSM   H12F12184   1.435   2.206   7.740  0.1408 -0.5402 -0.7436
  116OSM   H12G12185   1.322   2.146   7.615  2.3263  0.6174 -0.4862
  116OSM   C13F12186   1.256   2.110   7.819 -0.6291 -0.0024  0.8529
  116OSM   H13F12187   1.289   2.005   7.807 -1.7408 -0.2737  0.1903
  116OSM   H13G12188   1.150   2.114   7.788 -0.0095  0.7443 -1.2780
  116OSM   C14F12189   1.301   2.157   7.957 -0.5936 -0.1976  0.1739
  116OSM   H14F12190   1.280   2.265   7.973  1.8615  0.2158  0.8900
  116OSM   H14G12191   1.410   2.135   7.962  0.1682  2.9322 -1.5812
  116OSM   C15F12192   1.237   2.061   8.051  0.1482 -0.0812 -0.9256
  116OSM   H15F12193   1.273   1.956   8.044  0.3647 -0.3048  2.7300
  116OSM   H15G12194   1.128   2.063   8.033 -0.1031  0.5052  0.6034
  116OSM   C16F12195   1.252   2.093   8.201  0.0796 -0.2641 -0.4482
  116OSM   H16F12196   1.173   2.034   8.252  2.0109 -1.2754  1.4527
  116OSM   H16G12197   1.240   2.202   8.215 -0.6484 -0.4997  0.7546
  116OSM   C17F12198   1.385   2.052   8.257  0.2045 -0.5016 -0.4165
  116OSM   H17F12199   1.452   2.138   8.236 -2.2801  1.5873  0.0721
  116OSM   H17G12200   1.421   1.957   8.212  2.7115 -0.0733  0.5630
  116OSM   C18F12201   1.387   2.052   8.408  0.2904 -0.1185  0.3290
  116OSM   H18F12202   1.487   2.074   8.451 -0.0190  0.1270  0.9336
  116OSM   H18G12203   1.356   1.949   8.436 -2.0389  0.7615  1.1308
  116OSM   H18H12204   1.320   2.127   8.456 -1.7553 -0.9839 -1.1038
  117OSM      N12205   0.474   4.575   6.271 -0.3822 -0.3626 -0.0014
  117OSM    C1512206   0.533   4.597   6.132 -0.1697 -0.1379  0.0051
  117OSM   H15A12207   0.635   4.568   6.114 -0.5473 -2.0127  0.8686
  117OSM   H15B12208   0.524   4.702   6.108  0.0113 -0.3433 -0.9761
  117OSM   H15C12209   0.473   4.537   6.065  0.2134 -0.2440 -0.2454
  117OSM    C1412210   0.507   4.439   6.318  0.2173  0.5119  0.2776
  117OSM   H14A12211   0.455   4.431   6.412  0.2881  1.0930  0.3651
  117OSM   H14B12212   0.614   4.433   6.321  0.2303 -0.2675 -1.0306
  117OSM   H14C12213   0.466   4.376   6.240  0.1415  0.3164  0.4743
  117OSM    C1312214   0.540   4.668   6.363 -0.5022 -0.3740  0.7354
  117OSM   H13A12215   0.514   4.646   6.466 -0.7883 -0.2890  0.6837
  117OSM   H13B12216   0.531   4.773   6.341  1.7677 -0.0172  1.4463
  117OSM   H13C12217   0.643   4.642   6.346 -0.1986  0.6728  0.9553
  117OSM    C1212218   0.317   4.594   6.275 -0.3225 -0.8163 -0.7878
  117OSM   H12A12219   0.268   4.514   6.220 -1.4509  0.2944 -1.4125
  117OSM   H12B12220   0.298   4.692   6.234 -1.7933 -0.2333  1.2259
  117OSM    C1112221   0.236   4.584   6.411 -0.3007 -0.0862 -0.0944
  117OSM   H11A12222   0.133   4.620   6.390  0.3348  0.7909 -1.8830
  117OSM   H11B12223   0.286   4.654   6.482 -1.5140  2.4524 -1.6414
  117OSM      P12224   0.134   4.355   6.435  0.2680 -0.0559 -0.1067
  117OSM    O1312225   0.010   4.392   6.501 -0.4614  0.4684 -0.2587
  117OSM    O1412226   0.126   4.344   6.289 -0.2865  0.8467 -0.2139
  117OSM    O1112227   0.176   4.213   6.500  0.0734  1.1050 -0.2558
  117OSM    O1212228   0.242   4.458   6.470  0.3166 -0.7783 -0.2703
  117OSM    C1S12229   0.232   4.203   6.629 -0.1682  0.7727  0.5958
  117OSM    H1S12230   0.250   4.305   6.670 -0.0273  0.7677  0.5475
  117OSM    H1T12231   0.330   4.151   6.637 -0.1793  0.5015 -0.8968
  117OSM     NF12232   0.184   4.144   6.854 -0.6797 -0.1155 -0.1467
  117OSM    HNF12233   0.233   4.065   6.890 -1.3340 -0.5561 -0.2181
  117OSM    C2S12234   0.131   4.129   6.719  0.3476 -0.1737  0.2333
  117OSM    H2S12235   0.029   4.173   6.721  0.4989  0.1221  2.2701
  117OSM    C3S12236   0.120   3.979   6.688  0.3315 -0.2604 -0.4419
  117OSM    H3S12237   0.221   3.932   6.699  1.3701  1.6412 -1.5605
  117OSM     O312238   0.071   3.955   6.555 -0.5603 -0.6740 -0.8514
  117OSM    HO312239   0.097   4.033   6.504  2.0913 -1.1847 -0.3654
  117OSM    C4S12240   0.028   3.920   6.792 -0.7651  0.4418  0.2165
  117OSM    H4S12241   0.084   3.917   6.886 -0.9126 -0.3495  0.2799
  117OSM    C5S12242  -0.104   3.885   6.792 -0.1082  0.0294 -0.1033
  117OSM    H5S12243  -0.164   3.908   6.703 -1.8413 -0.2022  0.9786
  117OSM    C6S12244  -0.184   3.833   6.909 -0.0143  0.2344 -0.3952
  117OSM    H6S12245  -0.236   3.738   6.883 -1.0407 -0.0902  2.6438
  117OSM    H6T12246  -0.261   3.911   6.927  1.9685  2.0191  0.5895
  117OSM    C7S12247  -0.104   3.799   7.038 -0.1089  0.1825  0.8113
  117OSM    H7S12248  -0.083   3.889   7.100  0.6943 -0.0865  0.9281
  117OSM    H7T12249  -0.001   3.758   7.029 -0.2102 -0.1230  1.0149
  117OSM    C8S12250  -0.183   3.704   7.129  0.6523  0.1067 -0.2823
  117OSM    H8S12251  -0.177   3.596   7.100 -1.6699 -0.4460  1.1652
  117OSM    H8T12252  -0.288   3.740   7.129  0.3916 -0.6256  1.5149
  117OSM    C9S12253  -0.139   3.709   7.278 -0.4551  0.1243  0.2873
  117OSM    H9S12254  -0.164   3.810   7.317  1.4550  0.3573  0.9602
  117OSM    H9T12255  -0.028   3.698   7.283 -0.3757  1.2195  1.1906
  117OSM   C10S12256  -0.199   3.603   7.370  0.1177  0.5951  0.4765
  117OSM   H10S12257  -0.192   3.503   7.322 -3.8768  0.7081 -0.5084
  117OSM   H10T12258  -0.307   3.621   7.387  0.0904  0.9541 -0.0313
  117OSM   C11S12259  -0.128   3.590   7.512  0.2709 -0.4346 -0.2657
  117OSM   H11S12260  -0.019   3.584   7.493  0.4745  0.6259  0.4852
  117OSM   H11T12261  -0.144   3.500   7.575  2.5113 -0.9612 -0.3993
  117OSM   C12S12262  -0.164   3.713   7.599  0.5176  0.6899  0.3769
  117OSM   H12S12263  -0.274   3.730   7.599  0.5890  1.1704 -0.1925
  117OSM   H12T12264  -0.114   3.804   7.559 -2.8172  2.3752 -0.1005
  117OSM   C13S12265  -0.123   3.696   7.750  0.1527 -0.0942 -0.5120
  117OSM   H13S12266  -0.013   3.686   7.764  0.0978 -0.7455 -0.4997
  117OSM   H13T12267  -0.157   3.593   7.776  0.5670 -0.0646  0.1604
  117OSM   C14S12268  -0.164   3.816   7.844 -0.0405 -0.4080 -0.1123
  117OSM   H14S12269  -0.269   3.843   7.820 -0.4371 -2.3331 -0.6098
  117OSM   H14T12270  -0.099   3.897   7.805 -2.0287  0.9222 -0.7664
  117OSM   C15S12271  -0.146   3.783   7.991 -0.7147 -0.0089  0.8985
  117OSM   H15S12272  -0.131   3.879   8.045 -0.5999  0.3548  0.2296
  117OSM   H15T12273  -0.064   3.712   8.013 -0.6605  0.4596  2.2582
  117OSM   C16S12274  -0.284   3.719   8.041  0.3121 -0.2443  0.7465
  117OSM   H16S12275  -0.311   3.641   7.966  2.5264  1.3834 -1.7904
  117OSM   H16T12276  -0.362   3.798   8.042 -1.4646 -1.9436  0.3783
  117OSM   C17S12277  -0.256   3.643   8.170 -0.2132  0.4351 -0.4076
  117OSM   H17S12278  -0.226   3.719   8.246  0.7920 -0.3379 -0.0173
  117OSM   H17T12279  -0.172   3.570   8.176  0.2250  0.8620 -1.3433
  117OSM   C18S12280  -0.380   3.572   8.218  0.7985 -0.1713  0.8044
  117OSM   H18S12281  -0.353   3.504   8.302  0.8924 -0.5154  0.4916
  117OSM   H18T12282  -0.411   3.499   8.141 -1.2653  0.5928  0.8531
  117OSM   H18U12283  -0.464   3.639   8.247  0.4428 -0.1821 -0.2001
  117OSM    C1F12284   0.171   4.259   6.918  0.6167  0.3808  0.0463
  117OSM     OF12285   0.092   4.343   6.877  0.3252  0.5950  0.2692
  117OSM    C2F12286   0.245   4.280   7.046 -0.2787 -1.4836  0.1840
  117OSM    H2F12287   0.332   4.346   7.027 -0.3287 -1.0321  1.4415
  117OSM    H2G12288   0.289   4.184   7.081 -4.1514 -2.0149  4.0110
  117OSM    C3F12289   0.154   4.341   7.148 -0.0906 -0.0612 -0.4547
  117OSM    H3F12290   0.064   4.276   7.157 -1.7797  1.8351 -2.7746
  117OSM    H3G12291   0.109   4.431   7.100  0.8668  1.1710  0.9334
  117OSM    C4F12292   0.218   4.359   7.282  0.4900 -0.0183  0.4134
  117OSM    H4F12293   0.282   4.449   7.275 -1.8143  1.7373  1.1927
  117OSM    H4G12294   0.286   4.274   7.304 -0.9115 -1.0373  0.8808
  117OSM    C5F12295   0.124   4.375   7.400 -0.5737  0.1173 -0.2108
  117OSM    H5F12296   0.075   4.283   7.440 -3.4369  1.6354 -0.1178
  117OSM    H5G12297   0.049   4.456   7.391  1.4519  1.9254 -1.5019
  117OSM    C6F12298   0.204   4.430   7.527 -0.8795  0.2334  0.1088
  117OSM    H6F12299   0.119   4.445   7.596 -1.8558 -2.1587 -0.5413
  117OSM    H6G12300   0.257   4.524   7.499  1.5442 -1.2634 -0.4843
  117OSM    C7F12301   0.314   4.332   7.583 -0.5207 -0.2872  0.6401
  117OSM    H7F12302   0.380   4.283   7.509 -2.1405  1.3409 -1.9230
  117OSM    H7G12303   0.263   4.244   7.627  1.7596 -0.4047  3.2185
  117OSM    C8F12304   0.403   4.396   7.680 -0.3412 -0.2106 -0.2254
  117OSM    H8F12305   0.443   4.491   7.640  0.0060  0.3883  1.4895
  117OSM    H8G12306   0.488   4.326   7.699 -1.8239 -2.3966 -1.4284
  117OSM    C9F12307   0.328   4.421   7.805 -0.2017  0.6704  0.1359
  117OSM    H9F12308   0.233   4.365   7.805  0.2404 -0.0965 -1.6026
  117OSM   C10F12309   0.360   4.508   7.904  0.0846  0.1087  0.0308
  117OSM   H10F12310   0.301   4.514   7.996 -1.2214 -0.6051 -0.7435
  117OSM   C11F12311   0.476   4.605   7.918 -0.0841  0.2646  0.4309
  117OSM   H11F12312   0.475   4.682   7.839  0.5646  0.6321  0.7759
  117OSM   H11G12313   0.571   4.549   7.928  0.9365  1.0043 -4.1133
  117OSM   C12F12314   0.478   4.679   8.055 -0.5651 -0.0901  0.3334
  117OSM   H12F12315   0.381   4.731   8.070 -1.0997 -1.2006  0.8259
  117OSM   H12G12316   0.552   4.762   8.059 -0.5451  0.0450 -2.0751
  117OSM   C13F12317   0.510   4.597   8.184 -0.1496  0.2805  1.0773
  117OSM   H13F12318   0.605   4.539   8.177 -0.8244 -0.7978  0.8153
  117OSM   H13G12319   0.431   4.525   8.214  0.2093  0.2605  2.0003
  117OSM   C14F12320   0.529   4.689   8.306  0.0814 -0.5613 -0.1416
  117OSM   H14F12321   0.435   4.747   8.312  1.1753  1.3156 -0.6371
  117OSM   H14G12322   0.619   4.748   8.278  0.3828 -0.1785  1.5770
  117OSM   C15F12323   0.556   4.616   8.439  0.9749  0.0191 -0.2567
  117OSM   H15F12324   0.649   4.555   8.434  1.5990  0.9992 -0.7778
  117OSM   H15G12325   0.482   4.533   8.446  0.9994  0.0888  0.8461
  117OSM   C16F12326   0.557   4.706   8.565 -0.4076  0.5415  0.3371
  117OSM   H16F12327   0.548   4.648   8.659 -0.7919  1.0375  0.6098
  117OSM   H16G12328   0.482   4.787   8.550 -0.5005  0.2056 -1.0767
  117OSM   C17F12329   0.689   4.772   8.585 -0.3527  0.1470  0.1102
  117OSM   H17F12330   0.755   4.688   8.614  0.7846  1.0255  0.1170
  117OSM   H17G12331   0.729   4.818   8.492 -0.1424 -1.3945 -0.5703
  117OSM   C18F12332   0.695   4.866   8.715  0.0462  0.1787 -0.7896
  117OSM   H18F12333   0.797   4.879   8.758  0.6746 -1.6355 -1.6955
  117OSM   H18G12334   0.632   4.822   8.795 -0.7829  0.1101 -1.4694
  117OSM   H18H12335   0.650   4.961   8.678  0.6394  0.0223 -1.9484
  118OSM      N12336   2.856   5.748   6.021  0.8263 -0.6357  0.2806
  118OSM    C1512337   2.989   5.760   6.068  0.4893  0.1980 -0.6825
  118OSM   H15A12338   3.018   5.721   6.164 -0.3458 -0.5011 -0.7040
  118OSM   H15B12339   3.003   5.867   6.074 -0.5723  0.3645 -1.0902
  118OSM   H15C12340   3.059   5.718   5.997 -0.5856 -0.7474 -1.2086
  118OSM    C1412341   2.841   5.800   5.879  0.5118  0.2180  0.3436
  118OSM   H14A12342   2.889   5.897   5.882 -0.0806  0.4953  0.9004
  118OSM   H14B12343   2.736   5.814   5.856  0.7818  0.1325 -0.9807
  118OSM   H14C12344   2.876   5.725   5.809 -1.3275  0.4270 -0.8469
  118OSM    C1312345   2.810   5.601   6.023 -0.0800  0.3341 -0.3792
  118OSM   H13A12346   2.814   5.550   6.118 -3.5553 -0.3680 -0.5473
  118OSM   H13B12347   2.875   5.537   5.965  0.0528 -1.2295  1.4233
  118OSM   H13C12348   2.718   5.593   5.967  0.1564 -1.3338 -0.5470
  118OSM    C1212349   2.753   5.827   6.106 -1.0902 -0.5667  0.4408
  118OSM   H12A12350   2.761   5.797   6.210 -0.6037 -0.7910  0.3378
  118OSM   H12B12351   2.652   5.800   6.079 -1.1595  0.8038 -0.7016
  118OSM    C1112352   2.763   5.974   6.110  0.4324  0.1000 -0.3933
  118OSM   H11A12353   2.686   6.012   6.181 -0.1890 -2.6476  0.4448
  118OSM   H11B12354   2.722   6.031   6.023  0.1806  0.0941 -0.2780
  118OSM      P12355   2.922   6.058   6.301 -0.4197  0.4123  0.2189
  118OSM    O1312356   3.061   6.013   6.327  0.5353  0.8116  0.6457
  118OSM    O1412357   2.893   6.197   6.326 -0.0797  0.3780 -0.0020
  118OSM    O1112358   2.813   5.978   6.387  0.3638 -0.5829 -0.4756
  118OSM    O1212359   2.892   6.020   6.147 -0.4510  0.6571  0.1913
  118OSM    C1S12360   2.845   5.918   6.513 -0.0933  0.7550  0.9070
  118OSM    H1S12361   2.936   5.855   6.509 -1.1084 -0.6727 -0.2087
  118OSM    H1T12362   2.771   5.842   6.544  0.9990 -0.2817  0.9870
  118OSM     NF12363   2.909   5.978   6.760  0.0717  0.1456  0.1559
  118OSM    HNF12364   2.852   5.943   6.834  0.8456 -0.3217  0.5374
  118OSM    C2S12365   2.846   6.022   6.628 -0.0566 -0.1328  0.2615
  118OSM    H2S12366   2.909   6.108   6.597  0.0646  0.5943  2.4069
  118OSM    C3S12367   2.696   6.069   6.637  0.2487  0.2853  0.3152
  118OSM    H3S12368   2.628   5.982   6.651  0.4938  0.3036  1.7703
  118OSM     O312369   2.642   6.127   6.518  0.7638  0.6925 -0.4216
  118OSM    HO312370   2.703   6.106   6.447 -0.9328 -0.9662 -1.4356
  118OSM    C4S12371   2.680   6.150   6.766 -0.4511 -0.0818 -0.2595
  118OSM    H4S12372   2.670   6.091   6.859 -2.6180 -0.4381 -0.7121
  118OSM    C5S12373   2.659   6.281   6.783 -0.2152 -0.2232  0.5931
  118OSM    H5S12374   2.642   6.351   6.700  0.1952  0.1839  0.8513
  118OSM    C6S12375   2.645   6.351   6.916 -0.2836  0.3703 -0.5127
  118OSM    H6S12376   2.540   6.382   6.933  0.0654  1.7268 -0.7569
  118OSM    H6T12377   2.711   6.441   6.916  1.6182 -0.9155  2.8492
  118OSM    C7S12378   2.672   6.263   7.041 -0.4250 -0.4679  1.1394
  118OSM    H7S12379   2.772   6.215   7.027 -1.4543 -2.1929 -0.4327
  118OSM    H7T12380   2.587   6.192   7.050 -2.5034  1.9033  0.7715
  118OSM    C8S12381   2.660   6.347   7.166  1.0040  0.3213 -0.1877
  118OSM    H8S12382   2.561   6.398   7.176  1.4627  0.8004  2.4144
  118OSM    H8T12383   2.738   6.426   7.161  0.4294  0.9414  0.4633
  118OSM    C9S12384   2.680   6.272   7.301  0.4245  0.2069 -0.5805
  118OSM    H9S12385   2.777   6.218   7.298  0.7095  0.7080 -0.5474
  118OSM    H9T12386   2.600   6.197   7.316  2.2517 -1.2663  2.0752
  118OSM   C10S12387   2.677   6.361   7.422 -0.0941  0.3141 -0.5812
  118OSM   H10S12388   2.590   6.430   7.414 -0.1365  0.3208 -0.0167
  118OSM   H10T12389   2.770   6.420   7.438  0.7675 -1.1236 -0.2455
  118OSM   C11S12390   2.663   6.264   7.541 -0.5310  0.3626 -0.0456
  118OSM   H11S12391   2.726   6.175   7.522  0.8206  1.3246 -0.1731
  118OSM   H11T12392   2.562   6.219   7.546 -0.4912  0.1190 -1.4284
  118OSM   C12S12393   2.708   6.322   7.680  0.3950  0.0536 -0.5706
  118OSM   H12S12394   2.818   6.316   7.665 -0.0147 -0.8562 -3.5420
  118OSM   H12T12395   2.681   6.251   7.761 -1.7999 -1.5751 -2.6422
  118OSM   C13S12396   2.654   6.461   7.701  0.4161  0.2174 -0.4319
  118OSM   H13S12397   2.544   6.451   7.690  0.5847 -2.1321 -0.2919
  118OSM   H13T12398   2.691   6.530   7.623  1.6211 -0.9713 -0.9372
  118OSM   C14S12399   2.686   6.517   7.841 -0.6855  0.1480 -0.3000
  118OSM   H14S12400   2.794   6.528   7.865 -0.4724  0.4670 -1.3556
  118OSM   H14T12401   2.658   6.434   7.908  0.0067  0.7243  0.7221
  118OSM   C15S12402   2.612   6.640   7.879  0.1326  0.1528  0.5991
  118OSM   H15S12403   2.528   6.643   7.806  0.0479 -1.4100  0.6053
  118OSM   H15T12404   2.663   6.737   7.865  0.8643  0.2778  3.7747
  118OSM   C16S12405   2.564   6.639   8.029  0.1539 -0.2242  1.2110
  118OSM   H16S12406   2.643   6.587   8.088 -0.7594 -2.3447  0.5783
  118OSM   H16T12407   2.473   6.576   8.039  1.7361 -2.8576 -0.3734
  118OSM   C17S12408   2.549   6.779   8.077 -0.2802  0.1167 -0.4560
  118OSM   H17S12409   2.467   6.827   8.019 -1.4787  1.8182  2.4894
  118OSM   H17T12410   2.645   6.833   8.061  0.3056 -0.9341 -0.4779
  118OSM   C18S12411   2.512   6.776   8.227 -0.2316 -0.1625  0.1921
  118OSM   H18S12412   2.494   6.877   8.270  3.4068 -0.0612  1.6284
  118OSM   H18T12413   2.586   6.719   8.288 -0.2048 -1.9369 -1.4345
  118OSM   H18U12414   2.420   6.715   8.237 -0.5246 -0.1376 -2.0817
  118OSM    C1F12415   3.034   5.959   6.776 -0.5610 -0.1705 -0.1469
  118OSM     OF12416   3.112   5.989   6.686 -0.0715  0.0938  0.0017
  118OSM    C2F12417   3.074   5.874   6.895 -0.4857  0.4739  0.4555
  118OSM    H2F12418   3.029   5.774   6.880  1.3937 -0.3542  0.2215
  118OSM    H2G12419   3.022   5.924   6.980 -1.9456 -0.2252 -0.0220
  118OSM    C3F12420   3.221   5.846   6.917 -0.0488  0.0856  0.9825
  118OSM    H3F12421   3.274   5.940   6.945  0.5702 -0.4154  1.5136
  118OSM    H3G12422   3.257   5.796   6.825 -0.7177 -2.9818  2.3009
  118OSM    C4F12423   3.251   5.746   7.031 -0.5383 -0.0655 -0.4637
  118OSM    H4F12424   3.355   5.712   7.014 -0.3447 -0.2753  1.0770
  118OSM    H4G12425   3.192   5.653   7.019 -0.8521  0.2606 -1.5285
  118OSM    C5F12426   3.241   5.811   7.171  0.3714  0.6227 -0.1182
  118OSM    H5F12427   3.148   5.866   7.193 -0.7073 -1.2087  0.0469
  118OSM    H5G12428   3.311   5.892   7.199 -0.2954  0.8152  1.0444
  118OSM    C6F12429   3.246   5.703   7.277  0.1379  0.4924 -0.6367
  118OSM    H6F12430   3.162   5.631   7.284  0.6739 -0.1124 -0.3346
  118OSM    H6G12431   3.230   5.759   7.372  0.3259 -0.6240  0.0610
  118OSM    C7F12432   3.382   5.631   7.266 -0.0295  0.0937 -0.0131
  118OSM    H7F12433   3.457   5.707   7.235  0.3525 -0.0428  0.5565
  118OSM    H7G12434   3.369   5.553   7.188 -0.8147 -0.0586  0.2687
  118OSM    C8F12435   3.428   5.587   7.408 -0.5579  0.4472  0.1002
  118OSM    H8F12436   3.346   5.534   7.461 -0.3467  1.3571  1.3416
  118OSM    H8G12437   3.457   5.673   7.472 -0.2731 -0.2901  0.9687
  118OSM    C9F12438   3.547   5.493   7.386  0.2483 -1.4378 -0.0472
  118OSM    H9F12439   3.609   5.515   7.299  0.1420  0.3015  0.2963
  118OSM   C10F12440   3.589   5.388   7.456 -0.7389  0.1755  0.2695
  118OSM   H10F12441   3.664   5.322   7.412  1.2039  2.2085  0.4590
  118OSM   C11F12442   3.522   5.329   7.582 -0.1999 -0.1841 -0.2328
  118OSM   H11F12443   3.519   5.218   7.581  0.6920 -0.2108 -2.5599
  118OSM   H11G12444   3.415   5.358   7.588  0.5255  2.4744  0.4270
  118OSM   C12F12445   3.583   5.383   7.711  0.3348  0.5711  0.0904
  118OSM   H12F12446   3.504   5.381   7.788 -0.9319 -0.4270 -1.2043
  118OSM   H12G12447   3.608   5.491   7.703  1.1004  0.2738 -2.0954
  118OSM   C13F12448   3.702   5.307   7.761 -0.2388 -0.3148 -0.0542
  118OSM   H13F12449   3.789   5.344   7.703 -1.1487 -0.4893 -1.5540
  118OSM   H13G12450   3.710   5.197   7.750  0.5286 -0.1728 -0.9984
  118OSM   C14F12451   3.732   5.343   7.910  0.1786  0.2247  0.0508
  118OSM   H14F12452   3.651   5.293   7.966 -0.4272  0.0464 -0.9740
  118OSM   H14G12453   3.718   5.453   7.916  1.7737  0.4057  0.7594
  118OSM   C15F12454   3.864   5.312   7.969 -0.2973 -0.4744  0.8081
  118OSM   H15F12455   3.943   5.374   7.921 -0.7331  0.5433  1.3991
  118OSM   H15G12456   3.892   5.204   7.968  1.3810 -0.0778  2.1116
  118OSM   C16F12457   3.867   5.364   8.115 -0.0457  0.0089 -0.1895
  118OSM   H16F12458   3.827   5.286   8.182 -0.5071  1.0912  0.7988
  118OSM   H16G12459   3.811   5.460   8.120  0.0991  0.0384  0.9583
  118OSM   C17F12460   4.014   5.400   8.153 -0.1434  0.0408 -0.4282
  118OSM   H17F12461   4.040   5.499   8.110 -0.8096  0.1914 -0.4921
  118OSM   H17G12462   4.087   5.334   8.102  1.3409 -0.3997  2.2190
  118OSM   C18F12463   4.050   5.409   8.302  0.9008 -0.3933  0.2379
  118OSM   H18F12464   4.160   5.410   8.319  1.0874  0.6832 -1.0081
  118OSM   H18G12465   4.009   5.327   8.365  2.3293 -0.5033  1.0582
  118OSM   H18H12466   4.012   5.507   8.338 -0.5003 -0.4394 -1.0599
  119OSM      N12467   5.051   4.857   5.899 -0.2828  0.6541  0.6188
  119OSM    C1512468   5.196   4.880   5.868  0.4572  0.1070  0.4987
  119OSM   H15A12469   5.234   4.813   5.791 -0.7872  0.7316 -0.6799
  119OSM   H15B12470   5.258   4.864   5.955  1.4037 -0.7872 -0.3263
  119OSM   H15C12471   5.212   4.977   5.823  0.1697  0.0980  0.3776
  119OSM    C1412472   5.038   4.710   5.929  0.5065  0.3453  0.0938
  119OSM   H14A12473   5.071   4.644   5.851  0.9852  0.5250  0.1419
  119OSM   H14B12474   4.934   4.687   5.947  0.5593 -0.6308 -0.8075
  119OSM   H14C12475   5.081   4.684   6.025 -0.3758 -0.3364  0.3057
  119OSM    C1312476   5.026   4.921   6.030 -0.1182 -0.0383 -0.0452
  119OSM   H13A12477   4.925   4.908   6.064 -0.6324 -0.3726 -1.6322
  119OSM   H13B12478   5.051   5.026   6.039 -0.1555  0.0067 -0.4577
  119OSM   H13C12479   5.085   4.867   6.102  1.3826 -0.9304 -1.8753
  119OSM    C1212480   4.969   4.907   5.781  0.4877  0.0236 -0.0571
  119OSM   H12A12481   5.019   4.870   5.693  0.1839 -0.0115 -0.2152
  119OSM   H12B12482   4.976   5.015   5.774 -0.7088  0.0855 -0.3946
  119OSM    C1112483   4.823   4.862   5.767 -0.3192  0.2061  0.3752
  119OSM   H11A12484   4.826   4.751   5.765  0.8098  0.1321  3.2846
  119OSM   H11B12485   4.787   4.899   5.669  3.5493  1.5694 -0.6507
  119OSM      P12486   4.605   4.816   5.892  0.2860  0.3594 -0.0181
  119OSM    O1312487   4.498   4.901   5.948 -0.5511 -0.7737 -0.5275
  119OSM    O1412488   4.574   4.750   5.763  0.3953 -0.0275 -0.0802
  119OSM    O1112489   4.661   4.710   5.999  0.5748  0.2121  0.3999
  119OSM    O1212490   4.737   4.907   5.870 -0.1536 -0.1125  0.4217
  119OSM    C1S12491   4.714   4.730   6.134 -0.6837 -0.5619  0.4210
  119OSM    H1S12492   4.734   4.838   6.149 -1.3986 -0.4664  0.6650
  119OSM    H1T12493   4.814   4.683   6.147  0.1769  0.6405 -1.5878
  119OSM     NF12494   4.666   4.723   6.379  0.3929 -0.2597  0.6442
  119OSM    HNF12495   4.692   4.652   6.444 -0.4270 -0.8036  0.3773
  119OSM    C2S12496   4.615   4.682   6.245  0.1403 -0.0306 -0.7785
  119OSM    H2S12497   4.519   4.721   6.207  0.0741 -1.4350 -2.0697
  119OSM    C3S12498   4.595   4.529   6.238  0.3666 -0.3046  0.1651
  119OSM    H3S12499   4.699   4.489   6.237  0.5576  0.1764  0.8098
  119OSM     O312500   4.524   4.491   6.117  0.5147  0.1309  0.2250
  119OSM    HO312501   4.539   4.567   6.061 -0.0924 -0.8629 -1.3137
  119OSM    C4S12502   4.506   4.473   6.347 -0.8233 -0.3511  0.9288
  119OSM    H4S12503   4.402   4.504   6.327 -0.5832  0.3133  0.6839
  119OSM    C5S12504   4.548   4.403   6.452  0.1300  0.7831 -0.0930
  119OSM    H5S12505   4.655   4.380   6.464  0.6879  2.8418 -0.9071
  119OSM    C6S12506   4.456   4.343   6.560  0.7587  0.2688  0.3651
  119OSM    H6S12507   4.506   4.254   6.603  0.5152  0.2798  0.6722
  119OSM    H6T12508   4.357   4.324   6.514  1.1412  2.9103 -1.6579
  119OSM    C7S12509   4.455   4.440   6.679 -0.1379 -0.6419  0.6070
  119OSM    H7S12510   4.560   4.453   6.713  0.4096  0.0043 -1.2492
  119OSM    H7T12511   4.413   4.393   6.770  1.2337 -0.0612  1.5606
  119OSM    C8S12512   4.380   4.569   6.652 -0.2791  0.3853 -0.5321
  119OSM    H8S12513   4.280   4.549   6.608  0.2547 -0.2680 -1.4671
  119OSM    H8T12514   4.437   4.631   6.580  1.3178  2.2718  2.2285
  119OSM    C9S12515   4.369   4.643   6.780 -0.1735  0.3301 -0.1855
  119OSM    H9S12516   4.466   4.675   6.824 -0.5468  1.4279 -0.1318
  119OSM    H9T12517   4.329   4.575   6.858 -0.1462 -0.4152 -0.8232
  119OSM   C10S12518   4.267   4.758   6.763 -0.0149 -0.7716 -0.0940
  119OSM   H10S12519   4.171   4.711   6.731  0.0574 -0.9701 -0.0197
  119OSM   H10T12520   4.297   4.825   6.680  0.5097  1.2904  1.7102
  119OSM   C11S12521   4.240   4.859   6.881 -0.5655 -0.2708  0.3063
  119OSM   H11S12522   4.133   4.887   6.868 -0.0088  1.3944 -0.9124
  119OSM   H11T12523   4.307   4.948   6.875  0.3352 -0.7324  3.1362
  119OSM   C12S12524   4.250   4.802   7.026  0.5618  0.4283  0.1499
  119OSM   H12S12525   4.350   4.757   7.040  1.3246  1.7022 -1.0687
  119OSM   H12T12526   4.171   4.724   7.032  0.6988  0.2999  0.2725
  119OSM   C13S12527   4.231   4.912   7.125 -0.4243 -0.6493 -0.9499
  119OSM   H13S12528   4.125   4.945   7.123 -0.1402  0.2494 -1.7394
  119OSM   H13T12529   4.276   5.005   7.085 -2.6490  0.5099 -0.8054
  119OSM   C14S12530   4.286   4.883   7.265 -0.3362  0.1985  0.2499
  119OSM   H14S12531   4.389   4.840   7.264 -0.3719  0.1214 -0.2417
  119OSM   H14T12532   4.216   4.810   7.312 -2.6270  2.9833  1.3106
  119OSM   C15S12533   4.277   5.007   7.359  0.8081 -0.8961  0.1871
  119OSM   H15S12534   4.171   5.040   7.359  0.5824 -1.5906  0.8183
  119OSM   H15T12535   4.345   5.088   7.327 -0.7800  0.2792 -0.2452
  119OSM   C16S12536   4.320   4.982   7.508  0.4304  0.0599 -0.7291
  119OSM   H16S12537   4.270   4.898   7.559  0.4793  1.0034  0.9308
  119OSM   H16T12538   4.300   5.070   7.573  0.0071 -1.4700  1.2610
  119OSM   C17S12539   4.479   4.953   7.518  0.6698 -0.4523 -0.0396
  119OSM   H17S12540   4.502   4.942   7.410  0.4841 -1.0832 -0.0196
  119OSM   H17T12541   4.493   4.851   7.561 -0.7466 -0.2223  0.9990
  119OSM   C18S12542   4.556   5.063   7.587 -0.0058 -0.1101 -0.4751
  119OSM   H18S12543   4.662   5.030   7.591  0.1370  0.4031  0.0724
  119OSM   H18T12544   4.517   5.074   7.690 -0.7775 -1.3627 -0.6310
  119OSM   H18U12545   4.557   5.161   7.535  1.1928  0.5234  0.7086
  119OSM    C1F12546   4.655   4.847   6.424 -0.3065 -0.4642  0.2385
  119OSM     OF12547   4.642   4.940   6.351 -0.0990 -1.1976 -0.3647
  119OSM    C2F12548   4.652   4.864   6.573 -0.2736 -0.0810 -0.2384
  119OSM    H2F12549   4.729   4.795   6.611 -2.4748 -1.4689  1.8583
  119OSM    H2G12550   4.550   4.840   6.612 -1.4315  1.2032 -2.3836
  119OSM    C3F12551   4.670   5.015   6.607  0.3976  0.4332  0.1083
  119OSM    H3F12552   4.575   5.071   6.592 -0.2318  0.8006  4.6601
  119OSM    H3G12553   4.751   5.052   6.541 -0.9055 -0.0168 -1.8116
  119OSM    C4F12554   4.707   5.033   6.754 -0.1731 -0.1813  0.5962
  119OSM    H4F12555   4.682   5.142   6.761  0.7906  0.0006  1.3805
  119OSM    H4G12556   4.816   5.014   6.765 -0.2218 -2.2834 -2.1849
  119OSM    C5F12557   4.623   4.957   6.851 -1.1935  0.3624  0.5453
  119OSM    H5F12558   4.642   4.849   6.834 -2.0387  0.3853 -0.5392
  119OSM    H5G12559   4.516   4.976   6.832 -0.0900  2.0267 -4.6753
  119OSM    C6F12560   4.643   4.992   7.002 -0.0232  0.3825 -0.6445
  119OSM    H6F12561   4.750   4.978   7.030  0.3150  0.9813 -1.6043
  119OSM    H6G12562   4.596   4.909   7.059  1.4915 -0.8229 -1.1237
  119OSM    C7F12563   4.597   5.131   7.035  0.0615 -0.3837 -0.0165
  119OSM    H7F12564   4.488   5.130   7.014 -0.2115 -2.9860  1.2234
  119OSM    H7G12565   4.640   5.203   6.962 -1.0729 -1.2762 -1.5850
  119OSM    C8F12566   4.615   5.170   7.180  0.1579  0.4550  0.3155
  119OSM    H8F12567   4.723   5.168   7.207  0.4664  1.9185 -0.7625
  119OSM    H8G12568   4.554   5.101   7.242 -2.9350  2.2363 -0.6393
  119OSM    C9F12569   4.551   5.301   7.207  0.2650  0.3312  0.2802
  119OSM    H9F12570   4.443   5.298   7.188 -0.0592  2.4718  1.6202
  119OSM   C10F12571   4.608   5.405   7.268  0.1618  0.8715 -0.4580
  119OSM   H10F12572   4.541   5.489   7.294  1.4602  1.4128  1.2308
  119OSM   C11F12573   4.747   5.432   7.311 -0.4405  0.1451 -0.0431
  119OSM   H11F12574   4.761   5.541   7.295 -0.3777  0.1828  0.2666
  119OSM   H11G12575   4.819   5.375   7.249  0.2832 -0.0254  0.9376
  119OSM   C12F12576   4.779   5.413   7.460  0.3946 -0.4906  0.4523
  119OSM   H12F12577   4.888   5.389   7.464  1.8062  4.7473 -1.8675
  119OSM   H12G12578   4.721   5.327   7.500 -0.1607 -0.2702  0.1295
  119OSM   C13F12579   4.735   5.536   7.538 -0.0214 -0.5862  0.0306
  119OSM   H13F12580   4.642   5.579   7.495  0.4777 -3.0940 -3.8180
  119OSM   H13G12581   4.815   5.611   7.521 -0.0301 -0.2422  1.4536
  119OSM   C14F12582   4.714   5.519   7.687 -0.3398 -0.2610  0.4768
  119OSM   H14F12583   4.625   5.453   7.698 -1.7450  1.8673  2.2642
  119OSM   H14G12584   4.691   5.616   7.736  2.7946 -0.5806  2.7598
  119OSM   C15F12585   4.832   5.457   7.762 -0.9730 -0.2472 -0.4333
  119OSM   H15F12586   4.926   5.510   7.736 -0.5400 -1.1861 -0.7997
  119OSM   H15G12587   4.857   5.353   7.731  0.8602  0.5899 -1.8688
  119OSM   C16F12588   4.796   5.475   7.909 -0.6272 -0.1899 -0.1152
  119OSM   H16F12589   4.738   5.389   7.948 -0.9611  0.0532 -0.0668
  119OSM   H16G12590   4.760   5.579   7.929 -1.7514 -0.7482  0.8085
  119OSM   C17F12591   4.926   5.462   7.990 -0.0285 -0.6804  0.1415
  119OSM   H17F12592   4.996   5.543   7.960 -0.5931  0.4915  1.9108
  119OSM   H17G12593   4.960   5.357   7.981 -0.1282 -0.6875 -0.1577
  119OSM   C18F12594   4.892   5.481   8.138 -0.3303  0.0972  0.6139
  119OSM   H18F12595   4.980   5.449   8.198 -0.2026 -0.4099  0.1630
  119OSM   H18G12596   4.801   5.424   8.163  1.5174 -2.1894  2.3670
  119OSM   H18H12597   4.883   5.589   8.160  0.5177  0.3275 -0.1146
  120OSM      N12598   1.644   3.529   6.634  0.1863 -0.5176  0.1545
  120OSM    C1512599   1.583   3.660   6.596  0.1910 -0.1912  0.3123
  120OSM   H15A12600   1.476   3.660   6.603  0.2293  1.0256  1.0322
  120OSM   H15B12601   1.622   3.685   6.499 -0.1758  1.4539  0.5805
  120OSM   H15C12602   1.623   3.741   6.655 -0.1737  0.1424  0.1038
  120OSM    C1412603   1.796   3.536   6.628 -0.4258 -0.0744 -0.1424
  120OSM   H14A12604   1.839   3.572   6.536  0.2262 -0.1235  0.1384
  120OSM   H14B12605   1.833   3.438   6.657  0.9006  0.8347  1.3686
  120OSM   H14C12606   1.828   3.611   6.699  1.5039 -0.1272 -0.9356
  120OSM    C1312607   1.616   3.505   6.780  0.4075  0.0947 -0.4882
  120OSM   H13A12608   1.513   3.507   6.810 -0.1456  0.3561 -2.3409
  120OSM   H13B12609   1.678   3.574   6.836 -1.0803  1.4545 -0.4880
  120OSM   H13C12610   1.661   3.410   6.806 -3.4884 -1.5620  0.4807
  120OSM    C1212611   1.595   3.426   6.538  0.1199  0.0429  0.2700
  120OSM   H12A12612   1.604   3.464   6.437  0.0922  1.2982  0.7372
  120OSM   H12B12613   1.488   3.427   6.550 -0.1700 -0.9704 -1.9524
  120OSM    C1112614   1.640   3.282   6.560  0.0248 -0.0011  1.0605
  120OSM   H11A12615   1.562   3.219   6.513  0.1609 -0.3856  1.3522
  120OSM   H11B12616   1.636   3.255   6.668 -1.6610 -1.6787  0.6050
  120OSM      P12617   1.834   3.164   6.433  0.1222 -0.0408  0.1583
  120OSM    O1312618   1.787   3.182   6.294  0.6603  0.1015 -0.1121
  120OSM    O1412619   1.980   3.162   6.453 -0.8026 -0.1114  0.1624
  120OSM    O1112620   1.769   3.026   6.494  0.0110  0.1423 -0.0085
  120OSM    O1212621   1.776   3.271   6.523  0.4621  0.3627  0.3816
  120OSM    C1S12622   1.802   3.006   6.636 -0.6985  0.5224 -0.2809
  120OSM    H1S12623   1.829   3.096   6.695  0.1410 -1.3924  2.3084
  120OSM    H1T12624   1.892   2.942   6.640  1.2412  3.0438 -1.9888
  120OSM     NF12625   1.718   2.889   6.844 -0.1021  0.0747  0.1974
  120OSM    HNF12626   1.720   2.792   6.865 -0.1413  0.0095 -0.1038
  120OSM    C2S12627   1.678   2.942   6.715  0.1054 -0.6497 -0.2690
  120OSM    H2S12628   1.603   3.023   6.729 -0.6078 -1.1583 -1.0975
  120OSM    C3S12629   1.606   2.841   6.631  0.4515  0.1651 -0.5594
  120OSM    H3S12630   1.683   2.766   6.603 -0.9787 -2.0328  1.2858
  120OSM     O312631   1.549   2.892   6.516 -0.4998  0.9425  0.1471
  120OSM    HO312632   1.624   2.931   6.471 -1.3029  1.1623 -0.9978
  120OSM    C4S12633   1.491   2.783   6.714  0.4119  0.5102 -0.3958
  120OSM    H4S12634   1.408   2.853   6.728 -0.3670  0.3632 -3.7990
  120OSM    C5S12635   1.482   2.655   6.749 -0.1372  0.1264 -0.4795
  120OSM    H5S12636   1.563   2.591   6.709  0.6927 -0.1177  1.5249
  120OSM    C6S12637   1.368   2.597   6.834  0.2298  0.8270 -0.3266
  120OSM    H6S12638   1.358   2.488   6.817  0.5487  0.9982 -1.6552
  120OSM    H6T12639   1.274   2.650   6.808 -1.7261 -1.6279  1.4839
  120OSM    C7S12640   1.387   2.625   6.981  0.6259 -0.4900  0.6703
  120OSM    H7S12641   1.289   2.614   7.034  0.5057  1.9036  0.9875
  120OSM    H7T12642   1.424   2.727   6.999  2.2722 -1.2370  1.5953
  120OSM    C8S12643   1.495   2.540   7.049  0.1701 -0.1754  0.0627
  120OSM    H8S12644   1.581   2.523   6.981  0.4804  0.7012  0.2266
  120OSM    H8T12645   1.447   2.442   7.070 -1.7615  0.8988  0.7411
  120OSM    C9S12646   1.537   2.591   7.184  0.2606  0.1770  0.3498
  120OSM    H9S12647   1.443   2.608   7.241 -0.1420 -0.9482  0.0206
  120OSM    H9T12648   1.582   2.693   7.183  1.7858 -0.4693  0.7230
  120OSM   C10S12649   1.627   2.488   7.254 -0.2869  0.0649 -0.3285
  120OSM   H10S12650   1.722   2.472   7.199  1.0177  1.3242  1.4778
  120OSM   H10T12651   1.578   2.389   7.267  0.8084 -0.6368 -1.4915
  120OSM   C11S12652   1.671   2.540   7.391  0.3712 -0.5583 -0.3924
  120OSM   H11S12653   1.589   2.573   7.459 -0.5596 -0.3434 -1.6064
  120OSM   H11T12654   1.741   2.624   7.372  2.0227 -1.9104 -0.3713
  120OSM   C12S12655   1.743   2.431   7.488  0.0752 -0.0526  0.7028
  120OSM   H12S12656   1.818   2.382   7.422 -2.0008  1.2649 -2.7982
  120OSM   H12T12657   1.668   2.349   7.499 -0.3810  0.2648 -0.0252
  120OSM   C13S12658   1.794   2.488   7.620  0.8324  0.3200  0.1167
  120OSM   H13S12659   1.701   2.514   7.674 -0.2602 -2.5016 -0.3540
  120OSM   H13T12660   1.847   2.585   7.606 -0.2816  1.1161  1.3239
  120OSM   C14S12661   1.872   2.377   7.701  0.5594 -0.6173 -0.0270
  120OSM   H14S12662   1.950   2.339   7.632  1.5591 -0.4460  0.9851
  120OSM   H14T12663   1.804   2.294   7.727  1.4645 -1.5296 -0.5226
  120OSM   C15S12664   1.929   2.443   7.826 -0.1190 -0.0548  0.9450
  120OSM   H15S12665   1.846   2.487   7.885 -0.6455 -0.8635  0.8221
  120OSM   H15T12666   1.999   2.527   7.804 -1.8416  0.9772 -0.7600
  120OSM   C16S12667   1.980   2.341   7.925 -0.1692 -0.2895  0.6519
  120OSM   H16S12668   2.080   2.303   7.895 -0.2221  1.6217 -2.0157
  120OSM   H16T12669   1.903   2.261   7.933 -2.3535  1.6152 -0.8449
  120OSM   C17S12670   2.015   2.412   8.060  0.3772  0.3867 -0.0142
  120OSM   H17S12671   2.024   2.335   8.139 -1.6437  0.0840 -0.0493
  120OSM   H17T12672   1.929   2.467   8.104  2.2266  1.7421  1.9979
  120OSM   C18S12673   2.133   2.513   8.055 -0.3215  0.4616  0.0522
  120OSM   H18S12674   2.148   2.558   8.156 -2.2480  0.6439  0.2734
  120OSM   H18T12675   2.106   2.593   7.982  1.0558  1.3218  0.4535
  120OSM   H18U12676   2.230   2.464   8.034 -0.4689 -0.7748  2.1313
  120OSM    C1F12677   1.768   2.971   6.936  0.4710  0.1359 -0.3305
  120OSM     OF12678   1.781   3.092   6.910 -0.2592  0.2424  0.3528
  120OSM    C2F12679   1.802   2.911   7.071 -0.0756 -0.6607  0.0592
  120OSM    H2F12680   1.881   2.834   7.058  1.2477  0.2120  2.7703
  120OSM    H2G12681   1.713   2.866   7.121  1.8235 -0.9260  3.2831
  120OSM    C3F12682   1.843   3.021   7.168  0.2083 -0.8434 -0.1226
  120OSM    H3F12683   1.762   3.097   7.174 -0.0152 -1.0820 -0.1306
  120OSM    H3G12684   1.932   3.067   7.120  0.6885  0.0252  1.5707
  120OSM    C4F12685   1.887   2.951   7.298 -0.3934 -0.0545  0.1161
  120OSM    H4F12686   1.961   3.016   7.350 -0.8835  0.1360  0.5705
  120OSM    H4G12687   1.936   2.855   7.269  0.5007  1.1908 -2.6825
  120OSM    C5F12688   1.775   2.938   7.392  0.0861  0.2238  0.5754
  120OSM    H5F12689   1.709   2.861   7.346 -0.1288 -0.1027  1.4171
  120OSM    H5G12690   1.709   3.027   7.398  0.6767  0.7417 -0.6500
  120OSM    C6F12691   1.802   2.896   7.537 -0.4535 -0.2270 -0.0607
  120OSM    H6F12692   1.813   2.785   7.538  1.2442 -0.0732  0.4825
  120OSM    H6G12693   1.715   2.919   7.603 -0.9860  0.0592 -0.8646
  120OSM    C7F12694   1.928   2.956   7.600  0.3196 -0.5089  0.3945
  120OSM    H7F12695   1.923   3.066   7.590 -0.7421 -0.5135  0.8305
  120OSM    H7G12696   2.013   2.921   7.537  0.3369 -0.1386  0.2123
  120OSM    C8F12697   1.955   2.922   7.745 -0.8775  0.2883  0.2304
  120OSM    H8F12698   2.057   2.951   7.777 -0.8321  1.2524 -0.7763
  120OSM    H8G12699   1.951   2.813   7.764 -0.1022 -0.1264 -1.8109
  120OSM    C9F12700   1.864   3.005   7.834  0.0876 -0.5387 -0.6107
  120OSM    H9F12701   1.771   3.041   7.788 -0.0110  0.7326  0.5499
  120OSM   C10F12702   1.878   3.036   7.968 -0.3523  0.7018  0.4060
  120OSM   H10F12703   1.797   3.093   8.016 -0.0046  1.4445  0.1284
  120OSM   C11F12704   1.985   3.008   8.067 -0.6141 -0.2575  0.0488
  120OSM   H11F12705   2.036   3.102   8.096 -1.1327 -0.6581  2.3858
  120OSM   H11G12706   2.067   2.941   8.034  0.3339  0.8637  0.0911
  120OSM   C12F12707   1.936   2.950   8.202  0.3123 -0.1675  0.6863
  120OSM   H12F12708   1.864   2.866   8.190  1.1861 -0.6018 -1.9562
  120OSM   H12G12709   1.884   3.029   8.259 -0.0675 -0.2361  0.4389
  120OSM   C13F12710   2.040   2.903   8.313 -0.3770  0.0967  0.5269
  120OSM   H13F12711   2.106   2.989   8.334 -0.6539  0.5421 -0.3809
  120OSM   H13G12712   2.099   2.826   8.259  0.5167 -1.1636  3.2085
  120OSM   C14F12713   1.972   2.848   8.431 -0.4555 -0.0731  0.3983
  120OSM   H14F12714   1.887   2.785   8.400 -0.2188  0.5428 -1.5359
  120OSM   H14G12715   1.935   2.940   8.482  0.1852 -0.8646  2.3584
  120OSM   C15F12716   2.046   2.761   8.541 -0.2098 -0.1386 -0.3535
  120OSM   H15F12717   1.979   2.749   8.630 -0.4587  0.7000 -0.4285
  120OSM   H15G12718   2.121   2.835   8.574 -0.2745 -0.5596  0.7553
  120OSM   C16F12719   2.116   2.639   8.489 -0.7863 -0.1344 -0.1025
  120OSM   H16F12720   2.190   2.670   8.412  0.3445  0.9724  1.3984
  120OSM   H16G12721   2.046   2.574   8.432  1.1483 -1.5372 -0.9530
  120OSM   C17F12722   2.183   2.547   8.594 -0.2336  0.1710 -0.4718
  120OSM   H17F12723   2.107   2.533   8.674 -1.2631 -0.5011 -1.5619
  120OSM   H17G12724   2.258   2.617   8.637 -0.4406  0.1262 -0.0257
  120OSM   C18F12725   2.239   2.415   8.542  0.3003  0.6812  0.6451
  120OSM   H18F12726   2.294   2.362   8.623 -0.9924 -0.3008  0.8943
  120OSM   H18G12727   2.314   2.422   8.460  0.9892 -3.1005  0.8458
  120OSM   H18H12728   2.158   2.347   8.509  0.5675 -0.1520  1.6614
  121OSM      N12729   4.201   4.107   6.087 -0.2002  0.4702  0.6640
  121OSM    C1512730   4.315   4.190   6.033  0.0922  0.0442  0.1783
  121OSM   H15A12731   4.412   4.145   6.049 -0.6819 -2.3822 -1.8423
  121OSM   H15B12732   4.317   4.291   6.073  1.3068  0.3254 -0.5483
  121OSM   H15C12733   4.302   4.214   5.929  2.7574  0.7428 -0.0492
  121OSM    C1412734   4.201   4.093   6.238 -0.3414  0.2664 -0.6056
  121OSM   H14A12735   4.114   4.037   6.266  1.4193 -2.6291 -0.7854
  121OSM   H14B12736   4.200   4.191   6.285 -0.2158 -1.0449  2.2157
  121OSM   H14C12737   4.288   4.040   6.274 -0.4351  1.6354  1.7989
  121OSM    C1312738   4.074   4.185   6.048 -0.0083 -0.2556 -0.1102
  121OSM   H13A12739   4.083   4.282   6.092  0.5184  0.1954 -1.1805
  121OSM   H13B12740   3.983   4.135   6.077  0.0059 -0.6369 -0.6956
  121OSM   H13C12741   4.064   4.193   5.940  0.5562  0.0724 -0.1337
  121OSM    C1212742   4.204   3.969   6.027  0.3498 -0.4207 -0.5916
  121OSM   H12A12743   4.274   3.897   6.067  0.0996 -0.7883 -0.8193
  121OSM   H12B12744   4.243   3.983   5.928  0.2378  4.3286 -0.0675
  121OSM    C1112745   4.072   3.888   6.020  0.4626 -0.8776  0.0187
  121OSM   H11A12746   4.094   3.788   5.976  2.5455 -0.1402 -0.6867
  121OSM   H11B12747   4.002   3.946   5.957 -0.9168 -1.1464  1.2744
  121OSM      P12748   3.864   3.886   6.187 -0.5768  0.2205 -0.7029
  121OSM    O1312749   3.831   4.025   6.163 -0.1573 -0.6119 -0.5086
  121OSM    O1412750   3.786   3.784   6.114 -0.1642 -0.3364 -0.3619
  121OSM    O1112751   3.851   3.855   6.347 -0.2282  0.9299 -0.3491
  121OSM    O1212752   4.017   3.866   6.154 -0.8032  0.4242 -0.4904
  121OSM    C1S12753   3.907   3.948   6.442 -0.1187  0.4966 -1.1455
  121OSM    H1S12754   4.007   3.985   6.409  0.6602 -2.1805 -1.9409
  121OSM    H1T12755   3.931   3.896   6.537 -1.6515  2.4210  0.3394
  121OSM     NF12756   3.894   4.141   6.595  0.1402  0.2569  0.7199
  121OSM    HNF12757   3.899   4.100   6.686 -1.9735  0.5787  1.0167
  121OSM    C2S12758   3.817   4.067   6.497 -0.2973  0.1600  0.1799
  121OSM    H2S12759   3.791   4.134   6.412 -2.7019  0.9355  1.4748
  121OSM    C3S12760   3.684   4.003   6.556 -0.0139  0.3684  0.4048
  121OSM    H3S12761   3.712   3.915   6.619  1.6374 -1.0298 -2.1674
  121OSM     O312762   3.591   3.951   6.456  0.2898 -0.2149 -1.1286
  121OSM    HO312763   3.639   3.957   6.374  0.1900 -1.5058 -1.3040
  121OSM    C4S12764   3.612   4.102   6.640  0.3592 -0.0414  0.5471
  121OSM    H4S12765   3.573   4.191   6.589 -1.0730 -1.0703 -0.2013
  121OSM    C5S12766   3.585   4.090   6.773  0.2584  0.0323  0.4043
  121OSM    H5S12767   3.622   4.001   6.826  1.9733 -0.1240 -1.0296
  121OSM    C6S12768   3.513   4.194   6.867  0.3121  0.7458 -0.0528
  121OSM    H6S12769   3.426   4.248   6.823  1.3810  1.2899 -1.5271
  121OSM    H6T12770   3.588   4.274   6.882  3.2685 -2.2460  1.8873
  121OSM    C7S12771   3.459   4.138   7.001  0.1706  0.6881 -0.1066
  121OSM    H7S12772   3.539   4.093   7.064  0.1346  0.9232  0.1044
  121OSM    H7T12773   3.396   4.051   6.971  0.9861  0.3765 -0.9701
  121OSM    C8S12774   3.385   4.240   7.084  0.3497 -0.2788  0.0909
  121OSM    H8S12775   3.407   4.339   7.038  0.4328  0.4427  1.6600
  121OSM    H8T12776   3.441   4.236   7.180 -1.0444 -0.8195  0.8989
  121OSM    C9S12777   3.235   4.212   7.103  0.1115 -0.4214  0.4880
  121OSM    H9S12778   3.214   4.104   7.120  0.4633 -0.7008 -0.7650
  121OSM    H9T12779   3.192   4.252   7.008  2.1109 -0.5218 -0.4991
  121OSM   C10S12780   3.167   4.286   7.218 -0.2202  0.0681  0.2004
  121OSM   H10S12781   3.057   4.279   7.203 -0.3325  0.8740  0.6378
  121OSM   H10T12782   3.202   4.391   7.230 -0.0952 -0.1127  1.5547
  121OSM   C11S12783   3.192   4.209   7.353 -0.4541  0.0073  0.1649
  121OSM   H11S12784   3.303   4.206   7.363 -0.3839 -1.9372 -0.8557
  121OSM   H11T12785   3.160   4.104   7.332  1.1656 -0.0858 -1.9374
  121OSM   C12S12786   3.123   4.278   7.469  0.3764  0.6319  0.3530
  121OSM   H12S12787   3.016   4.286   7.440  0.0581 -0.7876  1.0880
  121OSM   H12T12788   3.168   4.378   7.483 -0.3186  0.6971  2.2316
  121OSM   C13S12789   3.128   4.192   7.594  0.0187 -0.8066  0.1976
  121OSM   H13S12790   3.236   4.177   7.617  0.3916  1.3167 -0.0359
  121OSM   H13T12791   3.069   4.104   7.562  0.8704 -1.5237  0.5895
  121OSM   C14S12792   3.055   4.245   7.717 -0.1678 -0.4924  0.1552
  121OSM   H14S12793   2.948   4.246   7.687 -0.0344  0.0210 -0.3082
  121OSM   H14T12794   3.093   4.348   7.733  1.5722 -0.9945 -0.6579
  121OSM   C15S12795   3.073   4.162   7.844 -0.3847 -0.2477 -0.4899
  121OSM   H15S12796   3.038   4.059   7.826 -0.0249 -0.4022 -0.3110
  121OSM   H15T12797   3.020   4.208   7.929  0.8195 -0.2521  0.2822
  121OSM   C16S12798   3.217   4.145   7.895  0.7330  0.2962 -0.1909
  121OSM   H16S12799   3.285   4.088   7.828  0.5175 -1.5046  1.0678
  121OSM   H16T12800   3.193   4.085   7.986 -2.0637  0.1258 -1.0164
  121OSM   C17S12801   3.290   4.271   7.927  0.1653  0.0183  0.4835
  121OSM   H17S12802   3.313   4.320   7.829  2.6578  0.5535  1.2953
  121OSM   H17T12803   3.388   4.255   7.977  0.7860  2.3311  0.1058
  121OSM   C18S12804   3.205   4.380   8.006  0.0788 -0.4129 -0.6646
  121OSM   H18S12805   3.149   4.352   8.098  0.2636  2.9685  0.5689
  121OSM   H18T12806   3.130   4.426   7.938 -0.1265  0.4838  0.1500
  121OSM   H18U12807   3.272   4.466   8.026  0.1205  0.2241 -3.3007
  121OSM    C1F12808   3.981   4.236   6.552  0.0094 -0.1511 -0.2522
  121OSM     OF12809   4.002   4.252   6.432  0.1983  0.0359  0.0056
  121OSM    C2F12810   4.044   4.322   6.658  0.2621  0.2828  0.3781
  121OSM    H2F12811   4.004   4.424   6.644  0.5392  0.0923 -2.1174
  121OSM    H2G12812   4.154   4.331   6.656  0.3449 -0.3517  1.5059
  121OSM    C3F12813   4.018   4.268   6.800 -0.0982  0.4848 -0.4961
  121OSM    H3F12814   4.045   4.160   6.810 -1.3766  0.0965 -1.1183
  121OSM    H3G12815   3.915   4.278   6.839  0.1131 -2.4658  0.9603
  121OSM    C4F12816   4.101   4.349   6.894 -0.1336 -0.2023 -0.1658
  121OSM    H4F12817   4.072   4.454   6.870 -0.5768 -0.7029 -1.8903
  121OSM    H4G12818   4.209   4.323   6.883 -0.7600 -3.8608  1.6978
  121OSM    C5F12819   4.079   4.307   7.039  0.4024  0.1216 -0.0033
  121OSM    H5F12820   4.113   4.201   7.037  0.8067  0.2485  0.0752
  121OSM    H5G12821   3.970   4.308   7.062 -0.1087  0.1714 -2.3026
  121OSM    C6F12822   4.160   4.392   7.138 -0.9167  0.3782 -0.1282
  121OSM    H6F12823   4.126   4.497   7.120  0.5540  0.9167  0.1262
  121OSM    H6G12824   4.267   4.410   7.114 -1.2221  3.9551  0.7827
  121OSM    C7F12825   4.141   4.350   7.286  0.2072 -0.1531 -0.1561
  121OSM    H7F12826   4.210   4.266   7.311 -0.4808 -1.0918 -1.4151
  121OSM    H7G12827   4.040   4.306   7.298  0.3767 -0.6170 -0.3939
  121OSM    C8F12828   4.157   4.468   7.391 -0.1140 -0.3450  0.2783
  121OSM    H8F12829   4.098   4.446   7.483  0.0529  0.3075  0.5497
  121OSM    H8G12830   4.103   4.554   7.345  2.5616  0.4931 -1.4039
  121OSM    C9F12831   4.302   4.489   7.412 -0.4891  0.8336 -0.2181
  121OSM    H9F12832   4.362   4.487   7.320 -0.3127 -1.4057 -0.0911
  121OSM   C10F12833   4.367   4.493   7.534 -0.4057 -0.3477 -0.0644
  121OSM   H10F12834   4.470   4.532   7.541  0.2178 -1.8666 -0.5978
  121OSM   C11F12835   4.314   4.470   7.672 -0.1144 -0.0080 -0.2929
  121OSM   H11F12836   4.383   4.398   7.721  0.2571 -0.0559 -0.8821
  121OSM   H11G12837   4.215   4.419   7.674 -0.2451  0.0716 -3.0158
  121OSM   C12F12838   4.318   4.606   7.750  0.4015  0.7999  0.0171
  121OSM   H12F12839   4.291   4.698   7.693  1.6619  0.7791 -0.6459
  121OSM   H12G12840   4.425   4.636   7.762  0.8996 -1.3711  1.2065
  121OSM   C13F12841   4.218   4.606   7.876  0.8554  0.3968 -0.5445
  121OSM   H13F12842   4.118   4.576   7.838  0.9239  1.0447 -1.2513
  121OSM   H13G12843   4.212   4.711   7.912 -2.3243  0.0193  0.1983
  121OSM   C14F12844   4.261   4.516   7.991  0.0841  0.0055 -0.5171
  121OSM   H14F12845   4.256   4.409   7.964  0.9082 -0.3567  0.7128
  121OSM   H14G12846   4.191   4.541   8.074  0.6066  2.7896 -0.8599
  121OSM   C15F12847   4.402   4.542   8.053 -1.1029  0.6193 -0.3934
  121OSM   H15F12848   4.410   4.647   8.089  1.2083  0.5062 -0.4700
  121OSM   H15G12849   4.472   4.539   7.967 -0.7589  5.3726 -0.4226
  121OSM   C16F12850   4.447   4.443   8.159 -0.0294  0.4516 -0.0815
  121OSM   H16F12851   4.557   4.431   8.148 -0.0384  0.1301  0.1696
  121OSM   H16G12852   4.404   4.343   8.137  0.6342  0.9346 -3.8857
  121OSM   C17F12853   4.424   4.499   8.298  0.4909 -0.8096  0.0187
  121OSM   H17F12854   4.316   4.499   8.327 -0.4317  0.4032 -3.1905
  121OSM   H17G12855   4.444   4.608   8.290 -1.5858 -0.3465  0.6624
  121OSM   C18F12856   4.509   4.432   8.402  0.4996  0.4588 -0.2273
  121OSM   H18F12857   4.610   4.409   8.363  0.4243  1.8027 -1.2392
  121OSM   H18G12858   4.456   4.340   8.435 -0.2966  0.1690 -2.2757
  121OSM   H18H12859   4.531   4.488   8.496  1.6034 -0.3754  0.0322
  122OSM      N12860   3.071   6.546   5.683  1.1542  0.2351 -0.7057
  122OSM    C1512861   3.101   6.572   5.542 -0.2457 -0.0036  0.1075
  122OSM   H15A12862   3.082   6.485   5.482 -0.7073  0.6197 -0.6580
  122OSM   H15B12863   3.206   6.594   5.526 -0.6660  1.7832 -0.3223
  122OSM   H15C12864   3.034   6.649   5.507 -1.4130 -0.5212  1.1639
  122OSM    C1412865   2.950   6.467   5.693  0.3766  0.5317  0.5915
  122OSM   H14A12866   2.940   6.411   5.785 -1.9332 -0.8118 -0.4364
  122OSM   H14B12867   2.934   6.403   5.608  4.0685 -1.4606  1.2807
  122OSM   H14C12868   2.864   6.531   5.685 -0.1598 -0.0854  1.3176
  122OSM    C1312869   3.187   6.471   5.735 -0.1359 -0.2000  0.5450
  122OSM   H13A12870   3.176   6.448   5.840  0.5247  0.3800  0.7504
  122OSM   H13B12871   3.277   6.524   5.706 -0.8906  0.8411  0.1024
  122OSM   H13C12872   3.195   6.375   5.686 -1.1707 -1.0172  1.9700
  122OSM    C1212873   3.060   6.672   5.758  0.3386  0.1524  0.2022
  122OSM   H12A12874   2.987   6.739   5.715 -0.1115  0.4756  1.4407
  122OSM   H12B12875   3.156   6.722   5.748  1.0346 -0.9758  1.1623
  122OSM    C1112876   3.031   6.666   5.912  1.3730 -0.0216 -0.1367
  122OSM   H11A12877   3.028   6.772   5.944  0.2407 -0.6476  1.9041
  122OSM   H11B12878   3.124   6.627   5.958  0.3929 -1.3805  0.7368
  122OSM      P12879   2.785   6.663   5.974 -0.1605 -0.2272  0.1533
  122OSM    O1312880   2.797   6.795   6.038  0.4430  1.1796 -0.4052
  122OSM    O1412881   2.715   6.660   5.845  0.4350  0.8521  0.0367
  122OSM    O1112882   2.710   6.568   6.066  0.0360  0.4625  0.7380
  122OSM    O1212883   2.916   6.589   5.956 -0.0239  0.2750  0.2026
  122OSM    C1S12884   2.782   6.502   6.175 -0.2849 -0.4003 -0.1527
  122OSM    H1S12885   2.880   6.546   6.204  0.6028 -1.4148 -1.5624
  122OSM    H1T12886   2.799   6.395   6.153  3.5099  0.0687  0.2622
  122OSM     NF12887   2.788   6.436   6.404  0.0960 -0.1820  0.4902
  122OSM    HNF12888   2.783   6.337   6.390 -1.7784 -0.0926  0.4008
  122OSM    C2S12889   2.702   6.509   6.306  0.1747 -0.3718  0.4660
  122OSM    H2S12890   2.683   6.615   6.335  1.2179  0.7613 -2.8738
  122OSM    C3S12891   2.559   6.447   6.277  0.5926  0.3683 -0.0735
  122OSM    H3S12892   2.572   6.342   6.241  1.8947  0.4798  0.0581
  122OSM     O312893   2.486   6.489   6.163 -0.3516 -1.0316 -0.1729
  122OSM    HO312894   2.547   6.546   6.115  0.4906 -0.6089  1.3530
  122OSM    C4S12895   2.477   6.443   6.408 -0.4265  0.0574  0.1858
  122OSM    H4S12896   2.505   6.355   6.468 -0.6711 -0.2260 -0.1133
  122OSM    C5S12897   2.387   6.536   6.449 -0.3279 -0.1657  0.1430
  122OSM    H5S12898   2.366   6.618   6.378 -0.1533 -0.2468 -0.0003
  122OSM    C6S12899   2.310   6.525   6.578 -0.2965 -0.2168  0.7907
  122OSM    H6S12900   2.264   6.425   6.594 -2.0823  0.0352 -2.4412
  122OSM    H6T12901   2.231   6.602   6.571 -1.9927 -1.9472  0.5641
  122OSM    C7S12902   2.406   6.568   6.692  0.3925 -0.1851  0.1271
  122OSM    H7S12903   2.430   6.674   6.669  3.3925 -1.1139 -1.2014
  122OSM    H7T12904   2.508   6.524   6.691  0.2921 -0.4403 -2.2410
  122OSM    C8S12905   2.348   6.578   6.835 -0.1086  0.4024  0.2732
  122OSM    H8S12906   2.352   6.474   6.875  0.2837  1.3793  2.8978
  122OSM    H8T12907   2.241   6.611   6.837 -0.1865  0.1289  2.4167
  122OSM    C9S12908   2.440   6.660   6.935 -0.3565  0.4250 -0.0206
  122OSM    H9S12909   2.456   6.759   6.886  0.8941  0.5350  0.5853
  122OSM    H9T12910   2.535   6.603   6.925 -0.8156 -0.3254 -0.1494
  122OSM   C10S12911   2.399   6.673   7.078  0.7643 -0.4407  0.3269
  122OSM   H10S12912   2.384   6.574   7.127 -0.6449  0.2289  1.2867
  122OSM   H10T12913   2.300   6.724   7.082 -0.0548 -1.8843 -1.1940
  122OSM   C11S12914   2.501   6.766   7.155 -0.2596  0.7013  1.5258
  122OSM   H11S12915   2.500   6.868   7.112  0.8929  1.0195  2.2242
  122OSM   H11T12916   2.605   6.729   7.139 -0.9865 -0.4844 -0.6907
  122OSM   C12S12917   2.464   6.779   7.307  0.0660 -0.4319  0.2982
  122OSM   H12S12918   2.459   6.674   7.343  0.7106 -0.7046 -0.3834
  122OSM   H12T12919   2.371   6.839   7.303  1.0904  1.1968  0.5529
  122OSM   C13S12920   2.572   6.847   7.386 -0.6438 -0.5552 -0.3216
  122OSM   H13S12921   2.593   6.946   7.340 -0.3107 -0.1888  0.6107
  122OSM   H13T12922   2.666   6.793   7.362 -0.4380 -0.2288 -0.2557
  122OSM   C14S12923   2.548   6.850   7.535 -0.1246 -0.2643  0.7976
  122OSM   H14S12924   2.557   6.747   7.577 -0.3749 -0.7514 -0.3419
  122OSM   H14T12925   2.440   6.873   7.545 -0.2666  0.1518 -1.5372
  122OSM   C15S12926   2.625   6.947   7.612 -0.1579  0.2614  0.5533
  122OSM   H15S12927   2.595   6.959   7.718  0.6547  3.5014  0.4663
  122OSM   H15T12928   2.605   7.049   7.572 -0.4853 -0.1027 -0.2287
  122OSM   C16S12929   2.778   6.926   7.609 -0.4686  0.4547 -0.0616
  122OSM   H16S12930   2.823   6.971   7.518  1.2086 -2.6113 -0.8257
  122OSM   H16T12931   2.802   6.818   7.602  1.1670  0.7210  1.3276
  122OSM   C17S12932   2.849   6.993   7.736 -0.8984  0.1185 -0.6490
  122OSM   H17S12933   2.824   6.952   7.837 -0.7301  2.2437  0.2745
  122OSM   H17T12934   2.803   7.093   7.721 -2.1273 -0.5907 -1.7997
  122OSM   C18S12935   3.004   6.982   7.722  0.9122  0.8415  0.2290
  122OSM   H18S12936   3.049   7.012   7.625 -1.2743  0.3797 -0.9686
  122OSM   H18T12937   3.044   6.879   7.735 -3.4159 -1.1501 -1.3514
  122OSM   H18U12938   3.051   7.053   7.794 -1.5765  3.7001 -0.8491
  122OSM    C1F12939   2.867   6.505   6.482  0.2507  0.7137  0.7118
  122OSM     OF12940   2.874   6.626   6.472  0.1834  0.3307  0.1612
  122OSM    C2F12941   2.947   6.422   6.577  0.3056  0.5368  0.6952
  122OSM    H2F12942   3.040   6.412   6.519 -0.1494 -0.0473  0.0648
  122OSM    H2G12943   2.905   6.321   6.595  0.7640  0.0913 -0.6828
  122OSM    C3F12944   2.956   6.490   6.712 -0.5512  0.4043  0.6064
  122OSM    H3F12945   2.851   6.512   6.743 -0.8659  0.1315 -0.2333
  122OSM    H3G12946   3.028   6.574   6.712  0.8472 -0.7826 -0.2690
  122OSM    C4F12947   3.020   6.393   6.816  0.6942 -0.1023  0.3051
  122OSM    H4F12948   3.123   6.365   6.784 -0.3868 -1.3487 -2.2510
  122OSM    H4G12949   2.960   6.300   6.829 -1.9625  1.2071 -1.9346
  122OSM    C5F12950   3.026   6.457   6.958 -0.1870 -0.6487  0.5906
  122OSM    H5F12951   2.919   6.479   6.981 -0.0670 -0.8605  1.3915
  122OSM    H5G12952   3.073   6.556   6.947 -0.8101 -0.5494 -1.2539
  122OSM    C6F12953   3.116   6.377   7.052  0.5704 -0.3094  0.9058
  122OSM    H6F12954   3.128   6.438   7.144 -3.4630  1.3238  0.4662
  122OSM    H6G12955   3.219   6.359   7.015  0.2216 -0.6275  0.0768
  122OSM    C7F12956   3.060   6.247   7.104  0.0523  0.8730 -0.1933
  122OSM    H7F12957   3.018   6.187   7.020 -0.8503 -0.9441  1.5096
  122OSM    H7G12958   2.970   6.270   7.165 -0.5758  0.1960 -0.8522
  122OSM    C8F12959   3.149   6.166   7.199  0.6791  0.3079 -1.3275
  122OSM    H8F12960   3.238   6.127   7.145  1.3813  2.1258 -1.5205
  122OSM    H8G12961   3.094   6.077   7.234  2.4904 -0.5264 -0.5427
  122OSM    C9F12962   3.183   6.256   7.321  0.1186  0.0574  0.3904
  122OSM    H9F12963   3.236   6.346   7.287  2.5405 -1.1202  0.9384
  122OSM   C10F12964   3.163   6.238   7.444  0.0622 -0.4084  0.0141
  122OSM   H10F12965   3.193   6.317   7.515  1.5330 -0.2813 -0.7340
  122OSM   C11F12966   3.104   6.112   7.505  0.6264  0.5541  0.0327
  122OSM   H11F12967   3.074   6.031   7.436 -0.3398  1.0011 -0.0809
  122OSM   H11G12968   3.008   6.147   7.549  0.5044  1.1048 -0.6624
  122OSM   C12F12969   3.192   6.038   7.612 -0.3850  0.4003  0.1377
  122OSM   H12F12970   3.199   6.087   7.711 -1.3999 -1.2086  1.0056
  122OSM   H12G12971   3.298   6.035   7.581  0.2879 -0.7503  2.4562
  122OSM   C13F12972   3.146   5.893   7.633 -0.6611  0.1894 -0.3512
  122OSM   H13F12973   3.148   5.834   7.538  0.9285 -0.9400  0.3644
  122OSM   H13G12974   3.039   5.897   7.664 -0.2255  2.5068  0.9236
  122OSM   C14F12975   3.239   5.826   7.740  0.4155 -0.5717 -0.3734
  122OSM   H14F12976   3.334   5.879   7.718 -1.7436  3.1906 -1.1448
  122OSM   H14G12977   3.252   5.721   7.708  2.1579 -0.4937  0.0425
  122OSM   C15F12978   3.212   5.836   7.890  0.5918 -0.8599 -0.0254
  122OSM   H15F12979   3.111   5.795   7.909 -0.4497  1.7150  0.1929
  122OSM   H15G12980   3.209   5.944   7.916  0.4118 -0.8433 -0.1210
  122OSM   C16F12981   3.329   5.788   7.973 -0.1259 -0.5882 -0.2221
  122OSM   H16F12982   3.319   5.812   8.081 -0.1908 -0.7061 -0.2016
  122OSM   H16G12983   3.421   5.838   7.936  0.7475 -0.9038  1.5170
  122OSM   C17F12984   3.359   5.634   7.961  0.5079  0.0147 -0.5164
  122OSM   H17F12985   3.466   5.620   7.989 -0.3597  0.3332  3.3088
  122OSM   H17G12986   3.349   5.587   7.862 -0.1842  1.9101 -1.3703
  122OSM   C18F12987   3.278   5.550   8.067  0.0765 -0.4050 -0.0127
  122OSM   H18F12988   3.300   5.441   8.064  0.3213 -0.4816  3.0911
  122OSM   H18G12989   3.170   5.556   8.043  0.3125 -1.1403 -1.3374
  122OSM   H18H12990   3.289   5.575   8.174  2.1459 -0.5440 -0.1753
  123OSM      N12991   0.376   2.498   6.322 -0.0753 -0.0452  0.5096
  123OSM    C1512992   0.400   2.458   6.180 -0.2034  0.1123 -0.4080
  123OSM   H15A12993   0.352   2.536   6.122  0.2729  1.2688  0.7125
  123OSM   H15B12994   0.349   2.367   6.153  0.0484 -0.9774  2.5559
  123OSM   H15C12995   0.508   2.458   6.174 -0.3044  1.3841 -2.8347
  123OSM    C1412996   0.457   2.412   6.414 -0.4995  0.4618 -0.4362
  123OSM   H14A12997   0.439   2.440   6.517  1.2368  2.6381 -0.6680
  123OSM   H14B12998   0.562   2.432   6.396 -0.1028 -1.3696 -0.2433
  123OSM   H14C12999   0.442   2.308   6.389  0.1345  0.5482 -1.1954
  123OSM    C1313000   0.415   2.641   6.344 -0.4887 -0.8348  0.8548
  123OSM   H13A13001   0.395   2.667   6.447  0.0362 -1.4279  1.1117
  123OSM   H13B13002   0.357   2.704   6.278  1.6254  0.3734  0.1143
  123OSM   H13C13003   0.520   2.661   6.325 -0.8145  1.8290  1.7449
  123OSM    C1213004   0.226   2.490   6.354  0.1404 -0.1183 -0.0594
  123OSM   H12A13005   0.195   2.388   6.337  0.5665  0.2246 -3.3485
  123OSM   H12B13006   0.170   2.537   6.274 -1.1232 -2.5203 -0.6618
  123OSM    C1113007   0.174   2.543   6.488 -0.4555 -0.6389 -0.6095
  123OSM   H11A13008   0.064   2.553   6.483 -0.5439  0.0625  2.0258
  123OSM   H11B13009   0.202   2.651   6.499 -0.2714 -0.7227 -0.2421
  123OSM      P13010   0.158   2.337   6.652 -0.2133  0.3554 -0.1150
  123OSM    O1313011   0.100   2.270   6.534  0.2563 -0.2339 -0.4933
  123OSM    O1413012   0.264   2.255   6.722  0.2219 -0.5328  0.1191
  123OSM    O1113013   0.034   2.379   6.742 -0.4777  0.2051  0.3426
  123OSM    O1213014   0.226   2.475   6.608  0.5646  0.0273 -0.0112
  123OSM    C1S13015   0.050   2.415   6.882  0.1150  0.6075 -0.4993
  123OSM    H1S13016   0.075   2.522   6.896  1.4798  0.1156  1.0325
  123OSM    H1T13017   0.134   2.362   6.933 -0.4512 -1.9105 -2.0698
  123OSM     NF13018  -0.061   2.395   7.104 -0.0650 -0.1510  0.4360
  123OSM    HNF13019  -0.021   2.324   7.161 -1.2201  0.4806  2.0868
  123OSM    C2S13020  -0.082   2.380   6.965  1.3317  0.0782  0.0225
  123OSM    H2S13021  -0.160   2.450   6.928  0.8152  0.1013  1.1217
  123OSM    C3S13022  -0.128   2.243   6.917 -0.4512 -0.0643 -0.4723
  123OSM    H3S13023  -0.029   2.193   6.914  0.0589  0.5851  2.9336
  123OSM     O313024  -0.182   2.233   6.787  0.4781  0.3371  0.0022
  123OSM    HO313025  -0.116   2.274   6.730 -0.3996 -1.4071 -2.3363
  123OSM    C4S13026  -0.233   2.190   7.009 -0.1592 -0.0591  0.0669
  123OSM    H4S13027  -0.310   2.260   7.044 -2.1110 -1.7503 -0.6914
  123OSM    C5S13028  -0.242   2.065   7.052 -0.3332  0.4827 -0.7775
  123OSM    H5S13029  -0.166   1.992   7.020 -0.6566 -0.0683 -0.2981
  123OSM    C6S13030  -0.343   2.000   7.157 -0.0090  0.5888 -0.1677
  123OSM    H6S13031  -0.388   1.908   7.115 -1.0813  1.4336 -0.9007
  123OSM    H6T13032  -0.421   2.077   7.177  0.1593  1.1303 -1.5532
  123OSM    C7S13033  -0.277   1.960   7.292 -0.0239 -0.3579 -0.4728
  123OSM    H7S13034  -0.236   2.054   7.336  0.5691 -0.2285 -1.2697
  123OSM    H7T13035  -0.209   1.873   7.276 -0.0907 -0.6519  0.8520
  123OSM    C8S13036  -0.371   1.902   7.382 -0.0896  0.0467  0.8572
  123OSM    H8S13037  -0.400   1.798   7.355  1.8768  0.2183 -2.2421
  123OSM    H8T13038  -0.461   1.965   7.391  1.7549  2.4247  3.2858
  123OSM    C9S13039  -0.316   1.897   7.530  0.5794 -0.0694  0.5454
  123OSM    H9S13040  -0.304   2.006   7.551 -0.3622 -0.3285  2.5088
  123OSM    H9T13041  -0.217   1.849   7.541  0.2309 -0.3821  2.5180
  123OSM   C10S13042  -0.420   1.836   7.630  0.0789  0.4307  0.3085
  123OSM   H10S13043  -0.446   1.732   7.599 -1.3848  1.4941 -2.1809
  123OSM   H10T13044  -0.507   1.903   7.642 -0.6649 -0.6709  1.1987
  123OSM   C11S13045  -0.357   1.830   7.775 -0.4332  0.2878 -0.1166
  123OSM   H11S13046  -0.308   1.926   7.799  0.6082  0.1524 -1.5930
  123OSM   H11T13047  -0.271   1.759   7.768 -0.4900  0.1068  0.9114
  123OSM   C12S13048  -0.451   1.784   7.890 -0.9084 -0.2328 -0.6528
  123OSM   H12S13049  -0.489   1.688   7.849 -0.2788 -0.6491 -0.2627
  123OSM   H12T13050  -0.532   1.860   7.898  1.3196  2.2184 -0.6530
  123OSM   C13S13051  -0.377   1.749   8.018 -0.6268 -0.1704 -0.3418
  123OSM   H13S13052  -0.340   1.845   8.061  2.4041 -0.6763 -1.7063
  123OSM   H13T13053  -0.286   1.691   7.994  0.0629  1.2844 -1.3262
  123OSM   C14S13054  -0.472   1.687   8.120  0.5604  0.8020  0.7776
  123OSM   H14S13055  -0.528   1.595   8.091 -0.5044  1.4620  0.7084
  123OSM   H14T13056  -0.545   1.763   8.155 -0.3354  0.3467 -0.0617
  123OSM   C15S13057  -0.395   1.662   8.254 -0.0852 -0.1013 -0.1977
  123OSM   H15S13058  -0.369   1.766   8.284  3.3424 -1.0464  0.3053
  123OSM   H15T13059  -0.297   1.616   8.232 -0.1169 -0.5903  0.6506
  123OSM   C16S13060  -0.483   1.598   8.365 -0.1589  0.4291 -0.2035
  123OSM   H16S13061  -0.487   1.493   8.331  0.3744  0.5029 -0.4941
  123OSM   H16T13062  -0.588   1.634   8.375  0.6527  2.5851  1.0242
  123OSM   C17S13063  -0.418   1.591   8.494  0.8613 -0.2966  0.1362
  123OSM   H17S13064  -0.483   1.540   8.568 -1.3203  0.4501 -1.1923
  123OSM   H17T13065  -0.402   1.690   8.542 -2.0971 -1.0211  2.7508
  123OSM   C18S13066  -0.285   1.518   8.482 -0.6590  0.8511  0.0207
  123OSM   H18S13067  -0.299   1.422   8.428  1.7158  1.1159 -1.1417
  123OSM   H18T13068  -0.240   1.490   8.580 -2.0954 -3.8313 -0.5447
  123OSM   H18U13069  -0.213   1.583   8.427  0.6683 -0.3504  0.2914
  123OSM    C1F13070  -0.073   2.524   7.150 -0.2469  0.0800  0.1690
  123OSM     OF13071  -0.083   2.613   7.062  0.2112  0.4676 -0.6147
  123OSM    C2F13072  -0.062   2.554   7.301 -0.3491  0.3020 -0.1721
  123OSM    H2F13073   0.043   2.580   7.325 -0.3903 -0.4025  0.7869
  123OSM    H2G13074  -0.095   2.462   7.354  0.2699  0.9765  1.3826
  123OSM    C3F13075  -0.130   2.682   7.338  0.3422  1.0613  0.7939
  123OSM    H3F13076  -0.236   2.678   7.304  0.5267  2.3499  0.0371
  123OSM    H3G13077  -0.081   2.757   7.272  2.6422  0.2680  1.5327
  123OSM    C4F13078  -0.116   2.726   7.485 -1.1629 -0.8231  0.6418
  123OSM    H4F13079  -0.134   2.836   7.485  1.1840 -0.4042  1.9150
  123OSM    H4G13080  -0.015   2.707   7.527 -1.1966  0.4407  1.3342
  123OSM    C5F13081  -0.227   2.657   7.569  0.8616 -0.0242 -0.5640
  123OSM    H5F13082  -0.196   2.553   7.591  1.9079  0.2620 -0.6849
  123OSM    H5G13083  -0.321   2.651   7.509  1.0538 -0.0296 -0.8667
  123OSM    C6F13084  -0.268   2.742   7.690  0.0613  0.3571 -0.2768
  123OSM    H6F13085  -0.377   2.726   7.703  0.1734  0.2938  0.6310
  123OSM    H6G13086  -0.253   2.848   7.663 -0.5584  0.5745  0.2254
  123OSM    C7F13087  -0.194   2.693   7.822  1.3175 -0.0140 -0.1633
  123OSM    H7F13088  -0.086   2.691   7.796  0.8179  0.2092 -2.3204
  123OSM    H7G13089  -0.233   2.591   7.843 -1.4478  1.2693  1.1421
  123OSM    C8F13090  -0.217   2.792   7.934  0.0973  0.3052  0.6882
  123OSM    H8F13091  -0.328   2.800   7.945  0.5028  1.8595  4.2335
  123OSM    H8G13092  -0.190   2.896   7.904 -0.9373  0.3068 -0.3056
  123OSM    C9F13093  -0.157   2.752   8.064 -0.0366  0.4741 -0.2638
  123OSM    H9F13094  -0.096   2.661   8.054 -0.8125 -0.0744 -0.0174
  123OSM   C10F13095  -0.173   2.817   8.178 -0.4274  0.2871  0.2383
  123OSM   H10F13096  -0.122   2.778   8.267  2.5114  1.1172 -1.0160
  123OSM   C11F13097  -0.248   2.945   8.203 -0.2391 -0.8988  0.3516
  123OSM   H11F13098  -0.288   2.983   8.107 -1.5637 -2.5850  0.2123
  123OSM   H11G13099  -0.182   3.026   8.240  1.8106 -2.2702 -0.1961
  123OSM   C12F13100  -0.361   2.916   8.303 -0.1321  0.3707 -0.5289
  123OSM   H12F13101  -0.316   2.862   8.389  1.9547 -0.5158 -2.1214
  123OSM   H12G13102  -0.431   2.845   8.256 -0.5744 -0.3948  1.2563
  123OSM   C13F13103  -0.449   3.038   8.341  0.3724 -0.4584 -0.0698
  123OSM   H13F13104  -0.486   3.078   8.244  1.8525 -1.2077 -0.9525
  123OSM   H13G13105  -0.391   3.109   8.405 -0.5088 -1.7040  2.1544
  123OSM   C14F13106  -0.568   2.992   8.426 -0.0479  0.2474  0.2741
  123OSM   H14F13107  -0.538   2.942   8.521 -1.1547  1.0310  1.0424
  123OSM   H14G13108  -0.616   2.904   8.377 -0.8944  0.1648  1.2326
  123OSM   C15F13109  -0.658   3.110   8.455  0.0968 -0.3777  0.2813
  123OSM   H15F13110  -0.701   3.167   8.369  0.0399 -0.5120  0.2208
  123OSM   H15G13111  -0.593   3.193   8.492  0.1856  0.3888 -1.4974
  123OSM   C16F13112  -0.754   3.078   8.566 -1.1163 -0.4066  0.3365
  123OSM   H16F13113  -0.707   3.031   8.655 -0.8784 -0.8658 -0.0304
  123OSM   H16G13114  -0.826   3.001   8.531  0.0418 -0.5920 -1.7075
  123OSM   C17F13115  -0.832   3.205   8.605 -0.2111  0.9580 -0.5544
  123OSM   H17F13116  -0.889   3.245   8.518  0.7885  1.2274 -1.0848
  123OSM   H17G13117  -0.747   3.269   8.637 -0.5824 -0.0640  2.6757
  123OSM   C18F13118  -0.923   3.183   8.716 -0.0818  0.7873 -0.3989
  123OSM   H18F13119  -1.008   3.123   8.677 -0.1932  0.6615  0.0365
  123OSM   H18G13120  -0.953   3.284   8.748  0.1069  0.4571  0.8507
  123OSM   H18H13121  -0.861   3.136   8.796  0.4709 -0.1240 -1.3428
  124OSM      N13122   0.850   5.387   6.375 -0.5168 -0.3569 -0.8386
  124OSM    C1513123   0.703   5.363   6.381  0.8526 -0.2994  0.0738
  124OSM   H15A13124   0.662   5.263   6.369 -0.9431  0.1608  2.1172
  124OSM   H15B13125   0.659   5.430   6.308  0.0986  0.4471  1.1915
  124OSM   H15C13126   0.651   5.408   6.464  1.9893  2.5068 -0.6929
  124OSM    C1413127   0.925   5.285   6.460 -0.3981 -0.0493 -0.1884
  124OSM   H14A13128   1.023   5.327   6.479 -0.3830 -0.3625  0.4422
  124OSM   H14B13129   0.929   5.189   6.411  2.5815 -1.3197  2.4060
  124OSM   H14C13130   0.861   5.273   6.546 -0.5849  2.1618  0.0202
  124OSM    C1313131   0.887   5.349   6.234 -0.2796  1.0704  0.4759
  124OSM   H13A13132   0.849   5.420   6.162  0.8356 -1.0585 -2.3298
  124OSM   H13B13133   0.861   5.250   6.201 -0.3326  1.5357 -0.9084
  124OSM   H13C13134   0.993   5.356   6.214 -0.6182 -1.2903 -2.4987
  124OSM    C1213135   0.882   5.531   6.410 -0.0329 -0.2044  0.8014
  124OSM   H12A13136   0.830   5.560   6.499 -2.1757  0.1673 -0.5323
  124OSM   H12B13137   0.849   5.595   6.329 -0.1298  2.3071  2.7884
  124OSM    C1113138   1.028   5.574   6.424  0.2024  0.2896  0.6490
  124OSM   H11A13139   1.055   5.509   6.510 -4.4226 -2.1115  0.4243
  124OSM   H11B13140   1.030   5.682   6.453  1.4708  0.1808  0.9853
  124OSM      P13141   1.233   5.455   6.317  0.0747 -0.0973  0.6928
  124OSM    O1313142   1.241   5.375   6.194  0.9963  0.2225 -0.9300
  124OSM    O1413143   1.347   5.552   6.332 -0.0836 -0.3153  0.0372
  124OSM    O1113144   1.226   5.353   6.450 -0.4174  0.1463  0.7682
  124OSM    O1213145   1.102   5.540   6.307  0.0125 -0.3753 -0.4028
  124OSM    C1S13146   1.292   5.419   6.561  0.1068 -0.3949  0.1292
  124OSM    H1S13147   1.238   5.513   6.586 -1.7710 -1.2693 -0.5431
  124OSM    H1T13148   1.400   5.441   6.543  0.1027  0.5989  1.2833
  124OSM     NF13149   1.370   5.380   6.782 -0.5450 -0.1540 -0.0837
  124OSM    HNF13150   1.464   5.362   6.756  0.0209  1.4771  0.7893
  124OSM    C2S13151   1.280   5.331   6.686  0.1300  0.2238 -0.7067
  124OSM    H2S13152   1.176   5.330   6.725 -0.6052 -0.3169 -2.6474
  124OSM    C3S13153   1.312   5.179   6.650 -0.3446  0.5649 -0.0480
  124OSM    H3S13154   1.400   5.159   6.584  0.3102  1.4287  0.5557
  124OSM     O313155   1.210   5.113   6.564 -0.0729 -0.2510 -0.5421
  124OSM    HO313156   1.167   5.182   6.513  1.3367  1.0399  0.0078
  124OSM    C4S13157   1.321   5.104   6.772  0.6734 -0.1582  0.3612
  124OSM    H4S13158   1.222   5.087   6.818 -0.4476 -0.6520 -2.1879
  124OSM    C5S13159   1.425   5.049   6.841  0.0866  0.3766 -0.3372
  124OSM    H5S13160   1.526   5.056   6.799  0.0443 -2.9971 -1.1650
  124OSM    C6S13161   1.421   4.968   6.969 -0.1222  0.0169  0.3152
  124OSM    H6S13162   1.493   4.884   6.971  1.3737  1.2602 -0.4883
  124OSM    H6T13163   1.324   4.917   6.989 -1.2729  2.1478  0.3786
  124OSM    C7S13164   1.446   5.055   7.098 -0.8781  0.4199 -0.3800
  124OSM    H7S13165   1.357   5.120   7.113 -1.8273 -0.7800 -0.7263
  124OSM    H7T13166   1.539   5.114   7.094  2.0012 -3.7429  1.4846
  124OSM    C8S13167   1.482   4.965   7.217  0.1892  0.6564 -0.1555
  124OSM    H8S13168   1.588   4.932   7.210  0.8730  2.7288 -0.0034
  124OSM    H8T13169   1.415   4.877   7.221  2.5193 -1.1728 -0.6460
  124OSM    C9S13170   1.468   5.044   7.350 -0.4802  0.2915 -0.3742
  124OSM    H9S13171   1.365   5.087   7.347  0.0575  1.7828  1.6658
  124OSM    H9T13172   1.533   5.134   7.348  0.2201 -0.2222 -0.8855
  124OSM   C10S13173   1.509   4.966   7.473 -0.1929  0.1020 -0.1372
  124OSM   H10S13174   1.615   4.930   7.468 -0.0277  0.1274  2.3290
  124OSM   H10T13175   1.433   4.886   7.485 -1.0793  1.4893  4.2748
  124OSM   C11S13176   1.489   5.054   7.595 -0.2771  0.5553 -0.2920
  124OSM   H11S13177   1.382   5.085   7.605 -1.4243 -3.2623 -0.0488
  124OSM   H11T13178   1.545   5.150   7.591  0.8408 -0.0478  0.6861
  124OSM   C12S13179   1.541   4.978   7.714  0.3115 -0.5464  0.0411
  124OSM   H12S13180   1.562   5.039   7.804 -0.7920 -1.4823  0.9489
  124OSM   H12T13181   1.639   4.936   7.683 -0.1550 -1.4772 -0.2154
  124OSM   C13S13182   1.443   4.870   7.755  0.3414 -0.2783  0.0769
  124OSM   H13S13183   1.429   4.809   7.663 -0.0091  2.2804 -1.6020
  124OSM   H13T13184   1.346   4.913   7.786 -1.5202 -1.5771 -3.5938
  124OSM   C14S13185   1.485   4.770   7.874 -0.4307 -0.7432 -0.9033
  124OSM   H14S13186   1.596   4.761   7.869 -0.4089 -0.4400 -1.0103
  124OSM   H14T13187   1.449   4.669   7.846 -2.6931  0.0190 -0.8546
  124OSM   C15S13188   1.447   4.811   8.015  0.0140  0.1381 -0.6977
  124OSM   H15S13189   1.337   4.820   8.030 -0.2514  0.0100 -2.4747
  124OSM   H15T13190   1.487   4.911   8.038 -0.7938  0.3237 -0.0604
  124OSM   C16S13191   1.513   4.727   8.122  0.1393 -0.1355  0.7117
  124OSM   H16S13192   1.623   4.726   8.109  0.2999  3.5120  1.3091
  124OSM   H16T13193   1.496   4.618   8.114  1.1259 -0.1923 -0.9870
  124OSM   C17S13194   1.476   4.779   8.259  0.8212  0.5681 -0.6843
  124OSM   H17S13195   1.366   4.765   8.267  1.1018 -1.8756 -0.5409
  124OSM   H17T13196   1.507   4.885   8.254 -0.9447  1.0916 -0.8574
  124OSM   C18S13197   1.543   4.701   8.375 -0.0461 -0.1633 -1.0510
  124OSM   H18S13198   1.525   4.753   8.472 -0.4108  0.9401 -1.6996
  124OSM   H18T13199   1.652   4.704   8.355  0.1473  1.0401  0.1195
  124OSM   H18U13200   1.519   4.592   8.380  0.5429 -0.1913  1.9809
  124OSM    C1F13201   1.331   5.490   6.847 -0.3172 -0.3060  0.3862
  124OSM     OF13202   1.213   5.525   6.855  0.2906 -0.0168  0.0292
  124OSM    C2F13203   1.444   5.573   6.900  0.5830 -0.8147 -0.5802
  124OSM    H2F13204   1.413   5.679   6.886 -0.0709 -0.9226  0.0534
  124OSM    H2G13205   1.534   5.559   6.836  1.0372 -0.0585 -0.1072
  124OSM    C3F13206   1.480   5.550   7.047 -0.5847  0.6460 -0.1724
  124OSM    H3F13207   1.399   5.586   7.114 -2.2549  0.2505 -1.9133
  124OSM    H3G13208   1.563   5.618   7.075  0.0970 -0.1626 -0.2248
  124OSM    C4F13209   1.517   5.409   7.084 -0.2814  0.4375  0.1095
  124OSM    H4F13210   1.563   5.353   7.000  1.2470  2.4866 -0.4745
  124OSM    H4G13211   1.413   5.375   7.101 -0.3070  0.8536  0.8182
  124OSM    C5F13212   1.603   5.393   7.211 -0.8971 -0.2260 -0.0242
  124OSM    H5F13213   1.689   5.461   7.227 -1.5823  0.4463  0.8741
  124OSM    H5G13214   1.623   5.284   7.219 -0.5541 -0.0943  1.0580
  124OSM    C6F13215   1.517   5.416   7.336  0.1572  0.2756 -0.0217
  124OSM    H6F13216   1.447   5.329   7.338 -0.6981  0.9670  0.2277
  124OSM    H6G13217   1.458   5.510   7.333  0.6666  0.5529 -2.7046
  124OSM    C7F13218   1.588   5.425   7.472  0.1310  0.1709 -0.2221
  124OSM    H7F13219   1.675   5.494   7.465 -0.4350  0.9593  0.5166
  124OSM    H7G13220   1.630   5.325   7.495 -0.3492 -0.0478 -0.2923
  124OSM    C8F13221   1.491   5.464   7.583 -0.1326 -0.1570  0.7820
  124OSM    H8F13222   1.418   5.381   7.592  0.3834 -0.5014  1.9780
  124OSM    H8G13223   1.438   5.554   7.546  0.5073 -0.5438 -1.1582
  124OSM    C9F13224   1.554   5.504   7.717 -0.3503 -0.3209  0.0138
  124OSM    H9F13225   1.607   5.601   7.713 -1.2624  0.2428  1.2193
  124OSM   C10F13226   1.563   5.432   7.832 -0.1601  0.5480  0.9008
  124OSM   H10F13227   1.608   5.476   7.923 -1.1918 -0.2126  1.7967
  124OSM   C11F13228   1.506   5.296   7.864  0.5214  0.2893 -0.0266
  124OSM   H11F13229   1.591   5.227   7.880 -0.7627 -0.7689  2.4937
  124OSM   H11G13230   1.439   5.271   7.779  0.8912 -0.9732  0.0528
  124OSM   C12F13231   1.417   5.290   7.979 -0.5848 -0.4296  0.4978
  124OSM   H12F13232   1.373   5.189   7.965 -1.5089  0.1796 -1.1192
  124OSM   H12G13233   1.324   5.351   7.980 -1.3993 -1.6603  1.4919
  124OSM   C13F13234   1.482   5.288   8.113 -0.0382 -0.5016 -0.1586
  124OSM   H13F13235   1.527   5.387   8.135 -0.2578 -0.0840 -1.5763
  124OSM   H13G13236   1.562   5.212   8.119 -0.5098 -0.9055  1.4501
  124OSM   C14F13237   1.389   5.276   8.234 -0.0454  0.0729 -0.8839
  124OSM   H14F13238   1.354   5.170   8.232 -0.7091  0.3068 -1.9282
  124OSM   H14G13239   1.294   5.334   8.226  0.0205  0.2133 -0.6541
  124OSM   C15F13240   1.442   5.318   8.372 -0.4097 -0.5720  0.6995
  124OSM   H15F13241   1.358   5.321   8.445  0.5436 -0.7999  1.8138
  124OSM   H15G13242   1.489   5.418   8.359 -0.7334 -0.4511  0.4451
  124OSM   C16F13243   1.549   5.230   8.438  0.2354  0.6127 -0.2686
  124OSM   H16F13244   1.589   5.277   8.530 -0.5355 -1.4352  1.1543
  124OSM   H16G13245   1.634   5.231   8.366  1.0167  0.1608  0.6441
  124OSM   C17F13246   1.499   5.084   8.471  0.0978 -0.1516 -0.4433
  124OSM   H17F13247   1.581   5.011   8.486 -1.1189 -1.6627 -1.0559
  124OSM   H17G13248   1.436   5.050   8.386 -2.9347  0.5120  1.4540
  124OSM   C18F13249   1.423   5.080   8.609  0.4575 -0.0467 -0.3017
  124OSM   H18F13250   1.479   5.113   8.698 -0.2147 -0.1778  0.1763
  124OSM   H18G13251   1.392   4.974   8.625  1.8261 -0.2423  1.1725
  124OSM   H18H13252   1.331   5.142   8.596  0.9782  0.9224  0.5916
  125OSM      N13253   4.848   3.561   6.126  0.5160 -0.3033  0.2011
  125OSM    C1513254   4.940   3.521   6.231 -0.0000  0.3460 -0.1094
  125OSM   H15A13255   5.016   3.597   6.245  0.3262 -0.2203  1.3446
  125OSM   H15B13256   4.992   3.429   6.211 -2.2667 -1.3453  1.5506
  125OSM   H15C13257   4.891   3.510   6.327  2.7452 -0.7281  1.2350
  125OSM    C1413258   4.929   3.609   6.008 -0.0943  0.4155  0.0849
  125OSM   H14A13259   4.991   3.530   5.966 -1.0990 -1.4244  1.9797
  125OSM   H14B13260   4.999   3.687   6.035 -2.4321  3.3283 -1.9004
  125OSM   H14C13261   4.862   3.644   5.931 -0.7241 -0.6472  0.1450
  125OSM    C1313262   4.760   3.451   6.089  0.6621 -0.2043 -0.0903
  125OSM   H13A13263   4.809   3.358   6.067 -0.8657 -1.2678  0.8768
  125OSM   H13B13264   4.706   3.474   5.998 -0.3155 -0.1163  0.5001
  125OSM   H13C13265   4.687   3.419   6.162  0.5062 -2.9290 -1.3846
  125OSM    C1213266   4.768   3.681   6.167 -0.5198  0.3714  0.1308
  125OSM   H12A13267   4.708   3.706   6.080  1.1181  0.5626 -0.9669
  125OSM   H12B13268   4.832   3.761   6.201 -1.1608  0.5849  0.8329
  125OSM    C1113269   4.666   3.656   6.277  0.5337 -0.2837  0.5254
  125OSM   H11A13270   4.635   3.755   6.316  2.0276 -0.0956  1.2601
  125OSM   H11B13271   4.713   3.598   6.360  1.4783 -0.5435 -0.1848
  125OSM      P13272   4.444   3.658   6.139 -0.3264 -0.1985 -0.1370
  125OSM    O1313273   4.515   3.737   6.030 -0.2559  0.4631  0.2757
  125OSM    O1413274   4.355   3.552   6.086  0.2657  0.3574  0.0314
  125OSM    O1113275   4.373   3.736   6.248 -0.3079  0.2112  0.5142
  125OSM    O1213276   4.552   3.588   6.225  0.2185 -0.0078  0.4192
  125OSM    C1S13277   4.278   3.689   6.343 -0.7143 -0.1661 -0.5941
  125OSM    H1S13278   4.263   3.580   6.329 -0.6894 -0.3487  0.7648
  125OSM    H1T13279   4.180   3.731   6.312  0.2096  3.2784  0.9154
  125OSM     NF13280   4.239   3.656   6.575  0.2340  0.0099  0.4073
  125OSM    HNF13281   4.148   3.695   6.586  0.7123  2.0781 -2.5921
  125OSM    C2S13282   4.325   3.725   6.484 -0.4852  0.6282  0.5051
  125OSM    H2S13283   4.429   3.688   6.498 -0.5773  0.4638  0.7391
  125OSM    C3S13284   4.331   3.876   6.505 -0.5850 -1.0292  0.1302
  125OSM    H3S13285   4.234   3.917   6.471  0.8485  1.0888 -1.5637
  125OSM     O313286   4.428   3.933   6.413 -0.2607  0.0359 -0.0772
  125OSM    HO313287   4.447   3.867   6.346  1.0767 -2.1344  2.3197
  125OSM    C4S13288   4.366   3.917   6.643  0.7560  0.1110  0.2046
  125OSM    H4S13289   4.445   3.870   6.704 -0.3087 -2.2266 -0.1501
  125OSM    C5S13290   4.304   4.023   6.697  0.1047 -0.3342 -0.2017
  125OSM    H5S13291   4.236   4.085   6.637  0.8548  1.8113  1.1111
  125OSM    C6S13292   4.333   4.082   6.830  0.1377  0.2979 -0.2736
  125OSM    H6S13293   4.231   4.088   6.874  0.7842 -2.0226  1.7033
  125OSM    H6T13294   4.368   4.187   6.833  0.5210  0.1850 -0.7638
  125OSM    C7S13295   4.421   3.997   6.924  0.5020  0.0155 -0.4729
  125OSM    H7S13296   4.517   3.987   6.870 -1.0243 -2.1918 -2.9527
  125OSM    H7T13297   4.379   3.901   6.960  0.2195  0.3314  0.0425
  125OSM    C8S13298   4.440   4.072   7.056  0.1851  0.2473  0.0154
  125OSM    H8S13299   4.348   4.092   7.114  1.0506  0.7558  1.2242
  125OSM    H8T13300   4.476   4.170   7.017 -0.3806  0.6849  0.5787
  125OSM    C9S13301   4.551   4.014   7.146 -0.1136 -0.1239 -0.5513
  125OSM    H9S13302   4.644   3.996   7.088  0.8788  1.1762  0.5949
  125OSM    H9T13303   4.522   3.915   7.186 -0.2622  0.6003  1.1707
  125OSM   C10S13304   4.573   4.116   7.258  1.0306  0.5853  0.3423
  125OSM   H10S13305   4.475   4.157   7.292  0.3518 -1.6597  1.1604
  125OSM   H10T13306   4.627   4.200   7.208 -2.7247  2.1140 -1.3640
  125OSM   C11S13307   4.635   4.047   7.380 -0.3599 -0.4158 -0.0884
  125OSM   H11S13308   4.734   4.007   7.351  0.1705  0.2742  0.7717
  125OSM   H11T13309   4.576   3.956   7.402 -1.5372  0.2544 -0.4088
  125OSM   C12S13310   4.639   4.146   7.496  0.4705 -0.6123  0.1280
  125OSM   H12S13311   4.554   4.217   7.502  0.8364 -0.2098  0.5307
  125OSM   H12T13312   4.725   4.212   7.471  1.5734 -2.7288 -1.9572
  125OSM   C13S13313   4.628   4.081   7.634 -0.9153 -0.4755 -0.5095
  125OSM   H13S13314   4.723   4.026   7.649 -0.9196 -0.1402  0.7939
  125OSM   H13T13315   4.553   4.000   7.644 -2.2296  0.6794 -0.8433
  125OSM   C14S13316   4.611   4.181   7.743 -0.1797  0.3651 -0.1126
  125OSM   H14S13317   4.517   4.235   7.716 -0.7986 -0.4164  0.4590
  125OSM   H14T13318   4.697   4.250   7.728  1.6638 -2.1168 -1.1859
  125OSM   C15S13319   4.597   4.137   7.892 -0.0198 -0.4756  0.0748
  125OSM   H15S13320   4.491   4.106   7.901  0.3242 -1.0164  2.6218
  125OSM   H15T13321   4.605   4.223   7.962  1.3935  0.2262 -0.9450
  125OSM   C16S13322   4.691   4.030   7.938  0.1645 -0.4441 -0.2055
  125OSM   H16S13323   4.794   4.071   7.943 -0.5637  1.2853  1.2931
  125OSM   H16T13324   4.706   3.943   7.871  0.4011 -0.4749 -0.1150
  125OSM   C17S13325   4.658   3.966   8.075 -0.2596  0.5016  0.5163
  125OSM   H17S13326   4.570   3.899   8.066  0.2972 -0.2338  0.4315
  125OSM   H17T13327   4.632   4.047   8.146  1.0620  2.3072 -1.0141
  125OSM   C18S13328   4.773   3.876   8.133  0.3044 -0.6992 -0.2922
  125OSM   H18S13329   4.863   3.939   8.147  0.7567 -0.7178 -2.9028
  125OSM   H18T13330   4.806   3.790   8.072  0.7031 -0.1777 -0.8118
  125OSM   H18U13331   4.742   3.838   8.233  2.0274 -2.9716 -0.5808
  125OSM    C1F13332   4.263   3.525   6.601  0.4826  0.2346  1.1473
  125OSM     OF13333   4.376   3.482   6.615 -0.0896 -0.1012  0.2813
  125OSM    C2F13334   4.140   3.439   6.607 -0.1962  0.2524 -0.5612
  125OSM    H2F13335   4.111   3.423   6.501  0.8466 -0.4803 -0.7485
  125OSM    H2G13336   4.059   3.496   6.657  1.5539  2.9845 -0.7008
  125OSM    C3F13337   4.152   3.307   6.687 -0.1279 -0.1363 -0.0419
  125OSM    H3F13338   4.232   3.245   6.642 -0.4901 -0.1765 -0.6355
  125OSM    H3G13339   4.055   3.254   6.674  0.0041 -0.4320  0.1503
  125OSM    C4F13340   4.188   3.331   6.838  0.4884  0.7025 -0.2547
  125OSM    H4F13341   4.262   3.414   6.837 -1.0296  2.0972  0.4358
  125OSM    H4G13342   4.220   3.231   6.876  0.8695 -0.3232 -3.1127
  125OSM    C5F13343   4.071   3.373   6.934 -0.5466  1.0800  0.4924
  125OSM    H5F13344   3.996   3.295   6.958 -0.0930 -0.5630 -3.1499
  125OSM    H5G13345   4.026   3.464   6.889  0.8741  0.8982 -1.3800
  125OSM    C6F13346   4.126   3.415   7.073 -0.2111  0.2700 -0.2061
  125OSM    H6F13347   4.170   3.517   7.068 -2.2795  1.2199  0.2739
  125OSM    H6G13348   4.215   3.350   7.087 -0.1171  0.3545 -0.4117
  125OSM    C7F13349   4.037   3.385   7.198  0.4814  0.4545 -0.2236
  125OSM    H7F13350   3.960   3.313   7.164  0.2722  0.8818 -0.6558
  125OSM    H7G13351   3.987   3.482   7.216  1.5054  1.5047 -2.7789
  125OSM    C8F13352   4.105   3.320   7.322  0.4534 -0.0662  0.7940
  125OSM    H8F13353   4.170   3.234   7.295 -0.3046 -0.8615  1.4522
  125OSM    H8G13354   4.029   3.274   7.388 -2.2499  2.2707 -0.5762
  125OSM    C9F13355   4.215   3.410   7.370 -0.2021  0.6274 -0.1874
  125OSM    H9F13356   4.271   3.466   7.293  2.3528  0.1530  1.2940
  125OSM   C10F13357   4.232   3.444   7.497  0.1886  0.1912 -0.0503
  125OSM   H10F13358   4.315   3.513   7.521  0.9031 -0.5511 -0.3546
  125OSM   C11F13359   4.157   3.410   7.625  0.0278  0.0768  0.8413
  125OSM   H11F13360   4.063   3.356   7.602 -1.2535  1.9361  1.6749
  125OSM   H11G13361   4.117   3.497   7.681  0.7684  1.5815 -0.9166
  125OSM   C12F13362   4.244   3.332   7.725  0.0046  0.0843 -0.5338
  125OSM   H12F13363   4.332   3.285   7.676 -1.3886 -1.3941 -1.6787
  125OSM   H12G13364   4.190   3.255   7.783 -0.4776  0.7485 -0.0955
  125OSM   C13F13365   4.284   3.430   7.840  0.3536  0.1436  0.6071
  125OSM   H13F13366   4.187   3.460   7.886  0.1819  0.7671 -0.1557
  125OSM   H13G13367   4.333   3.519   7.795 -1.3399  0.7031 -0.1740
  125OSM   C14F13368   4.377   3.360   7.944 -0.0028 -0.0219 -0.3209
  125OSM   H14F13369   4.470   3.348   7.884  0.6250 -1.7231  0.9502
  125OSM   H14G13370   4.328   3.263   7.967 -0.1359  0.4152  1.3444
  125OSM   C15F13371   4.398   3.448   8.065 -0.3876 -0.0822 -0.1796
  125OSM   H15F13372   4.304   3.473   8.119  0.2072  0.0172  0.8098
  125OSM   H15G13373   4.439   3.549   8.045 -1.6737  0.7807  1.4275
  125OSM   C16F13374   4.481   3.371   8.167 -0.2178 -0.3395 -0.6889
  125OSM   H16F13375   4.581   3.353   8.123  0.1905  0.3349 -0.0481
  125OSM   H16G13376   4.437   3.270   8.185 -1.7081  0.1048 -1.7593
  125OSM   C17F13377   4.485   3.449   8.306  0.5992  1.0765 -0.3503
  125OSM   H17F13378   4.514   3.390   8.396 -1.0275  0.7166 -0.0537
  125OSM   H17G13379   4.383   3.490   8.322  0.4771  0.2580  1.0607
  125OSM   C18F13380   4.584   3.576   8.310 -0.4467 -0.3919  0.1603
  125OSM   H18F13381   4.556   3.641   8.224 -1.1871 -0.8272  0.0663
  125OSM   H18G13382   4.690   3.548   8.293  0.2162  1.8330  0.4163
  125OSM   H18H13383   4.577   3.629   8.407 -1.3295 -0.9505  0.4077
  126OSM      N13384   1.517   1.446   6.504 -0.3934  1.1116 -0.7360
  126OSM    C1513385   1.527   1.294   6.534  0.4436 -0.3583  0.6982
  126OSM   H15A13386   1.431   1.245   6.543  0.9049 -1.1958  1.0989
  126OSM   H15B13387   1.583   1.279   6.625  0.7905  0.4151  0.6256
  126OSM   H15C13388   1.579   1.240   6.456  0.9468 -0.0290  0.8001
  126OSM    C1413389   1.656   1.512   6.486  0.3000 -0.3317  0.7493
  126OSM   H14A13390   1.707   1.500   6.580  2.6374  0.6354 -0.3456
  126OSM   H14B13391   1.653   1.620   6.482  2.3819 -0.2521  1.1775
  126OSM   H14C13392   1.721   1.468   6.412  2.3553 -0.2982  2.4980
  126OSM    C1313393   1.450   1.462   6.367  0.1441 -0.0416 -0.1576
  126OSM   H13A13394   1.509   1.423   6.285  0.9274  1.7741 -0.4730
  126OSM   H13B13395   1.430   1.565   6.345  1.4181  0.5065  1.1668
  126OSM   H13C13396   1.355   1.410   6.368  1.4075 -2.4086  0.0544
  126OSM    C1213397   1.424   1.505   6.604  0.4412  0.3903  0.0098
  126OSM   H12A13398   1.475   1.497   6.699 -0.1435 -0.3775  0.2625
  126OSM   H12B13399   1.334   1.447   6.616  0.4726 -0.1027 -2.0832
  126OSM    C1113400   1.387   1.658   6.589 -0.4603  0.2749  0.1248
  126OSM   H11A13401   1.486   1.705   6.568 -0.8072  2.0593  2.2866
  126OSM   H11B13402   1.353   1.688   6.690  1.1744 -0.1141  0.8138
  126OSM      P13403   1.134   1.619   6.517 -0.2293  0.0300  0.1795
  126OSM    O1313404   1.042   1.672   6.417  0.5293  0.7432  0.4630
  126OSM    O1413405   1.134   1.474   6.539  0.2811 -0.1947  0.4137
  126OSM    O1113406   1.099   1.692   6.655 -0.1773 -0.2680 -0.1074
  126OSM    O1213407   1.285   1.670   6.490 -0.2191 -0.8445 -0.7528
  126OSM    C1S13408   1.041   1.614   6.755 -0.2055 -0.0760 -0.4862
  126OSM    H1S13409   1.101   1.526   6.789 -1.6563 -0.0512  2.2893
  126OSM    H1T13410   0.949   1.565   6.716  0.1605 -1.4234  0.2778
  126OSM     NF13411   0.921   1.607   6.973  0.2517 -0.0267  0.6512
  126OSM    HNF13412   0.824   1.621   6.992  0.1441  2.2845 -1.4206
  126OSM    C2S13413   0.989   1.697   6.877 -0.0685  0.8959  0.2977
  126OSM    H2S13414   1.070   1.732   6.944 -0.9308 -1.4558  2.6503
  126OSM    C3S13415   0.898   1.825   6.835  0.0311 -0.0860 -1.0953
  126OSM    H3S13416   0.802   1.791   6.790  1.0004  0.4971 -3.7091
  126OSM     O313417   0.958   1.919   6.742  0.0364  0.3639 -0.2835
  126OSM    HO313418   1.038   1.883   6.704  0.5005 -0.6652  1.5913
  126OSM    C4S13419   0.855   1.898   6.959  0.2330 -0.2182 -0.1258
  126OSM    H4S13420   0.750   1.867   6.968  0.4544 -0.9834 -0.0768
  126OSM    C5S13421   0.924   1.977   7.044 -0.0900 -0.6252  0.0662
  126OSM    H5S13422   1.022   2.018   7.014 -0.2552 -0.5894 -0.4261
  126OSM    C6S13423   0.862   2.043   7.170 -0.5443 -0.0252 -0.3974
  126OSM    H6S13424   0.753   2.033   7.152 -1.0019 -2.2233  3.0212
  126OSM    H6T13425   0.887   2.151   7.183 -0.0259 -0.0351 -1.2835
  126OSM    C7S13426   0.898   1.984   7.311  0.1548  0.3162 -0.9256
  126OSM    H7S13427   1.007   1.972   7.332  0.3913  2.1939 -0.9693
  126OSM    H7T13428   0.858   1.881   7.322 -0.5922  0.9754  3.4836
  126OSM    C8S13429   0.828   2.050   7.439 -0.0995  0.5484  0.2576
  126OSM    H8S13430   0.723   2.065   7.407  0.8651  1.5474 -2.5396
  126OSM    H8T13431   0.865   2.153   7.457  1.7588 -0.0361 -0.1386
  126OSM    C9S13432   0.841   1.974   7.567  0.6687 -0.4639  0.6319
  126OSM    H9S13433   0.948   1.943   7.572  1.5240  2.1618 -0.6283
  126OSM    H9T13434   0.783   1.879   7.560  1.4998 -0.8396 -1.4674
  126OSM   C10S13435   0.798   2.055   7.687  0.3498  1.1028  0.5014
  126OSM   H10S13436   0.689   2.071   7.675  0.4274  1.3421  0.0998
  126OSM   H10T13437   0.847   2.155   7.683 -0.0315  1.2072 -2.2184
  126OSM   C11S13438   0.825   1.983   7.827 -0.0725 -0.1859  0.0279
  126OSM   H11S13439   0.933   1.959   7.830  0.1947  1.0495  0.3813
  126OSM   H11T13440   0.757   1.896   7.814  0.2709 -0.3693 -0.5407
  126OSM   C12S13441   0.783   2.065   7.956  0.0443  0.2602  0.3089
  126OSM   H12S13442   0.694   2.125   7.928 -0.3766 -0.0145  1.0417
  126OSM   H12T13443   0.868   2.128   7.989  0.0164  0.8982 -0.8243
  126OSM   C13S13444   0.750   1.968   8.069 -0.4008 -0.0437 -0.6258
  126OSM   H13S13445   0.829   1.891   8.070 -1.2676 -0.9601 -1.7400
  126OSM   H13T13446   0.658   1.913   8.040 -0.2633 -1.6862  1.8927
  126OSM   C14S13447   0.741   2.029   8.205  0.4520 -0.2411  0.1598
  126OSM   H14S13448   0.679   2.121   8.208  0.3512 -0.2983 -0.1358
  126OSM   H14T13449   0.840   2.050   8.251 -0.2980  1.0510  1.2206
  126OSM   C15S13450   0.670   1.920   8.295  0.0918  0.3500 -0.0917
  126OSM   H15S13451   0.732   1.836   8.258 -0.6293  0.2303 -1.0626
  126OSM   H15T13452   0.567   1.893   8.263  0.6494 -0.7088 -1.0535
  126OSM   C16S13453   0.672   1.926   8.452 -0.4964 -0.1411 -0.6693
  126OSM   H16S13454   0.584   1.881   8.502 -0.6605 -1.4652 -2.1200
  126OSM   H16T13455   0.672   2.036   8.466  1.7414 -0.3349  1.2077
  126OSM   C17S13456   0.800   1.867   8.512 -0.7519 -0.3957  0.8281
  126OSM   H17S13457   0.887   1.920   8.470 -0.9653 -0.3827  0.4066
  126OSM   H17T13458   0.813   1.767   8.464 -2.2187 -0.5486  0.7188
  126OSM   C18S13459   0.795   1.867   8.669  0.6236  0.5642  0.3604
  126OSM   H18S13460   0.748   1.959   8.710  1.6682  0.7736  1.1002
  126OSM   H18T13461   0.895   1.872   8.717  2.5573  0.1860 -3.4018
  126OSM   H18U13462   0.740   1.777   8.703  0.9194 -0.1917 -1.1414
  126OSM    C1F13463   0.989   1.505   7.029 -0.0188  0.6437 -0.6403
  126OSM     OF13464   1.112   1.511   7.038  0.2639  0.0548 -0.2988
  126OSM    C2F13465   0.916   1.375   7.075  0.0162  0.5043  0.3010
  126OSM    H2F13466   0.855   1.342   6.988  1.6517 -0.4827 -0.5118
  126OSM    H2G13467   0.835   1.409   7.142  0.0989 -0.6287  0.9981
  126OSM    C3F13468   1.018   1.276   7.145 -0.2546 -0.7496 -0.5282
  126OSM    H3F13469   1.075   1.334   7.221 -0.4652 -0.7316 -0.3846
  126OSM    H3G13470   1.091   1.242   7.068  0.3562 -0.8940  0.1030
  126OSM    C4F13471   0.951   1.155   7.200 -0.1431 -0.0997  0.1867
  126OSM    H4F13472   1.031   1.079   7.205  0.3126  0.4655  1.7610
  126OSM    H4G13473   0.863   1.123   7.141 -0.3477  1.5857 -0.4558
  126OSM    C5F13474   0.913   1.161   7.350  0.6065 -0.7993 -0.7231
  126OSM    H5F13475   0.826   1.230   7.351  0.0730 -1.4790  0.3875
  126OSM    H5G13476   1.002   1.192   7.410  0.9386 -2.7041 -0.2080
  126OSM    C6F13477   0.875   1.026   7.415  0.7220  0.4403  0.3276
  126OSM    H6F13478   0.967   0.965   7.401  0.0104 -0.6885  0.5079
  126OSM    H6G13479   0.792   0.978   7.360  0.8693  0.2863  0.2413
  126OSM    C7F13480   0.828   1.031   7.563 -0.7866  0.2915 -0.2226
  126OSM    H7F13481   0.823   0.924   7.591 -1.6921  0.0114 -1.4172
  126OSM    H7G13482   0.729   1.081   7.551 -0.1466  1.5817 -0.2346
  126OSM    C8F13483   0.905   1.114   7.668 -0.1194 -0.9048 -0.6245
  126OSM    H8F13484   0.861   1.111   7.769 -0.7907  0.8094 -0.8464
  126OSM    H8G13485   0.883   1.219   7.640 -3.0357 -1.7004 -1.5482
  126OSM    C9F13486   1.048   1.062   7.683  0.1579  0.2339  0.1597
  126OSM    H9F13487   1.089   1.002   7.600  0.4521  1.2849 -0.4632
  126OSM   C10F13488   1.119   1.065   7.803  0.9305  0.0637 -0.8790
  126OSM   H10F13489   1.222   1.025   7.809  1.4015  1.3977  0.1414
  126OSM   C11F13490   1.074   1.137   7.933  0.3637 -0.8316 -0.2557
  126OSM   H11F13491   0.987   1.203   7.913 -0.4655 -1.3970  1.4074
  126OSM   H11G13492   1.151   1.206   7.974 -0.0513 -1.1199  1.0028
  126OSM   C12F13493   1.030   1.051   8.057 -0.2336 -0.3612  0.7662
  126OSM   H12F13494   1.108   0.975   8.080 -0.0675 -0.1266  0.9866
  126OSM   H12G13495   0.943   0.996   8.016  0.5730 -2.1060  1.3487
  126OSM   C13F13496   1.003   1.149   8.172 -0.0077 -0.4784  0.1786
  126OSM   H13F13497   0.919   1.212   8.136  2.0233  0.1477 -3.6365
  126OSM   H13G13498   1.095   1.209   8.189  0.3085 -0.7284 -0.6577
  126OSM   C14F13499   0.952   1.090   8.309  0.1485  0.5130  0.2826
  126OSM   H14F13500   1.032   1.016   8.330  0.3443  0.1683 -1.5682
  126OSM   H14G13501   0.853   1.040   8.297 -0.4198  1.5468  0.6191
  126OSM   C15F13502   0.948   1.175   8.442 -0.0088 -0.2900  0.3112
  126OSM   H15F13503   0.915   1.098   8.515  1.9024 -3.2021 -1.7942
  126OSM   H15G13504   0.875   1.257   8.423 -0.2612 -0.7806 -0.8620
  126OSM   C16F13505   1.083   1.249   8.464  0.6650 -0.2794  0.1162
  126OSM   H16F13506   1.075   1.298   8.564 -0.4007 -0.4408  0.1209
  126OSM   H16G13507   1.105   1.326   8.388  0.0696  1.0215  1.2512
  126OSM   C17F13508   1.207   1.163   8.484 -0.3692 -0.1148 -0.3713
  126OSM   H17F13509   1.227   1.122   8.383 -0.3320 -1.0587  0.0124
  126OSM   H17G13510   1.180   1.073   8.544 -1.6570  0.5993  0.1352
  126OSM   C18F13511   1.320   1.252   8.541  0.6554  0.4923  0.0319
  126OSM   H18F13512   1.277   1.311   8.624  3.6870  0.2423  1.8513
  126OSM   H18G13513   1.363   1.322   8.466 -0.0011  1.3914  0.4895
  126OSM   H18H13514   1.396   1.185   8.588 -1.9293 -1.5259  1.4795
  127OSM      N13515   6.486   2.398   6.162  0.0717  0.1427  0.9479
  127OSM    C1513516   6.346   2.411   6.106  0.4421 -0.2273  0.1270
  127OSM   H15A13517   6.264   2.365   6.158  0.5231 -1.5953 -0.9286
  127OSM   H15B13518   6.333   2.378   6.004  0.8488  3.6400 -1.2461
  127OSM   H15C13519   6.319   2.515   6.093 -0.3033 -0.3469  0.6736
  127OSM    C1413520   6.516   2.252   6.156  0.1439 -0.2906  0.0458
  127OSM   H14A13521   6.496   2.213   6.057  1.0152  0.6600 -0.5159
  127OSM   H14B13522   6.452   2.201   6.226  0.2340  0.8526  0.9739
  127OSM   H14C13523   6.620   2.235   6.181  1.1782  3.1169 -1.6275
  127OSM    C1313524   6.575   2.489   6.084 -0.4078  0.4064 -0.9220
  127OSM   H13A13525   6.670   2.497   6.135 -2.7810  1.3138  3.6344
  127OSM   H13B13526   6.530   2.587   6.071 -0.7879  0.2277 -0.9487
  127OSM   H13C13527   6.578   2.444   5.986  0.8219 -1.6271  0.0343
  127OSM    C1213528   6.474   2.446   6.307  0.4436 -0.1280  0.1907
  127OSM   H12A13529   6.407   2.392   6.372  1.4633 -0.8916  0.6140
  127OSM   H12B13530   6.426   2.543   6.300  0.0354 -0.3331  0.1114
  127OSM    C1113531   6.602   2.474   6.396 -0.2415  0.1615  0.1693
  127OSM   H11A13532   6.666   2.384   6.407  0.6938  0.9322  1.0233
  127OSM   H11B13533   6.571   2.486   6.502 -0.1595 -1.9224  0.4597
  127OSM      P13534   6.611   2.728   6.370 -0.0897  0.0839 -0.1230
  127OSM    O1313535   6.715   2.824   6.328 -0.6552 -0.0077  0.8490
  127OSM    O1413536   6.478   2.749   6.311 -0.0708 -0.1863  0.7679
  127OSM    O1113537   6.589   2.743   6.521  0.4782  0.1887 -0.4584
  127OSM    O1213538   6.674   2.586   6.347  0.8178 -0.0762 -0.2916
  127OSM    C1S13539   6.686   2.719   6.623  0.3920  0.4210 -0.1592
  127OSM    H1S13540   6.788   2.748   6.591  1.3432 -2.6010 -0.0235
  127OSM    H1T13541   6.694   2.609   6.637  0.9209  0.7781  2.7350
  127OSM     NF13542   6.761   2.780   6.851  1.0448  0.0076  0.3374
  127OSM    HNF13543   6.763   2.716   6.928  1.3605  1.1531  1.2889
  127OSM    C2S13544   6.648   2.786   6.758  0.4026  0.5540 -0.1521
  127OSM    H2S13545   6.633   2.895   6.741 -0.2392  0.9633  2.8219
  127OSM    C3S13546   6.511   2.729   6.814  0.0245  0.5772 -0.6098
  127OSM    H3S13547   6.521   2.621   6.837  1.4832  1.0376  1.0445
  127OSM     O313548   6.402   2.738   6.725 -0.4896  0.1228  0.3846
  127OSM    HO313549   6.443   2.755   6.640  2.5775 -3.0859  1.1200
  127OSM    C4S13550   6.476   2.800   6.941  0.3838 -0.0722  0.0297
  127OSM    H4S13551   6.531   2.758   7.025  2.6511  0.5613 -1.1012
  127OSM    C5S13552   6.380   2.890   6.974  0.1931 -0.2008 -0.2862
  127OSM    H5S13553   6.313   2.929   6.896  0.8174 -0.3545 -0.9103
  127OSM    C6S13554   6.357   2.950   7.110 -0.6021 -0.8327 -0.1372
  127OSM    H6S13555   6.248   2.965   7.119 -0.6469 -1.2945  0.0748
  127OSM    H6T13556   6.415   3.042   7.133 -1.5362 -0.4752  0.8761
  127OSM    C7S13557   6.397   2.864   7.230 -0.1863 -0.1578 -0.0644
  127OSM    H7S13558   6.508   2.859   7.227 -0.1452 -0.2345  1.2418
  127OSM    H7T13559   6.369   2.758   7.208 -1.0085  0.0987 -0.2482
  127OSM    C8S13560   6.350   2.916   7.362  0.4575  0.6307 -0.0645
  127OSM    H8S13561   6.347   2.829   7.431  0.8321 -2.8729 -4.2445
  127OSM    H8T13562   6.248   2.955   7.343 -0.1002 -0.2422  1.0636
  127OSM    C9S13563   6.417   3.040   7.423  0.0356  0.1133  0.3057
  127OSM    H9S13564   6.443   3.110   7.341 -1.8621 -0.0684 -0.4702
  127OSM    H9T13565   6.512   3.001   7.466 -0.4581 -1.0927  0.3316
  127OSM   C10S13566   6.338   3.107   7.537  0.1680 -0.5805 -0.8047
  127OSM   H10S13567   6.262   3.036   7.578 -0.3857 -0.4613 -1.6231
  127OSM   H10T13568   6.277   3.194   7.506 -0.8583 -1.1545 -0.4199
  127OSM   C11S13569   6.426   3.147   7.654 -0.2953  0.0464  0.2778
  127OSM   H11S13570   6.481   3.241   7.634 -0.1332 -0.0892  0.0822
  127OSM   H11T13571   6.496   3.066   7.685 -0.6408 -0.0073  0.9387
  127OSM   C12S13572   6.339   3.191   7.778 -0.4598 -0.1459  0.1428
  127OSM   H12S13573   6.240   3.143   7.791 -0.3764 -1.0909 -2.5349
  127OSM   H12T13574   6.310   3.291   7.741  0.0601 -0.7550 -1.9962
  127OSM   C13S13575   6.419   3.208   7.909 -0.4400  0.1927 -0.0716
  127OSM   H13S13576   6.439   3.104   7.941 -1.9846  0.0721  0.5773
  127OSM   H13T13577   6.343   3.251   7.979 -3.4067  0.2688 -3.2149
  127OSM   C14S13578   6.544   3.296   7.899 -0.0869 -0.0014  0.4365
  127OSM   H14S13579   6.515   3.403   7.886 -3.0598 -1.0480 -2.2520
  127OSM   H14T13580   6.598   3.258   7.809 -1.0843  1.0261 -0.6123
  127OSM   C15S13581   6.643   3.283   8.021 -0.0315  0.0561 -0.9709
  127OSM   H15S13582   6.639   3.176   8.050 -1.4197  0.3202 -0.1406
  127OSM   H15T13583   6.601   3.341   8.106  0.8114 -1.1561  0.2836
  127OSM   C16S13584   6.781   3.343   7.978 -0.4415  1.1311 -0.0241
  127OSM   H16S13585   6.783   3.443   7.929  3.8076  0.0148 -2.3863
  127OSM   H16T13586   6.822   3.264   7.912 -0.8035 -0.6000  1.7682
  127OSM   C17S13587   6.874   3.351   8.104  0.8535 -0.3724  0.4448
  127OSM   H17S13588   6.878   3.245   8.137  0.4174 -0.0277  1.6440
  127OSM   H17T13589   6.820   3.406   8.184 -0.2952 -0.3848 -0.3199
  127OSM   C18S13590   7.014   3.406   8.078  0.9363  0.3595  0.1426
  127OSM   H18S13591   6.996   3.505   8.029 -1.3761 -0.2294 -0.2485
  127OSM   H18T13592   7.080   3.350   8.009  0.5417 -1.8481  1.5147
  127OSM   H18U13593   7.083   3.409   8.165  1.1392  0.8674 -0.0363
  127OSM    C1F13594   6.886   2.831   6.819 -0.3749 -1.0950  1.2811
  127OSM     OF13595   6.896   2.912   6.727 -0.3975 -1.2205  0.0440
  127OSM    C2F13596   7.001   2.793   6.918  0.1458  0.2442  0.4344
  127OSM    H2F13597   7.049   2.698   6.887  1.9434  1.2230  0.1472
  127OSM    H2G13598   6.951   2.785   7.017  1.4197 -0.1869  1.0512
  127OSM    C3F13599   7.118   2.893   6.922  0.4421 -0.9693  0.4025
  127OSM    H3F13600   7.086   2.995   6.953 -0.1771 -0.8997 -0.4595
  127OSM    H3G13601   7.170   2.889   6.824  1.8045  0.5850  1.0359
  127OSM    C4F13602   7.221   2.856   7.031  0.2958 -0.3902  0.2537
  127OSM    H4F13603   7.309   2.922   7.016  1.1064 -1.7648 -1.1389
  127OSM    H4G13604   7.254   2.753   7.007 -1.2224 -0.5936 -1.0512
  127OSM    C5F13605   7.165   2.880   7.174  0.7483 -0.6225  0.2792
  127OSM    H5F13606   7.074   2.816   7.184 -0.9581  1.3900 -2.0661
  127OSM    H5G13607   7.140   2.986   7.192  0.3672 -0.6272 -0.2161
  127OSM    C6F13608   7.281   2.864   7.274 -0.4129 -0.1937  0.0465
  127OSM    H6F13609   7.349   2.952   7.273  0.1003 -0.6029 -1.3458
  127OSM    H6G13610   7.349   2.778   7.258  1.6889  1.6615 -1.2724
  127OSM    C7F13611   7.235   2.848   7.420 -0.5532 -0.0614  0.3488
  127OSM    H7F13612   7.191   2.942   7.459 -0.1418  0.5120 -0.5361
  127OSM    H7G13613   7.327   2.832   7.481  0.1439 -1.0304 -0.9126
  127OSM    C8F13614   7.134   2.740   7.444 -0.7976  0.6557 -0.0880
  127OSM    H8F13615   7.050   2.740   7.372 -0.6682  2.4341 -0.2612
  127OSM    H8G13616   7.081   2.750   7.541  1.2363  0.4191  1.0895
  127OSM    C9F13617   7.196   2.604   7.432  0.6930 -0.1311  0.0547
  127OSM    H9F13618   7.247   2.582   7.338  0.3532  0.4173 -0.2566
  127OSM   C10F13619   7.179   2.508   7.527 -0.4271 -0.2973  0.1662
  127OSM   H10F13620   7.230   2.412   7.511 -1.0001 -0.1882 -2.5919
  127OSM   C11F13621   7.093   2.514   7.644 -0.4319 -0.2275 -0.7283
  127OSM   H11F13622   7.048   2.413   7.649 -1.6260  0.3858  1.7010
  127OSM   H11G13623   7.011   2.589   7.647  1.6480  2.1127 -0.3991
  127OSM   C12F13624   7.179   2.539   7.772 -0.3923  0.4424 -0.9291
  127OSM   H12F13625   7.229   2.638   7.765 -1.6914  1.0389 -1.9458
  127OSM   H12G13626   7.261   2.465   7.777 -1.0856 -0.3336 -0.8090
  127OSM   C13F13627   7.093   2.519   7.896  0.0355  0.4935 -0.0263
  127OSM   H13F13628   7.014   2.442   7.879  1.1202 -0.7598  0.4812
  127OSM   H13G13629   7.049   2.616   7.926 -1.2370 -0.4790  1.3346
  127OSM   C14F13630   7.160   2.472   8.026  0.0274  0.6911  1.3219
  127OSM   H14F13631   7.233   2.552   8.049  0.9340  0.9843 -2.3241
  127OSM   H14G13632   7.217   2.378   8.008  1.3154  1.6134  0.5007
  127OSM   C15F13633   7.070   2.459   8.150  0.3684 -0.0315 -0.5029
  127OSM   H15F13634   7.005   2.369   8.149 -0.3721  0.4574  1.5285
  127OSM   H15G13635   7.009   2.552   8.156  0.4876 -0.0592  1.5797
  127OSM   C16F13636   7.136   2.446   8.288 -0.4310  0.3163  0.6067
  127OSM   H16F13637   7.221   2.516   8.300  2.4512 -3.1031  0.8890
  127OSM   H16G13638   7.179   2.344   8.295 -0.7980 -0.0916 -2.2132
  127OSM   C17F13639   7.034   2.468   8.398 -0.1183 -0.3511  0.5517
  127OSM   H17F13640   6.960   2.386   8.397 -1.1745  0.5830  0.5253
  127OSM   H17G13641   6.988   2.566   8.371  0.8272 -0.1540 -0.3809
  127OSM   C18F13642   7.087   2.486   8.542  0.1827  0.0210 -0.0280
  127OSM   H18F13643   7.121   2.584   8.582 -2.6510 -0.4379  3.7318
  127OSM   H18G13644   7.168   2.411   8.557 -0.5380 -0.6624  0.4489
  127OSM   H18H13645   7.003   2.481   8.614 -0.6437  1.2478 -0.8828
  128OSM      N13646   6.785   0.076   6.020  0.1850  0.4476 -0.5603
  128OSM    C1513647   6.717  -0.033   5.949 -0.3495  0.8084  0.4511
  128OSM   H15A13648   6.671  -0.007   5.855  3.3841  1.1527 -1.3488
  128OSM   H15B13649   6.652  -0.098   6.006 -0.4681  0.0634 -0.5283
  128OSM   H15C13650   6.791  -0.102   5.913 -0.4256  0.2641  1.3135
  128OSM    C1413651   6.889   0.136   5.935 -0.1735  0.3362  0.3800
  128OSM   H14A13652   6.865   0.159   5.832 -0.1953 -1.7191 -0.1063
  128OSM   H14B13653   6.974   0.071   5.921  1.4257  2.9235 -2.6061
  128OSM   H14C13654   6.929   0.223   5.983 -0.0123 -0.0383  0.9294
  128OSM    C1313655   6.681   0.174   6.054  0.5692  0.3570 -0.3350
  128OSM   H13A13656   6.730   0.262   6.093 -0.7533  0.5474  0.9299
  128OSM   H13B13657   6.611   0.143   6.130 -1.0960 -0.5323 -2.1936
  128OSM   H13C13658   6.630   0.200   5.963  0.1835 -0.3527 -0.3233
  128OSM    C1213659   6.855   0.025   6.150 -0.4824 -0.4595 -0.5194
  128OSM   H12A13660   6.891   0.112   6.202  0.9049 -1.0747 -0.4439
  128OSM   H12B13661   6.944  -0.031   6.128  0.0668  0.7072 -1.3202
  128OSM    C1113662   6.782  -0.076   6.247  1.1178 -0.5522 -0.2355
  128OSM   H11A13663   6.680  -0.037   6.270  1.1108 -0.8999  0.3621
  128OSM   H11B13664   6.840  -0.078   6.342 -2.9077 -0.2237  2.3770
  128OSM      P13665   6.887  -0.317   6.215 -0.0152 -0.0669 -0.2110
  128OSM    O1313666   6.870  -0.440   6.143  1.2649  0.0787 -0.4320
  128OSM    O1413667   7.010  -0.243   6.177  0.4097  0.8514  0.3689
  128OSM    O1113668   6.898  -0.337   6.369  0.2589  0.1674  0.2799
  128OSM    O1213669   6.765  -0.208   6.192  0.0325 -0.2572  0.1107
  128OSM    C1S13670   6.802  -0.415   6.437 -0.3715  1.1537  0.2070
  128OSM    H1S13671   6.810  -0.523   6.412 -1.9137  1.6192 -2.6627
  128OSM    H1T13672   6.700  -0.377   6.410 -1.3578 -1.4868  0.0438
  128OSM     NF13673   6.733  -0.507   6.659  0.1613 -0.0943 -0.1061
  128OSM    HNF13674   6.665  -0.481   6.727 -0.2219  0.3089 -0.6389
  128OSM    C2S13675   6.809  -0.403   6.595 -0.1482  0.1704 -0.0765
  128OSM    H2S13676   6.916  -0.412   6.624  0.5481 -0.2297 -2.6131
  128OSM    C3S13677   6.780  -0.253   6.632  0.1716  0.0184 -0.0476
  128OSM    H3S13678   6.679  -0.226   6.593 -0.3093 -1.4279  0.1333
  128OSM     O313679   6.859  -0.157   6.564 -0.4915 -0.4403  0.0489
  128OSM    HO313680   6.888  -0.206   6.486 -1.8474 -1.3352  0.0922
  128OSM    C4S13681   6.778  -0.223   6.786 -0.7985  0.3443  0.1075
  128OSM    H4S13682   6.694  -0.251   6.850 -0.5704 -1.5387 -0.3847
  128OSM    C5S13683   6.886  -0.170   6.841 -0.3150 -0.5887  0.0023
  128OSM    H5S13684   6.979  -0.157   6.784 -0.1013 -0.5636  0.3534
  128OSM    C6S13685   6.907  -0.145   6.987 -0.2865 -0.7046 -0.6473
  128OSM    H6S13686   6.999  -0.083   6.996 -1.4968  1.1017 -0.4434
  128OSM    H6T13687   6.920  -0.240   7.043 -0.2127  0.3435  1.1402
  128OSM    C7S13688   6.791  -0.063   7.052 -0.2876 -0.0129  0.1586
  128OSM    H7S13689   6.703  -0.127   7.073 -0.0549 -1.0870 -1.9816
  128OSM    H7T13690   6.766   0.017   6.978  0.2940 -0.4673 -0.5468
  128OSM    C8S13691   6.847  -0.006   7.186  0.3961  0.3475  0.1410
  128OSM    H8S13692   6.764   0.054   7.231 -0.2602 -1.4886  1.4649
  128OSM    H8T13693   6.926   0.061   7.146 -1.4971 -0.2861 -5.0640
  128OSM    C9S13694   6.885  -0.115   7.290 -0.2082  0.5071 -0.1357
  128OSM    H9S13695   6.968  -0.177   7.250 -1.5103 -0.8137 -0.8699
  128OSM    H9T13696   6.795  -0.180   7.301 -0.0464  0.4143  0.6410
  128OSM   C10S13697   6.919  -0.058   7.427  0.1142 -0.5671  0.6091
  128OSM   H10S13698   6.828  -0.014   7.473  0.2023  0.8033 -0.4865
  128OSM   H10T13699   6.982   0.034   7.421 -0.2751 -0.2419  1.5115
  128OSM   C11S13700   6.970  -0.155   7.532 -0.1864  0.5869  0.0742
  128OSM   H11S13701   7.062  -0.206   7.496 -0.5452  1.2997 -1.9021
  128OSM   H11T13702   6.902  -0.243   7.531 -0.4310  0.7196  2.6781
  128OSM   C12S13703   6.983  -0.093   7.675 -0.1734 -0.3058 -0.0745
  128OSM   H12S13704   6.881  -0.055   7.695  0.5738  1.3708  0.5592
  128OSM   H12T13705   7.063  -0.018   7.659 -0.1279 -0.3149  0.1115
  128OSM   C13S13706   7.035  -0.194   7.776 -0.2090  0.2933 -0.0303
  128OSM   H13S13707   7.141  -0.221   7.758  0.4192  1.5904  1.5684
  128OSM   H13T13708   6.983  -0.291   7.769 -0.5915  0.4619  0.4695
  128OSM   C14S13709   7.030  -0.150   7.925  0.1703  0.8729  0.0731
  128OSM   H14S13710   6.926  -0.133   7.961 -0.2092 -0.3023 -0.4474
  128OSM   H14T13711   7.090  -0.058   7.934 -0.6198  1.2626  1.4817
  128OSM   C15S13712   7.088  -0.262   8.017  0.1304 -0.5353 -0.4421
  128OSM   H15S13713   7.188  -0.291   7.979 -0.0038 -2.1764  0.4620
  128OSM   H15T13714   7.018  -0.347   8.001 -0.3347  0.0426 -1.5885
  128OSM   C16S13715   7.090  -0.194   8.153 -0.2791  0.2620  0.4656
  128OSM   H16S13716   6.989  -0.173   8.194  0.3543  2.0169  1.2004
  128OSM   H16T13717   7.142  -0.097   8.136 -0.9143  0.2978 -1.4030
  128OSM   C17S13718   7.170  -0.280   8.258  0.0808 -0.2798 -0.5621
  128OSM   H17S13719   7.241  -0.347   8.204  0.8440 -0.1786  0.2909
  128OSM   H17T13720   7.105  -0.359   8.301  2.6598 -2.2629 -0.1476
  128OSM   C18S13721   7.237  -0.187   8.357 -0.0191 -0.6063  0.4607
  128OSM   H18S13722   7.285  -0.103   8.304 -0.7657  0.0920  0.8872
  128OSM   H18T13723   7.317  -0.246   8.407 -0.5146 -1.6613  0.0439
  128OSM   H18U13724   7.158  -0.148   8.425 -0.3568 -1.3246  0.4956
  128OSM    C1F13725   6.770  -0.635   6.659 -0.0941  0.1409  0.3207
  128OSM     OF13726   6.869  -0.669   6.598  0.3905 -0.0841 -0.4466
  128OSM    C2F13727   6.690  -0.724   6.742 -0.1748 -0.7098  0.5957
  128OSM    H2F13728   6.660  -0.806   6.672  0.2978 -0.9128  0.6306
  128OSM    H2G13729   6.597  -0.671   6.771 -0.2333 -0.5746  0.1589
  128OSM    C3F13730   6.772  -0.784   6.859 -0.2867  0.1192  0.4213
  128OSM    H3F13731   6.852  -0.840   6.807 -1.3691 -1.2056  0.1479
  128OSM    H3G13732   6.724  -0.874   6.903  0.1826  0.1845  1.0698
  128OSM    C4F13733   6.814  -0.683   6.961 -0.1376  0.7068  0.9130
  128OSM    H4F13734   6.883  -0.606   6.921 -0.3281  2.0781  3.1310
  128OSM    H4G13735   6.869  -0.739   7.040  0.7991 -1.8622 -1.4582
  128OSM    C5F13736   6.695  -0.616   7.032  0.0866 -1.3264  0.3998
  128OSM    H5F13737   6.636  -0.702   7.070 -0.7647 -0.3923  1.2071
  128OSM    H5G13738   6.644  -0.559   6.952  0.8539 -0.0642  0.7817
  128OSM    C6F13739   6.733  -0.526   7.152  0.0711  0.2956  0.3298
  128OSM    H6F13740   6.638  -0.483   7.190 -0.2164 -0.3989  0.3919
  128OSM    H6G13741   6.799  -0.450   7.104  0.7934 -2.2202 -2.8945
  128OSM    C7F13742   6.807  -0.601   7.266 -0.5917 -0.3922 -0.1550
  128OSM    H7F13743   6.897  -0.639   7.214 -0.3845 -0.1704  0.0414
  128OSM    H7G13744   6.738  -0.679   7.304  0.0549  0.0742  2.0499
  128OSM    C8F13745   6.846  -0.523   7.392 -0.1805  1.0529  0.0327
  128OSM    H8F13746   6.908  -0.434   7.368  1.5094  0.3714  1.7016
  128OSM    H8G13747   6.915  -0.585   7.453 -2.0082  0.6186  1.6797
  128OSM    C9F13748   6.731  -0.480   7.481  0.3970 -0.0729 -0.1538
  128OSM    H9F13749   6.669  -0.408   7.427 -0.9925 -0.3511  1.0353
  128OSM   C10F13750   6.710  -0.521   7.608 -0.4142  0.2549 -0.0156
  128OSM   H10F13751   6.630  -0.472   7.666 -0.1760 -0.8919  1.2952
  128OSM   C11F13752   6.791  -0.625   7.682  0.3764  0.0730 -0.4587
  128OSM   H11F13753   6.860  -0.687   7.619 -1.1757 -0.2393 -1.8927
  128OSM   H11G13754   6.718  -0.698   7.722  0.6061 -0.3943 -0.8748
  128OSM   C12F13755   6.874  -0.578   7.809  0.3692  0.1819 -0.3386
  128OSM   H12F13756   6.791  -0.536   7.870  0.1522 -0.1395 -0.4100
  128OSM   H12G13757   6.937  -0.488   7.789 -0.2989  1.1043  1.6031
  128OSM   C13F13758   6.962  -0.679   7.879 -0.2546  0.2620 -0.1820
  128OSM   H13F13759   7.021  -0.617   7.950 -1.7853  1.7461 -0.1673
  128OSM   H13G13760   7.041  -0.715   7.810 -0.6036  1.0317 -0.9889
  128OSM   C14F13761   6.894  -0.784   7.958 -0.2101 -0.4463  0.5759
  128OSM   H14F13762   6.840  -0.845   7.883  1.9003 -0.8546 -0.6460
  128OSM   H14G13763   6.819  -0.745   8.030 -0.6277 -1.0143  0.4522
  128OSM   C15F13764   6.991  -0.864   8.038 -0.5171 -0.1710 -0.0021
  128OSM   H15F13765   7.084  -0.890   7.983  1.0758  1.5431  1.7755
  128OSM   H15G13766   6.934  -0.956   8.061 -0.7593 -0.2243 -0.7849
  128OSM   C16F13767   7.043  -0.794   8.157  0.1818  0.1207 -0.0531
  128OSM   H16F13768   6.959  -0.765   8.223  1.1439 -0.8192  1.6251
  128OSM   H16G13769   7.119  -0.715   8.143 -0.2112  0.6961  1.0428
  128OSM   C17F13770   7.119  -0.893   8.248 -1.1116 -0.2510 -0.1777
  128OSM   H17F13771   7.186  -0.967   8.199  2.5497  2.0293  1.1605
  128OSM   H17G13772   7.047  -0.965   8.291 -1.0743 -1.0870 -1.4964
  128OSM   C18F13773   7.191  -0.820   8.360 -0.2373 -0.1034  0.4456
  128OSM   H18F13774   7.115  -0.774   8.427 -0.7745 -0.1953 -0.0955
  128OSM   H18G13775   7.272  -0.748   8.335 -0.6417  0.7906  1.6863
  128OSM   H18H13776   7.234  -0.889   8.436 -2.3003 -1.1677  0.6738
  129OSM      N13777   4.122   0.938   5.834  0.2996 -0.0561 -1.0255
  129OSM    C1513778   4.220   0.900   5.723 -1.2163  0.3016  0.7005
  129OSM   H15A13779   4.175   0.895   5.625  0.0652 -0.3463  0.1442
  129OSM   H15B13780   4.241   0.796   5.743 -2.3919 -0.2877 -1.0071
  129OSM   H15C13781   4.309   0.959   5.730 -0.1139 -1.5035  2.6800
  129OSM    C1413782   4.082   1.083   5.817  0.7164  0.5015 -0.1387
  129OSM   H14A13783   4.036   1.090   5.720  1.8562  1.1435 -0.6380
  129OSM   H14B13784   4.165   1.151   5.811  2.7731 -1.8245  1.0547
  129OSM   H14C13785   4.005   1.109   5.888 -1.1115  0.5209 -2.0627
  129OSM    C1313786   4.002   0.853   5.845  0.9478  0.9187 -0.0589
  129OSM   H13A13787   4.029   0.748   5.841 -0.1735  0.6136  0.2914
  129OSM   H13B13788   3.928   0.869   5.768 -1.1500 -2.5244  1.1490
  129OSM   H13C13789   3.946   0.864   5.936  0.1795  1.3529 -0.5844
  129OSM    C1213790   4.194   0.925   5.965  0.2751 -0.2984 -0.5062
  129OSM   H12A13791   4.285   0.983   5.960 -1.1980  1.9824 -1.6791
  129OSM   H12B13792   4.225   0.822   5.979  2.7314  0.3927 -0.6056
  129OSM    C1113793   4.117   0.960   6.089  0.1975  0.6929  0.3995
  129OSM   H11A13794   4.177   0.926   6.177  1.3456 -2.6751 -1.6046
  129OSM   H11B13795   4.027   0.896   6.102 -0.1643  0.6445 -2.1223
  129OSM      P13796   4.171   1.208   6.154  0.0937  0.1801 -0.2262
  129OSM    O1313797   4.302   1.154   6.200 -0.4457  0.5902 -0.1859
  129OSM    O1413798   4.175   1.310   6.046  0.1521  0.1588  0.1698
  129OSM    O1113799   4.094   1.278   6.272 -0.3028 -0.3101  0.6037
  129OSM    O1213800   4.065   1.099   6.106 -0.6846  0.6248  0.1071
  129OSM    C1S13801   4.090   1.210   6.402 -0.9447  0.8559  0.0841
  129OSM    H1S13802   4.189   1.170   6.431 -2.4908 -0.5890  3.6782
  129OSM    H1T13803   4.026   1.119   6.402  0.1788  0.0312  2.1205
  129OSM     NF13804   4.056   1.237   6.650 -0.2802 -0.6744  0.3166
  129OSM    HNF13805   3.972   1.213   6.697  0.0314 -0.5955  0.9234
  129OSM    C2S13806   4.052   1.306   6.522  0.0280  0.1112 -0.8240
  129OSM    H2S13807   4.131   1.384   6.526 -0.4396  0.5297  0.5674
  129OSM    C3S13808   3.917   1.384   6.498 -0.1380  0.4589 -0.0436
  129OSM    H3S13809   3.840   1.305   6.487  2.3828 -1.8430 -1.8487
  129OSM     O313810   3.911   1.451   6.371  0.1830  0.8769 -0.2206
  129OSM    HO313811   3.959   1.401   6.304 -0.7020  2.0284 -1.7329
  129OSM    C4S13812   3.884   1.473   6.619  0.0896  0.5947  0.2215
  129OSM    H4S13813   3.849   1.415   6.706  2.4295 -0.2484  0.6263
  129OSM    C5S13814   3.905   1.602   6.641  0.3883 -0.5526  0.8129
  129OSM    H5S13815   3.965   1.656   6.566 -2.1264 -1.4092 -1.9426
  129OSM    C6S13816   3.881   1.677   6.771 -0.3064 -0.5596  0.0759
  129OSM    H6S13817   3.797   1.747   6.752  0.1350 -0.1098 -0.2533
  129OSM    H6T13818   3.973   1.738   6.786 -1.4318  1.7490 -2.1440
  129OSM    C7S13819   3.867   1.593   6.898  0.3501  0.1708 -0.1687
  129OSM    H7S13820   3.795   1.511   6.877  0.2856 -0.2162  1.4938
  129OSM    H7T13821   3.809   1.656   6.969 -0.7462  1.2747 -2.0111
  129OSM    C8S13822   4.003   1.556   6.952  0.0090 -0.1483  0.1932
  129OSM    H8S13823   4.067   1.647   6.961  1.1523 -0.6677 -2.3609
  129OSM    H8T13824   4.048   1.483   6.881 -1.0656 -1.1001  0.4778
  129OSM    C9S13825   4.003   1.489   7.087 -0.1570  1.1294 -0.5505
  129OSM    H9S13826   3.970   1.383   7.085 -1.3334  1.3945  2.1122
  129OSM    H9T13827   3.929   1.546   7.147 -0.2580 -0.4595  0.8589
  129OSM   C10S13828   4.142   1.491   7.159  0.1943 -0.5518 -0.0096
  129OSM   H10S13829   4.202   1.585   7.158  0.8021 -0.9412 -0.1545
  129OSM   H10T13830   4.204   1.418   7.102  0.9485 -0.5849  0.8468
  129OSM   C11S13831   4.134   1.443   7.308  0.1524  0.0858 -0.3189
  129OSM   H11S13832   4.236   1.418   7.343  0.4292 -1.1709 -1.9689
  129OSM   H11T13833   4.091   1.342   7.294 -2.0958  0.8298  0.9011
  129OSM   C12S13834   4.063   1.530   7.411  0.2847  0.3109 -0.2204
  129OSM   H12S13835   3.954   1.541   7.391  0.0695 -2.7069 -0.9827
  129OSM   H12T13836   4.108   1.631   7.405 -2.2306  1.4805 -0.1638
  129OSM   C13S13837   4.071   1.484   7.554 -0.1672 -0.1848 -0.4944
  129OSM   H13S13838   4.059   1.373   7.554  1.1740 -0.4439  4.0851
  129OSM   H13T13839   3.998   1.521   7.629  0.9158 -0.7620  0.8847
  129OSM   C14S13840   4.197   1.520   7.623  0.8999 -1.2892  0.2198
  129OSM   H14S13841   4.188   1.622   7.668 -1.1689 -1.4554  0.2480
  129OSM   H14T13842   4.277   1.523   7.547 -2.2742  0.8727 -3.1992
  129OSM   C15S13843   4.226   1.427   7.750 -1.2591 -0.4098  0.4881
  129OSM   H15S13844   4.245   1.318   7.737 -0.2988 -0.2356  0.4194
  129OSM   H15T13845   4.130   1.423   7.806 -2.4997 -0.0499 -1.5192
  129OSM   C16S13846   4.346   1.473   7.837 -0.3447 -0.4574 -0.3274
  129OSM   H16S13847   4.317   1.571   7.881  1.0897  1.3290 -3.1780
  129OSM   H16T13848   4.429   1.478   7.763 -0.2861  0.0918 -0.2252
  129OSM   C17S13849   4.386   1.372   7.945  0.5332 -0.4784 -0.3367
  129OSM   H17S13850   4.462   1.411   8.016  2.5889  0.2899 -2.8673
  129OSM   H17T13851   4.422   1.281   7.892 -0.6895 -0.5600 -1.0413
  129OSM   C18S13852   4.264   1.327   8.023 -0.0615 -0.6519 -0.5783
  129OSM   H18S13853   4.200   1.417   8.037  0.5957  0.1364 -2.3965
  129OSM   H18T13854   4.284   1.275   8.119  2.4483 -1.7557 -1.6702
  129OSM   H18U13855   4.206   1.252   7.964 -0.6492 -1.2052  0.6874
  129OSM    C1F13856   4.161   1.181   6.707 -0.6408 -0.7716 -0.4699
  129OSM     OF13857   4.272   1.189   6.657  0.3356 -0.2475 -0.5269
  129OSM    C2F13858   4.142   1.085   6.830  0.0903  0.1293 -0.0820
  129OSM    H2F13859   4.192   0.988   6.811  0.6168  0.4221 -0.2097
  129OSM    H2G13860   4.034   1.068   6.849  0.1598  0.0637  0.2583
  129OSM    C3F13861   4.198   1.147   6.958 -0.5415 -0.6913 -0.1732
  129OSM    H3F13862   4.138   1.237   6.984 -0.2052 -1.3534  3.0462
  129OSM    H3G13863   4.302   1.180   6.934 -0.4345 -0.3029  0.8057
  129OSM    C4F13864   4.214   1.053   7.076 -1.0485 -0.5265  0.5662
  129OSM    H4F13865   4.232   0.948   7.043  1.8584  0.0597  0.1555
  129OSM    H4G13866   4.118   1.045   7.132 -1.0290 -1.1061  0.5194
  129OSM    C5F13867   4.323   1.091   7.178 -0.0704  0.4085 -0.3909
  129OSM    H5F13868   4.332   1.201   7.197 -0.3648  0.1061  1.6381
  129OSM    H5G13869   4.428   1.081   7.143 -0.1672  0.3598 -0.6618
  129OSM    C6F13870   4.315   1.014   7.309 -0.6789  0.5894  0.2645
  129OSM    H6F13871   4.391   1.053   7.380 -0.6210 -2.0746  1.7386
  129OSM    H6G13872   4.338   0.907   7.288 -0.6641  0.7115 -0.3482
  129OSM    C7F13873   4.174   1.026   7.381  0.0656  0.4799  0.2293
  129OSM    H7F13874   4.093   0.965   7.335  1.3816 -2.0100  1.1052
  129OSM    H7G13875   4.147   1.133   7.390 -0.1958  0.5533 -1.3764
  129OSM    C8F13876   4.181   0.973   7.530  0.0307 -0.0205  0.3796
  129OSM    H8F13877   4.269   1.030   7.567 -0.6311  0.7772  0.7441
  129OSM    H8G13878   4.209   0.867   7.545  0.5737 -0.2127 -1.7981
  129OSM    C9F13879   4.064   1.021   7.613  0.8192  0.0469  0.0957
  129OSM    H9F13880   4.026   1.119   7.582 -1.3858 -0.3625  1.3728
  129OSM   C10F13881   4.022   0.976   7.732 -0.4908 -0.1154 -0.1907
  129OSM   H10F13882   3.931   1.016   7.780 -0.9693 -0.4982 -0.7715
  129OSM   C11F13883   4.074   0.858   7.809 -0.2456 -0.3824 -0.2028
  129OSM   H11F13884   4.172   0.821   7.771 -0.3764  2.1436 -3.1080
  129OSM   H11G13885   4.000   0.776   7.817 -0.4602 -0.3350 -1.6582
  129OSM   C12F13886   4.122   0.908   7.955  0.0582  0.5386  0.6661
  129OSM   H12F13887   4.175   1.005   7.951  0.2699  0.4968  1.9669
  129OSM   H12G13888   4.200   0.834   7.985  0.2827 -0.8480 -3.1027
  129OSM   C13F13889   3.993   0.920   8.046  0.2527  0.4559 -0.2503
  129OSM   H13F13890   3.972   0.817   8.081 -0.1149 -0.0312 -1.8700
  129OSM   H13G13891   3.917   0.964   7.979 -0.3975 -0.0838  0.1328
  129OSM   C14F13892   4.003   1.023   8.162 -0.6409 -0.1114  0.1822
  129OSM   H14F13893   3.901   1.041   8.202 -1.0345 -1.4857 -0.1756
  129OSM   H14G13894   4.039   1.122   8.128  1.2727 -1.6220 -2.3679
  129OSM   C15F13895   4.082   0.971   8.277  0.0439  0.1179 -0.0252
  129OSM   H15F13896   4.127   1.051   8.340  0.6642  0.1973 -0.5608
  129OSM   H15G13897   4.176   0.924   8.239 -0.6364 -1.8567  0.6308
  129OSM   C16F13898   3.996   0.873   8.371  0.1861 -0.9525  0.2557
  129OSM   H16F13899   3.942   0.800   8.308 -2.8154  0.8810  0.6127
  129OSM   H16G13900   3.919   0.936   8.421  1.7704  0.4171  1.0212
  129OSM   C17F13901   4.086   0.811   8.483  0.2739 -0.2334 -0.1333
  129OSM   H17F13902   4.131   0.898   8.534 -0.2025 -0.9499  1.5189
  129OSM   H17G13903   4.175   0.769   8.430 -0.5776 -0.2365 -1.5851
  129OSM   C18F13904   4.022   0.714   8.583 -0.5249  0.1014  0.7021
  129OSM   H18F13905   4.004   0.613   8.541 -0.2739  1.1394 -2.0018
  129OSM   H18G13906   3.926   0.762   8.613 -0.6851 -0.1779  0.6413
  129OSM   H18H13907   4.083   0.706   8.676  0.9821 -2.0581 -0.4277
  130OSM      N13908   4.332   5.326   5.970  0.8398  0.7397 -0.4035
  130OSM    C1513909   4.418   5.248   5.874 -0.9077  0.9050 -0.7896
  130OSM   H15A13910   4.416   5.140   5.884  0.1548  0.8175 -1.4262
  130OSM   H15B13911   4.520   5.284   5.876  0.0147 -1.6353 -0.5930
  130OSM   H15C13912   4.386   5.267   5.772 -0.6429  2.1491 -0.6470
  130OSM    C1413913   4.188   5.301   5.935  0.0894  0.3513  0.6486
  130OSM   H14A13914   4.128   5.342   6.015  0.6141  0.2570  1.0927
  130OSM   H14B13915   4.176   5.194   5.940 -0.3210  0.3373 -0.5519
  130OSM   H14C13916   4.151   5.344   5.843 -0.1438 -1.2444 -0.0187
  130OSM    C1313917   4.352   5.275   6.109 -0.8308  0.2709  0.3585
  130OSM   H13A13918   4.455   5.294   6.139 -0.9594  0.0943  0.9162
  130OSM   H13B13919   4.323   5.172   6.110 -0.0319 -0.0807 -3.6614
  130OSM   H13C13920   4.287   5.326   6.179  0.4248  1.7323  0.5089
  130OSM    C1213921   4.370   5.475   5.970  0.0060  0.0146 -0.1038
  130OSM   H12A13922   4.316   5.517   6.053 -0.0095 -2.7153  1.3022
  130OSM   H12B13923   4.322   5.520   5.884 -0.0348 -0.4335 -0.3200
  130OSM    C1113924   4.519   5.513   6.001  0.0834  0.7486  0.8927
  130OSM   H11A13925   4.527   5.623   6.009  1.3626  0.7261  0.0517
  130OSM   H11B13926   4.587   5.478   5.919  1.8092  0.0935  2.5643
  130OSM      P13927   4.711   5.414   6.148 -0.4014 -0.1271  0.0391
  130OSM    O1313928   4.702   5.285   6.086  0.3551  0.2341  0.3122
  130OSM    O1413929   4.811   5.509   6.089 -0.2587  0.3803 -0.0193
  130OSM    O1113930   4.729   5.396   6.297  0.1889  0.2670 -0.1470
  130OSM    O1213931   4.569   5.471   6.128  0.0754  0.2210  0.4245
  130OSM    C1S13932   4.635   5.428   6.398 -0.1092 -0.4307  0.0685
  130OSM    H1S13933   4.538   5.377   6.382 -1.3724  1.7146  0.7471
  130OSM    H1T13934   4.615   5.537   6.402  1.4328 -0.1144 -0.4146
  130OSM     NF13935   4.579   5.414   6.638 -0.4053 -0.3108  0.2018
  130OSM    HNF13936   4.585   5.488   6.704  0.0537 -0.5575  0.4328
  130OSM    C2S13937   4.685   5.388   6.543  0.4042  0.0905  0.5318
  130OSM    H2S13938   4.705   5.279   6.539  0.9795  0.1568  1.3992
  130OSM    C3S13939   4.817   5.455   6.570 -0.1447  0.6556  0.0021
  130OSM    H3S13940   4.809   5.559   6.533  0.0880  0.1926 -1.3805
  130OSM     O313941   4.929   5.402   6.494  0.1336 -0.5477  0.1995
  130OSM    HO313942   4.883   5.360   6.421  1.3383 -0.0035 -0.8916
  130OSM    C4S13943   4.846   5.448   6.716  0.0613 -0.2532 -0.0789
  130OSM    H4S13944   4.812   5.541   6.764 -0.2749  0.0384 -0.8766
  130OSM    C5S13945   4.906   5.352   6.783  0.0643  0.1784 -0.1116
  130OSM    H5S13946   4.937   5.272   6.715  0.3698 -0.6985  1.0589
  130OSM    C6S13947   4.937   5.350   6.926  0.0062  0.4788  0.2194
  130OSM    H6S13948   4.914   5.251   6.971  0.3144 -0.6191 -1.9928
  130OSM    H6T13949   4.871   5.419   6.982 -0.7189 -0.5576  0.6620
  130OSM    C7S13950   5.082   5.386   6.944 -0.5661  0.3859 -0.1186
  130OSM    H7S13951   5.109   5.492   6.923 -0.0189  0.4399  0.7877
  130OSM    H7T13952   5.150   5.313   6.896 -1.9996 -1.7674  1.0241
  130OSM    C8S13953   5.114   5.371   7.093 -0.4360  0.0411 -0.9131
  130OSM    H8S13954   5.112   5.270   7.138  3.2169  0.1137 -0.4517
  130OSM    H8T13955   5.038   5.438   7.139  0.8570  0.4297  0.6808
  130OSM    C9S13956   5.254   5.418   7.135 -0.2005 -0.3203 -0.0130
  130OSM    H9S13957   5.276   5.520   7.097  3.5729 -0.7744  0.7631
  130OSM    H9T13958   5.338   5.350   7.107 -0.1942  0.1072 -1.0479
  130OSM   C10S13959   5.271   5.432   7.285 -0.5906 -0.3488  0.6584
  130OSM   H10S13960   5.201   5.498   7.340  1.5718  2.0799  0.6290
  130OSM   H10T13961   5.374   5.471   7.297 -0.6704  0.7345 -1.8751
  130OSM   C11S13962   5.273   5.296   7.357  0.1677 -0.1705  0.1807
  130OSM   H11S13963   5.338   5.222   7.304  2.0639  1.3521  0.3158
  130OSM   H11T13964   5.170   5.254   7.362  0.0572 -0.0286 -0.8512
  130OSM   C12S13965   5.335   5.301   7.499  0.5025 -0.5870 -0.2187
  130OSM   H12S13966   5.443   5.326   7.503  0.6905 -1.2638 -0.9644
  130OSM   H12T13967   5.328   5.192   7.515  2.4510 -1.2296 -3.2787
  130OSM   C13S13968   5.254   5.382   7.602  0.2265 -0.4267 -0.0894
  130OSM   H13S13969   5.153   5.335   7.609  1.0673 -2.3998 -0.6872
  130OSM   H13T13970   5.242   5.489   7.574 -1.8107 -0.2282  1.4402
  130OSM   C14S13971   5.315   5.391   7.745  0.0973  0.1441  0.7910
  130OSM   H14S13972   5.246   5.457   7.801  0.2467  1.1426 -0.2000
  130OSM   H14T13973   5.419   5.429   7.735  0.0951 -0.3757 -1.2928
  130OSM   C15S13974   5.315   5.260   7.825 -0.5657 -0.4881  1.1314
  130OSM   H15S13975   5.330   5.179   7.751 -1.9501 -0.0665  0.3666
  130OSM   H15T13976   5.216   5.261   7.877 -1.6561  2.2845 -0.8659
  130OSM   C16S13977   5.427   5.252   7.936 -0.4322  1.0542  0.2186
  130OSM   H16S13978   5.405   5.342   7.999 -1.1267  1.6842 -0.8965
  130OSM   H16T13979   5.522   5.278   7.886  0.2036 -0.8899  0.3761
  130OSM   C17S13980   5.443   5.125   8.019  0.7101  0.0536 -0.5465
  130OSM   H17S13981   5.455   5.032   7.959 -2.2110 -1.5148  1.1962
  130OSM   H17T13982   5.348   5.113   8.076  1.1491 -1.3679 -0.1064
  130OSM   C18S13983   5.560   5.133   8.116 -0.2087 -0.5085 -0.7322
  130OSM   H18S13984   5.575   5.035   8.166  0.6818  0.3283  0.6572
  130OSM   H18T13985   5.532   5.206   8.195 -2.8033 -1.1223 -1.0064
  130OSM   H18U13986   5.657   5.163   8.071 -0.3734  0.9601 -0.1312
  130OSM    C1F13987   4.473   5.331   6.649  0.1631  0.0909 -1.1146
  130OSM     OF13988   4.429   5.272   6.556 -0.0078 -0.2899  0.0934
  130OSM    C2F13989   4.422   5.309   6.794 -0.6754 -0.3166 -0.8281
  130OSM    H2F13990   4.472   5.379   6.864 -1.5694  1.1565 -1.6048
  130OSM    H2G13991   4.450   5.206   6.822 -1.4518 -0.2963  0.0327
  130OSM    C3F13992   4.267   5.320   6.798  0.4295  0.2514 -0.0098
  130OSM    H3F13993   4.216   5.233   6.751 -0.7237  0.2633  1.1876
  130OSM    H3G13994   4.244   5.416   6.749 -1.6975 -0.6943 -0.9072
  130OSM    C4F13995   4.225   5.317   6.951  0.0740 -0.4182  1.0570
  130OSM    H4F13996   4.245   5.423   6.977  1.8463  0.0511 -1.9006
  130OSM    H4G13997   4.296   5.254   7.009 -0.2595 -1.5664  0.2459
  130OSM    C5F13998   4.078   5.263   6.964  0.5057 -0.1758 -0.6148
  130OSM    H5F13999   4.065   5.168   6.907 -0.7753  0.1453 -0.8665
  130OSM    H5G14000   4.017   5.320   6.890 -2.1580 -3.3572 -0.9957
  130OSM    C6F14001   4.030   5.255   7.112 -0.5031 -0.6011 -0.0928
  130OSM    H6F14002   4.040   5.149   7.143 -2.0363 -0.2908  1.5644
  130OSM    H6G14003   3.921   5.277   7.106 -0.3795  0.4450  1.1545
  130OSM    C7F14004   4.100   5.351   7.212 -0.3793  0.2059 -0.1500
  130OSM    H7F14005   4.094   5.454   7.172  0.1958 -0.0621 -0.9338
  130OSM    H7G14006   4.207   5.323   7.219 -0.8246 -1.4645  0.3266
  130OSM    C8F14007   4.040   5.348   7.350  0.1569 -0.2879 -0.3727
  130OSM    H8F14008   4.063   5.249   7.396  1.3135  0.3844  0.5301
  130OSM    H8G14009   3.933   5.333   7.324 -0.1477 -2.7437  2.0074
  130OSM    C9F14010   4.070   5.467   7.442  0.1127 -0.0347  0.2869
  130OSM    H9F14011   4.012   5.560   7.430 -1.1697 -0.7991  0.5338
  130OSM   C10F14012   4.150   5.462   7.553  0.2294 -0.6933 -0.2332
  130OSM   H10F14013   4.170   5.549   7.616 -4.3306 -0.1214  0.5733
  130OSM   C11F14014   4.226   5.344   7.596  0.1161  0.6009  0.3036
  130OSM   H11F14015   4.276   5.293   7.511  2.2085 -0.1851  1.9591
  130OSM   H11G14016   4.156   5.266   7.632  0.2828  0.2676 -0.0857
  130OSM   C12F14017   4.327   5.378   7.707 -0.1985 -0.3157 -1.0915
  130OSM   H12F14018   4.407   5.446   7.671 -0.4104 -0.7694 -2.4645
  130OSM   H12G14019   4.382   5.290   7.746  1.6654  0.6616 -1.4481
  130OSM   C13F14020   4.252   5.436   7.826 -0.1391  0.0321  0.7766
  130OSM   H13F14021   4.160   5.379   7.852 -0.8652  0.7618 -0.1469
  130OSM   H13G14022   4.209   5.536   7.801 -1.5252 -0.1245  2.4291
  130OSM   C14F14023   4.334   5.464   7.962  0.6279  0.3443  0.8580
  130OSM   H14F14024   4.263   5.498   8.041 -1.1062  1.1083 -0.9921
  130OSM   H14G14025   4.404   5.548   7.949 -0.5345  1.2641  0.4194
  130OSM   C15F14026   4.413   5.336   8.007  0.7182 -0.5716  0.3113
  130OSM   H15F14027   4.503   5.316   7.945  0.6299 -0.6405  0.2045
  130OSM   H15G14028   4.340   5.257   7.977 -2.4189  2.5176 -0.6079
  130OSM   C16F14029   4.424   5.308   8.160  0.2826  0.4271 -0.1973
  130OSM   H16F14030   4.326   5.337   8.204 -0.4717 -1.7476 -0.3992
  130OSM   H16G14031   4.505   5.363   8.212  0.6087 -0.3030  0.0667
  130OSM   C17F14032   4.428   5.158   8.196 -0.7886 -0.2964  0.2593
  130OSM   H17F14033   4.356   5.096   8.138  0.8674 -2.3800  0.3996
  130OSM   H17G14034   4.412   5.147   8.306 -0.2807 -0.3993  0.3197
  130OSM   C18F14035   4.568   5.109   8.167  0.2244  0.6395 -0.2914
  130OSM   H18F14036   4.633   5.137   8.253 -0.2242  1.3132 -0.1645
  130OSM   H18G14037   4.604   5.155   8.073  0.0365 -0.0530 -0.7055
  130OSM   H18H14038   4.572   4.998   8.170  0.8228  0.6729  0.3004
  131OSM      N14039   5.404   2.632   5.965 -0.7100 -0.2110 -0.4120
  131OSM    C1514040   5.281   2.728   5.974 -0.3214 -0.3162 -0.2140
  131OSM   H15A14041   5.214   2.675   6.040  2.1831 -1.8574  1.1938
  131OSM   H15B14042   5.242   2.744   5.875 -0.2255 -0.2630 -0.2434
  131OSM   H15C14043   5.312   2.823   6.016 -0.8534 -0.1741 -0.1367
  131OSM    C1414044   5.354   2.508   5.894 -0.1025  0.3415 -0.2471
  131OSM   H14A14045   5.297   2.545   5.810 -1.2646 -1.8765 -0.4805
  131OSM   H14B14046   5.285   2.456   5.959  0.0126 -0.7772 -0.9978
  131OSM   H14C14047   5.429   2.437   5.863 -1.1379 -0.0364 -1.9822
  131OSM    C1314048   5.504   2.695   5.880 -0.6135 -0.1612  0.1294
  131OSM   H13A14049   5.544   2.791   5.910  0.4634 -1.5349  3.3573
  131OSM   H13B14050   5.464   2.714   5.782  0.6387  2.0619  0.0238
  131OSM   H13C14051   5.592   2.632   5.876 -0.8722 -0.4185 -2.8966
  131OSM    C1214052   5.458   2.599   6.105 -0.3685  0.2971 -0.1332
  131OSM   H12A14053   5.547   2.538   6.096  0.5928  1.1640  3.0960
  131OSM   H12B14054   5.390   2.531   6.153  1.5565 -0.8501  1.0512
  131OSM    C1114055   5.502   2.715   6.190  1.0727 -0.0894 -0.4574
  131OSM   H11A14056   5.547   2.680   6.285  0.0556  0.6549  0.3103
  131OSM   H11B14057   5.417   2.775   6.230  0.2200 -0.9775 -0.9052
  131OSM      P14058   5.631   2.944   6.194  0.0179  0.2542 -0.2848
  131OSM    O1314059   5.768   2.993   6.172 -0.3766 -0.3620 -0.4235
  131OSM    O1414060   5.524   3.034   6.149  0.8112  0.1559  0.4960
  131OSM    O1114061   5.614   2.923   6.347  0.6508 -0.8108 -0.0486
  131OSM    O1214062   5.598   2.798   6.132  0.3398 -0.5572 -0.6695
  131OSM    C1S14063   5.723   2.877   6.426  0.0761  0.0951 -0.2801
  131OSM    H1S14064   5.814   2.941   6.428 -0.3383  0.6948 -0.7544
  131OSM    H1T14065   5.772   2.779   6.408  1.7648  0.9347 -0.3423
  131OSM     NF14066   5.802   2.830   6.666 -0.3273 -0.0388  0.0171
  131OSM    HNF14067   5.811   2.741   6.708  1.9782 -0.4151 -1.1873
  131OSM    C2S14068   5.689   2.872   6.580 -0.2502  0.4581 -0.3364
  131OSM    H2S14069   5.650   2.969   6.615  1.2239  0.4942  1.2384
  131OSM    C3S14070   5.560   2.783   6.606  0.0241  0.7888  0.3645
  131OSM    H3S14071   5.578   2.683   6.561 -1.9000  0.3588  0.5346
  131OSM     O314072   5.446   2.833   6.536 -0.2045 -0.1528 -0.1307
  131OSM    HO314073   5.489   2.889   6.471  0.2672 -2.0998 -1.5395
  131OSM    C4S14074   5.524   2.770   6.754 -0.6065 -0.3629 -0.1993
  131OSM    H4S14075   5.533   2.668   6.793 -0.7790  0.4135  1.9131
  131OSM    C5S14076   5.486   2.868   6.836 -0.9018  0.1581  0.1980
  131OSM    H5S14077   5.487   2.970   6.794  0.7162  0.6544  1.3912
  131OSM    C6S14078   5.453   2.845   6.981 -0.0713  0.0647  0.0910
  131OSM    H6S14079   5.358   2.899   7.003 -0.2586 -0.1394 -0.2007
  131OSM    H6T14080   5.541   2.888   7.033  0.1146 -0.2289  0.0153
  131OSM    C7S14081   5.431   2.712   7.039  0.1467  0.1290  0.3233
  131OSM    H7S14082   5.494   2.624   7.012  1.7211  1.0353  0.9602
  131OSM    H7T14083   5.341   2.664   6.994  0.8974 -0.7261 -0.3021
  131OSM    C8S14084   5.416   2.720   7.193  0.9440  0.8041 -0.6042
  131OSM    H8S14085   5.325   2.777   7.221  1.2052  0.2544  1.4978
  131OSM    H8T14086   5.510   2.756   7.242  0.6866  0.2765  0.2860
  131OSM    C9S14087   5.371   2.579   7.241 -0.7043  0.1121  0.6824
  131OSM    H9S14088   5.465   2.526   7.266 -0.9724  0.1339  1.7639
  131OSM    H9T14089   5.322   2.517   7.164 -4.7976  0.6338  2.7185
  131OSM   C10S14090   5.294   2.584   7.376  0.3423 -0.6495  0.3282
  131OSM   H10S14091   5.281   2.476   7.401 -1.8329 -1.1840 -2.8775
  131OSM   H10T14092   5.195   2.631   7.357  0.3323 -1.7955 -2.7461
  131OSM   C11S14093   5.367   2.650   7.493 -0.4943  0.2803  0.3099
  131OSM   H11S14094   5.291   2.658   7.573 -1.9305 -0.0115 -1.0043
  131OSM   H11T14095   5.399   2.755   7.473 -0.0714 -0.2236 -1.7490
  131OSM   C12S14096   5.499   2.568   7.532 -0.0935 -0.3584 -0.3046
  131OSM   H12S14097   5.570   2.585   7.448  1.7859 -1.0420  1.1149
  131OSM   H12T14098   5.489   2.458   7.520 -0.6133 -0.4726  1.1012
  131OSM   C13S14099   5.571   2.614   7.656 -0.3515 -0.3931 -0.1772
  131OSM   H13S14100   5.594   2.723   7.653  1.0688 -0.6798 -0.1862
  131OSM   H13T14101   5.670   2.565   7.665 -1.2910 -2.2158  0.6377
  131OSM   C14S14102   5.485   2.588   7.782 -0.3973 -1.1193 -0.4186
  131OSM   H14S14103   5.448   2.485   7.799 -1.1917 -0.8666 -0.5909
  131OSM   H14T14104   5.395   2.650   7.762  0.1802 -0.1391 -0.0488
  131OSM   C15S14105   5.545   2.645   7.914  0.2751 -0.2240  0.1977
  131OSM   H15S14106   5.456   2.656   7.979 -0.2573 -1.9243 -0.2166
  131OSM   H15T14107   5.583   2.747   7.890  2.0738 -0.9461 -0.1523
  131OSM   C16S14108   5.674   2.570   7.978  0.1378 -0.5966 -0.0991
  131OSM   H16S14109   5.725   2.634   8.054  0.9635 -0.0595 -1.0966
  131OSM   H16T14110   5.742   2.555   7.892 -0.2181 -0.5255 -0.3946
  131OSM   C17S14111   5.640   2.431   8.038  0.1215 -0.5932 -0.1276
  131OSM   H17S14112   5.589   2.369   7.961  0.8437  0.8759 -1.8219
  131OSM   H17T14113   5.565   2.447   8.119  0.4052 -0.5082  0.1198
  131OSM   C18S14114   5.756   2.358   8.101  0.2569 -0.0414  0.0665
  131OSM   H18S14115   5.751   2.247   8.105  0.7029 -0.0280  1.1611
  131OSM   H18T14116   5.784   2.403   8.198  0.2409  2.1219 -0.9059
  131OSM   H18U14117   5.844   2.378   8.036 -0.3414 -0.3035 -0.8382
  131OSM    C1F14118   5.903   2.918   6.667  0.2471  0.5126 -0.1527
  131OSM     OF14119   5.884   3.031   6.623 -0.8223 -0.4304  0.1881
  131OSM    C2F14120   6.032   2.884   6.726 -0.4645 -0.0076 -0.3317
  131OSM    H2F14121   6.073   2.973   6.777 -0.3505  0.5041 -1.3005
  131OSM    H2G14122   6.102   2.855   6.645  0.7748 -2.9317  1.6796
  131OSM    C3F14123   6.023   2.780   6.840  0.1634 -0.3614 -0.0070
  131OSM    H3F14124   6.128   2.758   6.869 -0.1803 -2.6547 -0.4217
  131OSM    H3G14125   5.973   2.684   6.818  2.2235 -1.6825  0.8512
  131OSM    C4F14126   5.952   2.847   6.958 -0.3477 -0.2293  0.8017
  131OSM    H4F14127   5.858   2.901   6.935  0.0720  2.0674  4.2071
  131OSM    H4G14128   6.029   2.913   7.004  3.2093 -2.3869 -1.7546
  131OSM    C5F14129   5.900   2.756   7.068  0.4349  0.1307  0.0592
  131OSM    H5F14130   5.945   2.655   7.071 -2.0165 -0.9712  1.3674
  131OSM    H5G14131   5.796   2.725   7.046  0.3143  1.0488 -0.6763
  131OSM    C6F14132   5.904   2.820   7.210  0.7118 -0.1977 -0.5371
  131OSM    H6F14133   5.820   2.892   7.219 -0.4608 -1.5459 -0.5492
  131OSM    H6G14134   5.998   2.879   7.220  0.6764 -0.2941  0.3649
  131OSM    C7F14135   5.894   2.717   7.324 -1.3353  0.0768  0.3911
  131OSM    H7F14136   5.996   2.673   7.324 -0.9696  0.7608 -2.7130
  131OSM    H7G14137   5.825   2.638   7.286  0.7863 -1.8126  0.3779
  131OSM    C8F14138   5.859   2.772   7.466  0.6810  0.9082 -0.0446
  131OSM    H8F14139   5.841   2.678   7.524 -0.7821  1.0971 -0.1639
  131OSM    H8G14140   5.763   2.828   7.461  0.7703  0.9648 -1.4052
  131OSM    C9F14141   5.966   2.858   7.520  1.0388  0.2306 -0.6862
  131OSM    H9F14142   5.999   2.932   7.445  0.2316 -0.9483 -2.2278
  131OSM   C10F14143   6.036   2.842   7.634  0.0939  0.0643 -0.1685
  131OSM   H10F14144   6.111   2.918   7.661  1.5593 -0.9217 -1.3225
  131OSM   C11F14145   6.015   2.738   7.741 -0.1516  0.1145 -0.8222
  131OSM   H11F14146   5.935   2.662   7.724 -0.3398  0.2826 -0.6973
  131OSM   H11G14147   5.982   2.786   7.836 -1.6154  0.7384 -1.6361
  131OSM   C12F14148   6.144   2.653   7.767  0.1095  1.0205  0.6417
  131OSM   H12F14149   6.222   2.729   7.788  0.5076  0.5536  0.8415
  131OSM   H12G14150   6.168   2.598   7.674  1.5778  1.0676  0.9786
  131OSM   C13F14151   6.134   2.543   7.872 -1.0696  0.3521 -0.2541
  131OSM   H13F14152   6.227   2.483   7.860 -0.6995  0.9025 -0.1445
  131OSM   H13G14153   6.042   2.481   7.866 -0.3036 -0.8597  0.3495
  131OSM   C14F14154   6.136   2.598   8.010 -0.2688 -0.5219 -0.0992
  131OSM   H14F14155   6.040   2.652   8.031  0.0899  0.8331 -1.8788
  131OSM   H14G14156   6.225   2.664   8.019  0.5523 -1.8239  1.6059
  131OSM   C15F14157   6.156   2.485   8.116 -0.1678 -0.1592 -0.1377
  131OSM   H15F14158   6.231   2.412   8.080  0.2923  0.6794 -0.9093
  131OSM   H15G14159   6.059   2.431   8.110  0.1989 -0.7103 -1.1188
  131OSM   C16F14160   6.179   2.540   8.252 -0.1537 -0.7067  0.1881
  131OSM   H16F14161   6.116   2.631   8.267  2.0662  1.0868 -1.0254
  131OSM   H16G14162   6.286   2.568   8.253  0.1003 -1.5657 -1.1245
  131OSM   C17F14163   6.156   2.444   8.365  0.1367  0.4847  0.7998
  131OSM   H17F14164   6.185   2.504   8.454  0.0518  1.3022  0.2788
  131OSM   H17G14165   6.231   2.363   8.350  0.6063  1.0478  0.0321
  131OSM   C18F14166   6.018   2.393   8.383  0.6312 -0.2770 -0.3062
  131OSM   H18F14167   6.012   2.322   8.468  0.3095 -1.7501 -1.5471
  131OSM   H18G14168   5.971   2.340   8.298 -0.9939  0.6677 -0.0115
  131OSM   H18H14169   5.939   2.470   8.393 -2.9826 -3.8248 -0.4691
  132OSM      N14170   0.524   0.819   5.990 -0.0436 -0.4616 -0.4055
  132OSM    C1514171   0.489   0.952   5.925  0.2545 -0.1252  0.1486
  132OSM   H15A14172   0.558   1.022   5.970 -0.9353  0.6354  0.8198
  132OSM   H15B14173   0.388   0.986   5.944  0.2053 -1.7595  3.0746
  132OSM   H15C14174   0.503   0.948   5.818 -0.5263 -0.4221  0.0534
  132OSM    C1414175   0.417   0.718   5.963  0.7872  0.5086  0.1366
  132OSM   H14A14176   0.461   0.622   5.984 -0.9918 -0.7816 -1.7358
  132OSM   H14B14177   0.394   0.721   5.857  1.1097  1.5186  0.0902
  132OSM   H14C14178   0.328   0.749   6.016  1.2416 -0.1974  1.3205
  132OSM    C1314179   0.656   0.766   5.932  0.1781 -0.1618  0.2615
  132OSM   H13A14180   0.682   0.668   5.968 -0.1245 -0.2655  0.2035
  132OSM   H13B14181   0.731   0.835   5.967 -0.5203  1.0307 -0.5603
  132OSM   H13C14182   0.659   0.774   5.824 -1.7086  1.5654  0.3131
  132OSM    C1214183   0.535   0.846   6.141 -0.1206 -0.2036  0.2979
  132OSM   H12A14184   0.451   0.910   6.164 -0.4031 -0.2597 -0.5543
  132OSM   H12B14185   0.627   0.900   6.155  1.7656 -3.0446 -0.6682
  132OSM    C1114186   0.543   0.724   6.236  0.0708  0.3922  0.6380
  132OSM   H11A14187   0.450   0.663   6.237  0.7749 -0.7191  4.0233
  132OSM   H11B14188   0.540   0.770   6.337 -1.1146  2.3199 -0.2361
  132OSM      P14189   0.795   0.698   6.275 -0.3225 -0.0578 -0.1038
  132OSM    O1314190   0.893   0.588   6.267 -0.2302 -0.5930 -0.0743
  132OSM    O1414191   0.845   0.823   6.221 -0.0563  0.5896  0.2029
  132OSM    O1114192   0.754   0.720   6.429 -0.5006  0.0273 -0.1705
  132OSM    O1214193   0.660   0.652   6.209 -0.5551  0.5244  0.1045
  132OSM    C1S14194   0.753   0.609   6.520  0.9799 -0.4565  0.5824
  132OSM    H1S14195   0.854   0.563   6.526  1.0835 -0.5380 -1.3879
  132OSM    H1T14196   0.681   0.532   6.486 -2.0490  2.0160  1.1833
  132OSM     NF14197   0.729   0.537   6.755 -0.2426 -0.9222  0.3517
  132OSM    HNF14198   0.644   0.487   6.772  0.2622 -1.9740 -0.1473
  132OSM    C2S14199   0.713   0.655   6.665  0.5557  0.9000 -0.2680
  132OSM    H2S14200   0.789   0.725   6.706  2.5817 -2.1843  1.3742
  132OSM    C3S14201   0.567   0.707   6.651 -1.2641  0.5741 -0.2983
  132OSM    H3S14202   0.505   0.643   6.584  1.2010 -0.5525 -1.6101
  132OSM     O314203   0.569   0.834   6.592 -0.4301  0.1863 -0.1010
  132OSM    HO314204   0.645   0.833   6.533  0.0498 -0.7314  0.5241
  132OSM    C4S14205   0.502   0.728   6.791  0.5760  0.6097  0.2355
  132OSM    H4S14206   0.521   0.822   6.843  0.3090  0.6161  0.3220
  132OSM    C5S14207   0.412   0.643   6.849  0.2497 -0.4048  0.7454
  132OSM    H5S14208   0.388   0.556   6.786  0.3629  0.4233 -0.4585
  132OSM    C6S14209   0.343   0.643   6.986  0.1920 -0.6327 -0.2190
  132OSM    H6S14210   0.350   0.546   7.040  3.7399  0.6208  1.7314
  132OSM    H6T14211   0.235   0.667   6.970 -0.1573 -2.6628 -0.9968
  132OSM    C7S14212   0.398   0.749   7.078  0.1880  0.1903  0.1467
  132OSM    H7S14213   0.327   0.766   7.162  0.5831  1.6092  0.2149
  132OSM    H7T14214   0.397   0.856   7.046  0.5252  1.0480  2.9167
  132OSM    C8S14215   0.527   0.708   7.151 -0.2087 -0.3314 -0.3279
  132OSM    H8S14216   0.526   0.774   7.240 -0.2528 -0.9351  0.1192
  132OSM    H8T14217   0.617   0.724   7.088 -0.5969  2.4307 -0.2382
  132OSM    C9S14218   0.532   0.566   7.218 -0.1600  0.1855  1.0957
  132OSM    H9S14219   0.557   0.488   7.143 -0.4000 -0.7253  1.9635
  132OSM    H9T14220   0.431   0.544   7.259 -1.0567  0.5963 -0.8269
  132OSM   C10S14221   0.632   0.566   7.339 -0.3913  0.0303 -0.2658
  132OSM   H10S14222   0.593   0.635   7.417  0.2800  1.9074 -1.5643
  132OSM   H10T14223   0.731   0.605   7.307  0.1526 -1.8563 -0.9480
  132OSM   C11S14224   0.667   0.430   7.408 -0.0256 -0.0314 -0.2986
  132OSM   H11S14225   0.745   0.393   7.338  0.2350 -1.4143  0.7141
  132OSM   H11T14226   0.582   0.362   7.426  1.1346 -1.3167  0.3912
  132OSM   C12S14227   0.736   0.451   7.542 -0.4742  0.4264 -0.1959
  132OSM   H12S14228   0.832   0.495   7.509  0.6611 -2.0943 -0.3452
  132OSM   H12T14229   0.756   0.350   7.585 -1.7536  0.0308 -0.4991
  132OSM   C13S14230   0.658   0.533   7.653  0.3146  0.1428  0.0947
  132OSM   H13S14231   0.554   0.497   7.665  0.0971  1.1665  1.4969
  132OSM   H13T14232   0.654   0.632   7.603  0.0589 -0.9745 -2.1637
  132OSM   C14S14233   0.730   0.534   7.787 -0.1405 -0.0115 -0.6105
  132OSM   H14S14234   0.838   0.559   7.783 -0.0424 -0.1126  1.1553
  132OSM   H14T14235   0.726   0.434   7.836  0.3671  0.4842  0.4664
  132OSM   C15S14236   0.650   0.617   7.884 -1.3396 -0.1293 -1.3555
  132OSM   H15S14237   0.551   0.569   7.897 -0.7410 -0.4690  2.2467
  132OSM   H15T14238   0.635   0.721   7.847  1.8055  0.8454  0.0120
  132OSM   C16S14239   0.713   0.622   8.034  0.2872  0.1529  0.4362
  132OSM   H16S14240   0.731   0.517   8.066 -0.1906 -0.7639 -2.1576
  132OSM   H16T14241   0.650   0.673   8.110 -0.9545  0.5147 -0.8083
  132OSM   C17S14242   0.851   0.693   8.022  0.0666  0.0075  0.0100
  132OSM   H17S14243   0.843   0.793   7.973 -0.5181  0.0686  0.2231
  132OSM   H17T14244   0.916   0.632   7.956 -1.0570 -1.7343  0.4656
  132OSM   C18S14245   0.921   0.708   8.164  0.1522 -0.0331  0.0375
  132OSM   H18S14246   0.906   0.614   8.221  1.4122 -0.0505  0.3497
  132OSM   H18T14247   0.863   0.784   8.220  0.5279 -0.7960  1.4845
  132OSM   H18U14248   1.025   0.746   8.152  1.0728 -1.8824  1.8770
  132OSM    C1F14249   0.840   0.477   6.797  0.0841  0.2828  0.4107
  132OSM     OF14250   0.949   0.527   6.778 -0.2341 -0.0252 -0.5363
  132OSM    C2F14251   0.827   0.348   6.875  0.4269  0.5091  0.2689
  132OSM    H2F14252   0.781   0.264   6.820  2.7020  0.0035 -0.9071
  132OSM    H2G14253   0.763   0.363   6.965 -2.0681 -2.3482 -0.9753
  132OSM    C3F14254   0.967   0.298   6.921 -0.6041 -0.0919  0.5727
  132OSM    H3F14255   1.019   0.378   6.979  1.0917  1.5645 -3.1037
  132OSM    H3G14256   1.025   0.291   6.826  1.7833  1.3938  1.8504
  132OSM    C4F14257   0.973   0.157   6.979 -0.2224  0.0761  0.0719
  132OSM    H4F14258   1.078   0.122   6.969  0.3936  1.8857  0.0874
  132OSM    H4G14259   0.910   0.090   6.917 -0.9636  0.1397  0.7589
  132OSM    C5F14260   0.924   0.157   7.125  0.1816  0.2953  0.1730
  132OSM    H5F14261   0.917   0.048   7.149  2.3224  0.2446  0.6697
  132OSM    H5G14262   0.831   0.218   7.125  2.2484  3.5626 -1.3752
  132OSM    C6F14263   1.014   0.220   7.230  0.0541  0.4598  0.5150
  132OSM    H6F14264   1.009   0.330   7.214  0.5296  0.2152 -1.4361
  132OSM    H6G14265   1.116   0.182   7.205 -0.0829 -0.8902  1.9828
  132OSM    C7F14266   0.998   0.173   7.373  0.0791 -0.6525 -0.3787
  132OSM    H7F14267   0.988   0.063   7.373 -1.0033 -0.5653  0.9426
  132OSM    H7G14268   0.905   0.213   7.419 -0.4575 -1.3378 -0.8560
  132OSM    C8F14269   1.130   0.202   7.449  0.6165 -0.1655 -0.0894
  132OSM    H8F14270   1.101   0.192   7.556 -1.9087 -1.7616 -0.8615
  132OSM    H8G14271   1.159   0.307   7.427 -0.4722  0.6515  2.1797
  132OSM    C9F14272   1.257   0.118   7.422  0.3255  0.0755  0.1529
  132OSM    H9F14273   1.272   0.078   7.321 -0.1387  2.7405 -1.0091
  132OSM   C10F14274   1.344   0.074   7.514  0.2479 -0.1063  0.0570
  132OSM   H10F14275   1.433   0.021   7.476  0.3170  0.4659 -0.5944
  132OSM   C11F14276   1.338   0.101   7.657 -0.0486  0.1870  0.2826
  132OSM   H11F14277   1.341  -0.002   7.699  1.1606 -0.1413 -0.5740
  132OSM   H11G14278   1.249   0.152   7.699 -0.5197 -0.5833  0.2214
  132OSM   C12F14279   1.469   0.170   7.713 -0.0121  0.0239 -0.0932
  132OSM   H12F14280   1.496   0.262   7.658  4.9288  0.1932  2.3287
  132OSM   H12G14281   1.552   0.098   7.695  1.1565  1.2391  0.4163
  132OSM   C13F14282   1.464   0.185   7.867 -0.2967  0.3265  0.3253
  132OSM   H13F14283   1.409   0.099   7.913  0.7680 -1.8228 -2.2718
  132OSM   H13G14284   1.401   0.273   7.891 -0.2137  0.3051  0.6190
  132OSM   C14F14285   1.605   0.188   7.934 -0.2855  1.3545 -0.2400
  132OSM   H14F14286   1.662   0.256   7.867  1.7540  0.1884  0.2779
  132OSM   H14G14287   1.643   0.084   7.931  0.1041  1.4546  1.0040
  132OSM   C15F14288   1.593   0.236   8.073 -0.0435  0.3422  0.7155
  132OSM   H15F14289   1.507   0.190   8.127 -0.7932  1.7433  0.7493
  132OSM   H15G14290   1.557   0.341   8.066 -0.2584  0.1018 -2.5659
  132OSM   C16F14291   1.731   0.219   8.150  0.6111 -0.1739 -0.3837
  132OSM   H16F14292   1.805   0.285   8.100 -0.0133  0.3496 -0.6344
  132OSM   H16G14293   1.765   0.116   8.126  0.3580 -0.4489  0.4293
  132OSM   C17F14294   1.715   0.234   8.306 -0.4219 -0.3665 -0.2549
  132OSM   H17F14295   1.818   0.210   8.340 -0.8647 -1.1010  0.5702
  132OSM   H17G14296   1.651   0.149   8.337  2.1676 -2.2972 -0.0409
  132OSM   C18F14297   1.672   0.369   8.358  0.8502  0.1551  0.6666
  132OSM   H18F14298   1.575   0.407   8.318  0.1206  0.1151  2.3734
  132OSM   H18G14299   1.756   0.433   8.324  0.1720  1.2526  1.0002
  132OSM   H18H14300   1.673   0.376   8.469 -0.7555  0.9008  0.6580
  133SAPE     N14301   2.549   5.178  10.883  0.6089  0.1602  0.6932
  133SAPE   HN114302   2.641   5.129  10.886  1.4208  1.3919 -2.4191
  133SAPE   HN214303   2.562   5.278  10.906  2.2693 -0.0719  0.8137
  133SAPE   HN314304   2.494   5.135  10.960  0.4233 -1.4514 -0.3089
  133SAPE   C1214305   2.513   5.175  10.739 -0.0442 -0.6164 -0.2798
  133SAPE  H12A14306   2.605   5.223  10.699  0.7377  1.1512  3.4248
  133SAPE  H12B14307   2.441   5.255  10.713  2.4529  0.7561 -3.3622
  133SAPE   C1114308   2.482   5.038  10.685  0.4316  0.3914 -0.0675
  133SAPE  H11A14309   2.570   4.972  10.698 -0.3432 -0.4428  1.0831
  133SAPE  H11B14310   2.461   5.031  10.577  2.4340  0.4551 -0.4783
  133SAPE     P14311   2.232   5.008  10.755 -0.0810 -0.2018 -0.2612
  133SAPE   O1314312   2.162   4.901  10.837  0.0407 -0.0323 -0.3149
  133SAPE   O1414313   2.220   5.148  10.799 -0.2143 -0.1739 -0.2152
  133SAPE   O1214314   2.385   4.978  10.770  0.0760 -0.2087  0.2850
  133SAPE   O1114315   2.216   4.984  10.605  0.5350 -0.0395 -0.1491
  133SAPE    C114316   2.196   4.844  10.557  0.0499  0.6225  0.1618
  133SAPE    HA14317   2.286   4.783  10.579 -0.9631  0.4464  4.3730
  133SAPE    HB14318   2.099   4.807  10.598  0.7241 -0.2885  0.9390
  133SAPE    C214319   2.195   4.846  10.401  0.0367 -0.3881  0.0442
  133SAPE    HS14320   2.165   4.752  10.350  0.1359  0.0938 -0.9108
  133SAPE   O2114321   2.319   4.898  10.348 -0.2448 -0.5280  0.1783
  133SAPE   C2114322   2.415   4.806  10.341 -0.3258  0.6443  0.2583
  133SAPE   O2214323   2.404   4.686  10.361  0.9201 -0.0008  0.5474
  133SAPE   C2214324   2.550   4.867  10.304 -0.1807 -0.1579  0.4507
  133SAPE   H2R14325   2.592   4.910  10.398 -0.6135  0.2933  0.4391
  133SAPE   H2S14326   2.625   4.792  10.270  0.9665  0.9933  0.4072
  133SAPE    C314327   2.073   4.931  10.350  0.4085  0.1913  0.5215
  133SAPE    HX14328   2.086   5.036  10.385 -1.8094  0.4421  0.6533
  133SAPE    HY14329   1.974   4.908  10.394 -0.0272 -0.5100 -0.7813
  133SAPE   O3114330   2.061   4.920  10.209  0.0206 -0.2182  0.6088
  133SAPE   C3114331   2.115   5.013  10.137  0.4071  0.0581  0.5287
  133SAPE   O3214332   2.167   5.115  10.176 -0.8970 -0.5879  0.1549
  133SAPE   C3214333   2.089   4.969  10.001 -0.6298 -0.6703  0.4595
  133SAPE   H2X14334   1.984   4.987   9.969 -0.8579 -0.3992  1.3340
  133SAPE   H2Y14335   2.110   4.860   9.993 -0.0693 -0.8327  3.4179
  133SAPE   C2314336   2.543   4.984  10.196  0.0996 -0.3670  0.1409
  133SAPE   H3R14337   2.635   5.044  10.214  0.9806 -1.5735 -0.2497
  133SAPE   H3S14338   2.456   5.052  10.204  0.8479  0.4818  1.2001
  133SAPE   C2414339   2.566   4.925  10.047  0.2937 -0.7111 -0.1368
  133SAPE   H4R14340   2.465   4.884  10.026 -0.3782  0.5876  0.5266
  133SAPE   H4S14341   2.639   4.841  10.049  0.4356 -0.5777  1.9247
  133SAPE   C2514342   2.602   5.035   9.947  0.6577 -0.2248  0.0086
  133SAPE   H5R14343   2.525   5.110   9.924  0.2715 -0.7517 -0.4142
  133SAPE   C2614344   2.719   5.045   9.891  0.2425 -0.3187 -0.8905
  133SAPE   H6R14345   2.730   5.142   9.840  0.1115 -0.0259 -0.3657
  133SAPE   C2714346   2.833   4.949   9.921 -1.1657  0.2397  0.1708
  133SAPE   H7R14347   2.829   4.865   9.850  4.1284 -0.8264  0.9182
  133SAPE   H7S14348   2.830   4.896  10.019  1.0951 -1.5346 -0.6726
  133SAPE   C2814349   2.965   5.029   9.921  1.3814 -0.2531  0.4882
  133SAPE   H8R14350   3.012   5.048  10.019 -0.8104  2.7326  1.0387
  133SAPE   C2914351   3.026   5.091   9.816  0.5160  0.0107  0.3632
  133SAPE   H9R14352   3.126   5.134   9.837 -0.1797  1.6476  0.4203
  133SAPE  C21014353   2.978   5.083   9.671  0.1983  0.2027  0.3261
  133SAPE  H10R14354   3.030   5.159   9.609 -0.9305 -1.0784 -2.2798
  133SAPE  H10S14355   2.870   5.106   9.663 -0.7887 -4.3784 -0.8183
  133SAPE  C21114356   3.006   4.951   9.600  1.0019 -0.4480 -0.8749
  133SAPE  H11R14357   3.040   4.872   9.668 -0.0065  1.1438  1.5523
  133SAPE  C21214358   3.008   4.934   9.467 -0.3681  0.1990 -0.0489
  133SAPE  H12R14359   3.042   4.840   9.423  0.3917 -1.0441  3.0282
  133SAPE  C21314360   2.979   5.042   9.358 -0.0331 -0.0008 -0.8261
  133SAPE  H13R14361   2.995   5.144   9.399 -0.9356  0.1151 -0.7655
  133SAPE  H13S14362   2.874   5.037   9.322 -0.4894  0.6531  0.3762
  133SAPE  C21414363   3.075   5.027   9.245  0.6898 -0.1697 -0.2405
  133SAPE  H14R14364   3.180   5.001   9.263  0.4877 -1.0524 -0.3440
  133SAPE  C21514365   3.045   5.038   9.114  0.3086 -0.2362 -0.8446
  133SAPE  H15R14366   3.115   5.011   9.034  0.1369 -0.1782 -1.0140
  133SAPE  C21614367   2.905   5.065   9.052  0.0246 -0.5837  0.3079
  133SAPE  H16R14368   2.825   5.066   9.129 -0.0822  1.5952  0.2146
  133SAPE  H16S14369   2.881   4.986   8.977 -2.6312  0.4250  0.0095
  133SAPE  C21714370   2.899   5.203   8.987 -0.3390 -0.2285 -0.0716
  133SAPE  H17R14371   2.938   5.281   9.056  1.5022 -2.2821  1.3080
  133SAPE  H17S14372   2.793   5.234   8.977 -0.3113  0.8310  2.4479
  133SAPE  C21814373   2.949   5.202   8.842  0.5006 -0.5655  0.4714
  133SAPE  H18R14374   2.909   5.110   8.795  1.5212 -1.6386  1.6774
  133SAPE  H18S14375   3.060   5.197   8.837  0.3560 -1.2967 -2.5078
  133SAPE  C21914376   2.904   5.337   8.766 -0.3143 -0.7221 -0.9210
  133SAPE  H19R14377   2.994   5.398   8.741  0.3227 -0.8824  0.9446
  133SAPE  H19S14378   2.853   5.403   8.839  2.0923  0.8272 -0.5770
  133SAPE  C22014379   2.820   5.307   8.649 -0.0940  0.4635  0.5388
  133SAPE  H20R14380   2.882   5.260   8.570  1.7353  1.7971  1.1569
  133SAPE  H20S14381   2.777   5.400   8.605  0.9470  0.1594 -1.1613
  133SAPE  H20T14382   2.742   5.229   8.662 -0.3943  1.1211  2.8355
  133SAPE   C3314383   2.187   5.039   9.904 -0.2971 -0.1594 -0.4071
  133SAPE   H3X14384   2.291   5.015   9.936 -0.8461 -2.7112 -0.4757
  133SAPE   H3Y14385   2.154   5.145   9.901  3.4221  1.0422 -2.2187
  133SAPE   C3414386   2.174   4.986   9.762  0.6061 -0.7451  0.0971
  133SAPE   H4X14387   2.075   5.014   9.718  1.9579  0.1058 -2.5211
  133SAPE   H4Y14388   2.184   4.876   9.756 -2.1616 -0.9996 -0.8733
  133SAPE   C3514389   2.276   5.048   9.667 -0.3651  0.3154 -0.1200
  133SAPE   H5X14390   2.320   5.133   9.724 -1.8501  1.2978 -0.3894
  133SAPE   H5Y14391   2.223   5.091   9.579  1.6453  2.6083 -0.2649
  133SAPE   C3614392   2.378   4.946   9.620 -0.5119 -0.7416 -0.3557
  133SAPE   H6X14393   2.327   4.872   9.554 -0.8930 -1.0274  0.2560
  133SAPE   H6Y14394   2.411   4.889   9.710 -4.9281 -0.5959  1.5009
  133SAPE   C3714395   2.492   5.001   9.535  0.0224 -0.3162 -0.2409
  133SAPE   H7X14396   2.543   5.060   9.614  0.0815 -1.2711  0.4391
  133SAPE   H7Y14397   2.454   5.079   9.465  0.3701  1.4579  1.4955
  133SAPE   C3814398   2.575   4.883   9.471  0.8878  0.4773 -0.2936
  133SAPE   H8X14399   2.545   4.789   9.521  0.2827  0.9094  0.1791
  133SAPE   H8Y14400   2.684   4.899   9.487  0.3258  4.3803  0.2710
  133SAPE   C3914401   2.538   4.871   9.321  0.4437  0.2356  0.2280
  133SAPE   H9X14402   2.562   4.962   9.262 -2.0435  0.6736 -0.1687
  133SAPE   H9Y14403   2.431   4.843   9.330  0.7174 -0.7480  0.3604
  133SAPE  C31014404   2.605   4.751   9.246  0.0957 -0.1096  0.8873
  133SAPE  H10X14405   2.573   4.659   9.299  2.8949 -1.1910  0.7863
  133SAPE  H10Y14406   2.713   4.767   9.264  0.5493 -2.1988  0.0660
  133SAPE  C31114407   2.571   4.752   9.098  0.0015  0.5249  0.6077
  133SAPE  H11X14408   2.607   4.837   9.036  0.6470 -0.1086  0.1108
  133SAPE  H11Y14409   2.461   4.741   9.094  0.2415 -2.3358  1.2479
  133SAPE  C31214410   2.619   4.641   9.000 -0.2163 -0.2213 -0.2315
  133SAPE  H12X14411   2.573   4.549   9.042  0.8422  0.5983  2.9324
  133SAPE  H12Y14412   2.729   4.630   8.992 -0.0567 -0.3484  1.8218
  133SAPE  C31314413   2.572   4.672   8.854  0.0917  0.5818  0.5630
  133SAPE  H13X14414   2.461   4.672   8.853  0.0937 -1.3431 -0.0212
  133SAPE  H13Y14415   2.598   4.586   8.789 -0.7901 -0.1144  1.1132
  133SAPE  C31414416   2.624   4.797   8.786  1.0744 -0.2075  0.0747
  133SAPE  H14X14417   2.734   4.790   8.775  1.4036  0.5872  2.4946
  133SAPE  H14Y14418   2.601   4.886   8.848  1.9231  0.1018 -0.0464
  133SAPE  C31514419   2.563   4.818   8.646 -0.4511  0.2528 -0.1116
  133SAPE  H15X14420   2.454   4.839   8.659 -0.3931 -0.4910  1.7080
  133SAPE  H15Y14421   2.563   4.717   8.600  0.6748 -0.6672  1.8830
  133SAPE  C31614422   2.633   4.919   8.549  0.0467 -0.1138 -0.0175
  133SAPE  H16X14423   2.679   4.984   8.627  0.0771 -0.8837  0.6072
  133SAPE  H16Y14424   2.559   4.976   8.489  1.1370 -0.0230 -1.2840
  133SAPE  C31714425   2.748   4.871   8.461  0.2440  0.2619 -0.2264
  133SAPE  H17X14426   2.710   4.798   8.386  3.1934 -0.2482 -1.2995
  133SAPE  H17Y14427   2.827   4.818   8.519  0.7746 -1.2497 -2.2817
  133SAPE  C31814428   2.822   4.974   8.386  0.0081  0.0980 -0.4967
  133SAPE  H18X14429   2.859   5.064   8.441 -1.2750 -0.5167  1.3801
  133SAPE  H18Y14430   2.751   5.022   8.315  0.6783  1.3305 -0.3592
  133SAPE  H18Z14431   2.907   4.932   8.328  0.4091 -2.6454  1.9868
  134SAPE     N14432   5.033   5.295  11.179 -0.6046  0.2311  0.7992
  134SAPE   HN114433   5.103   5.231  11.221  0.7615 -0.5934 -2.5774
  134SAPE   HN214434   5.078   5.389  11.176 -1.3323  0.5414 -0.9772
  134SAPE   HN314435   4.966   5.301  11.259 -1.4095  1.7420  0.0335
  134SAPE   C1214436   4.977   5.257  11.040  0.3800  0.3285  1.0493
  134SAPE  H12A14437   4.878   5.306  11.042  0.6271  0.7939  2.4792
  134SAPE  H12B14438   4.957   5.148  11.043 -2.6906  0.8313 -0.0626
  134SAPE   C1114439   5.077   5.282  10.922 -0.2688 -0.3045  0.2605
  134SAPE  H11A14440   5.095   5.391  10.911 -3.6510  0.1108 -1.8106
  134SAPE  H11B14441   5.040   5.247  10.824 -2.2676  0.6998  0.6212
  134SAPE     P14442   5.239   5.075  10.916  0.1608 -0.1999  0.2875
  134SAPE   O1314443   5.358   5.030  10.984 -0.0019 -0.0734  0.0927
  134SAPE   O1414444   5.117   4.995  10.920 -0.4546 -0.0229 -0.0376
  134SAPE   O1214445   5.202   5.215  10.961 -0.3910 -0.2372  0.3767
  134SAPE   O1114446   5.273   5.100  10.762  0.3039 -0.1959  0.0447
  134SAPE    C114447   5.396   5.152  10.709  0.0767  0.2794 -0.4574
  134SAPE    HA14448   5.483   5.108  10.762 -0.2458 -0.7158 -0.7418
  134SAPE    HB14449   5.405   5.107  10.608 -3.4338 -0.2078 -0.6336
  134SAPE    C214450   5.400   5.304  10.702  0.2070  0.6927  0.5236
  134SAPE    HS14451   5.410   5.347  10.804  0.3945 -2.2990  1.8312
  134SAPE   O2114452   5.279   5.353  10.640 -0.1037 -0.2059 -0.2620
  134SAPE   C2114453   5.253   5.489  10.662 -0.6737 -0.7830  0.6303
  134SAPE   O2214454   5.306   5.555  10.744  0.1036 -0.3102 -0.3907
  134SAPE   C2214455   5.146   5.542  10.566  1.0668 -0.0340 -0.3347
  134SAPE   H2R14456   5.100   5.455  10.514 -0.2723 -1.0452  2.4364
  134SAPE   H2S14457   5.058   5.563  10.630 -1.0665  0.1124 -3.2007
  134SAPE    C314458   5.521   5.363  10.623  0.7308  0.4756  0.1775
  134SAPE    HX14459   5.613   5.339  10.679 -0.9808 -0.4588  2.6619
  134SAPE    HY14460   5.512   5.474  10.615  0.6950  0.6032  1.9342
  134SAPE   O3114461   5.526   5.306  10.490 -0.6654 -0.4914  0.0524
  134SAPE   C3114462   5.621   5.357  10.410  0.1131 -0.2117 -0.3206
  134SAPE   O3214463   5.704   5.443  10.433 -0.0052  0.4019 -1.4829
  134SAPE   C3214464   5.614   5.279  10.284 -0.3603  0.3763 -0.5242
  134SAPE   H2X14465   5.520   5.303  10.229 -1.1064 -0.2521  0.4664
  134SAPE   H2Y14466   5.610   5.170  10.304 -1.6577  0.4748 -0.2234
  134SAPE   C2314467   5.183   5.645  10.471 -0.1424  0.2256  0.7675
  134SAPE   H3R14468   5.202   5.739  10.528 -0.8151  0.9047 -0.1125
  134SAPE   H3S14469   5.100   5.668  10.401  0.7122  0.6684 -0.1118
  134SAPE   C2414470   5.310   5.601  10.390 -0.1528  0.9152 -0.2098
  134SAPE   H4R14471   5.392   5.590  10.464 -0.9264  1.4252  0.7368
  134SAPE   H4S14472   5.339   5.681  10.318  1.2348  0.8370  0.2445
  134SAPE   C2514473   5.296   5.465  10.323 -0.0447 -0.8628 -0.0365
  134SAPE   H5R14474   5.290   5.381  10.395 -0.2793  0.2242  1.2392
  134SAPE   C2614475   5.272   5.438  10.196 -0.0157 -0.5764  0.1346
  134SAPE   H6R14476   5.232   5.342  10.160  3.3417 -1.7531 -0.5849
  134SAPE   C2714477   5.254   5.548  10.095  0.0141  0.3297  0.8896
  134SAPE   H7R14478   5.352   5.597  10.083 -0.4342  0.7332 -1.3485
  134SAPE   H7S14479   5.189   5.622  10.146  0.2618 -0.2070  2.0061
  134SAPE   C2814480   5.195   5.498   9.959  0.4361  0.3488  0.0637
  134SAPE   H8R14481   5.124   5.416   9.980  2.3471 -1.4477 -0.4013
  134SAPE   C2914482   5.215   5.541   9.832  0.2753  0.1337 -0.5014
  134SAPE   H9R14483   5.173   5.482   9.749  1.7497 -1.7443  0.0604
  134SAPE  C21014484   5.295   5.666   9.804  0.1200  0.3034 -0.0247
  134SAPE  H10R14485   5.351   5.709   9.890  0.3948 -0.1180  0.0116
  134SAPE  H10S14486   5.222   5.743   9.772  0.6160  0.5198 -0.6340
  134SAPE  C21114487   5.391   5.614   9.699  0.3447  0.0629 -0.0486
  134SAPE  H11R14488   5.475   5.562   9.747 -0.8649 -3.0582 -1.1427
  134SAPE  C21214489   5.397   5.659   9.575  0.0558 -0.2229 -0.1445
  134SAPE  H12R14490   5.475   5.612   9.513  1.6108  0.6762  1.0823
  134SAPE  C21314491   5.304   5.742   9.502 -0.0060 -0.0572 -0.4858
  134SAPE  H13R14492   5.206   5.733   9.553  1.0679  1.1416  1.8671
  134SAPE  H13S14493   5.294   5.690   9.404  0.3301 -2.3055  0.6248
  134SAPE  C21414494   5.343   5.887   9.494  0.2177 -0.9498 -0.0773
  134SAPE  H14R14495   5.449   5.904   9.470 -0.4815  1.1562 -1.7785
  134SAPE  C21514496   5.255   5.990   9.502 -1.0452 -0.5966 -0.0730
  134SAPE  H15R14497   5.296   6.091   9.513 -2.3648 -0.0734  0.1309
  134SAPE  C21614498   5.102   5.984   9.518 -0.0425  0.5480  0.1191
  134SAPE  H16R14499   5.061   6.087   9.531 -0.6682  0.4664 -1.0875
  134SAPE  H16S14500   5.080   5.934   9.614  1.7810  1.8698  1.2496
  134SAPE  C21714501   5.018   5.911   9.407  0.1108  0.4160 -0.2886
  134SAPE  H17R14502   4.916   5.888   9.444  0.3587  1.8246  1.3439
  134SAPE  H17S14503   5.070   5.815   9.386 -0.0978  0.4021 -0.7398
  134SAPE  C21814504   5.033   5.978   9.273  0.1994 -0.2590  0.6099
  134SAPE  H18R14505   5.137   6.011   9.255  0.0063 -0.7302 -1.6005
  134SAPE  H18S14506   4.970   6.069   9.260  0.3609  0.0829  2.1408
  134SAPE  C21914507   5.005   5.885   9.152 -0.0999  0.6831 -0.0972
  134SAPE  H19R14508   4.994   5.944   9.059 -0.6004  1.3462  0.3735
  134SAPE  H19S14509   4.906   5.843   9.177 -0.1822  0.8574 -0.1323
  134SAPE  C22014510   5.108   5.777   9.130 -0.1210 -0.0525 -0.6269
  134SAPE  H20R14511   5.079   5.689   9.191 -2.2416  2.1095  1.6108
  134SAPE  H20S14512   5.208   5.814   9.161  0.7271 -1.6997 -1.3952
  134SAPE  H20T14513   5.104   5.758   9.021  2.1834  1.1646 -0.9447
  134SAPE   C3314514   5.730   5.298  10.190 -0.3036  0.4936  0.8679
  134SAPE   H3X14515   5.734   5.212  10.119 -3.4460  0.6728  0.4151
  134SAPE   H3Y14516   5.830   5.283  10.237 -0.1051 -3.5609 -0.6406
  134SAPE   C3414517   5.748   5.425  10.110 -0.1133 -0.6089  1.0622
  134SAPE   H4X14518   5.850   5.435  10.066  0.1998 -0.7612  1.7470
  134SAPE   H4Y14519   5.744   5.500  10.192 -1.0933  1.1981 -0.5905
  134SAPE   C3514520   5.639   5.457  10.014  0.1787 -0.7652 -0.5656
  134SAPE   H5X14521   5.645   5.566   9.993  0.6687 -0.9245 -1.2439
  134SAPE   H5Y14522   5.539   5.436  10.058 -0.9920  2.3588 -1.5442
  134SAPE   C3614523   5.653   5.373   9.877 -0.1399 -0.3230  0.2491
  134SAPE   H6X14524   5.574   5.393   9.802  1.6932 -1.4277 -2.0275
  134SAPE   H6Y14525   5.638   5.265   9.900 -1.1650 -0.0417  0.9507
  134SAPE   C3714526   5.780   5.401   9.808  0.7775 -0.0653  0.1739
  134SAPE   H7X14527   5.865   5.347   9.856  1.6073  0.4322 -0.6983
  134SAPE   H7Y14528   5.812   5.506   9.825 -1.4589  0.2819  2.3229
  134SAPE   C3814529   5.763   5.366   9.661 -0.4083  0.1717 -0.7906
  134SAPE   H8X14530   5.667   5.404   9.620 -0.7060 -1.5476 -1.7079
  134SAPE   H8Y14531   5.748   5.256   9.658 -0.5948 -0.0479  4.3026
  134SAPE   C3914532   5.876   5.404   9.571 -0.0039  0.1627 -0.3185
  134SAPE   H9X14533   5.873   5.360   9.469 -3.0942 -0.8183  0.1402
  134SAPE   H9Y14534   5.970   5.373   9.622  0.6307 -0.7251 -1.9700
  134SAPE  C31014535   5.879   5.560   9.547  0.3436 -0.5996  0.4146
  134SAPE  H10X14536   5.983   5.563   9.508  0.3987 -1.0324  0.5281
  134SAPE  H10Y14537   5.873   5.620   9.640  0.3423 -1.4509  0.9777
  134SAPE  C31114538   5.777   5.615   9.446  0.0207  0.1685  0.0704
  134SAPE  H11X14539   5.783   5.726   9.445 -1.3681  0.2779  1.3704
  134SAPE  H11Y14540   5.673   5.580   9.463  0.0021  0.3740  0.3861
  134SAPE  C31214541   5.820   5.572   9.298 -0.4718  0.5931  0.2076
  134SAPE  H12X14542   5.793   5.464   9.299 -1.3869  0.8027  3.5524
  134SAPE  H12Y14543   5.930   5.579   9.284 -0.3961  0.9225  0.9305
  134SAPE  C31314544   5.735   5.645   9.188  0.2507  0.1280 -0.2832
  134SAPE  H13X14545   5.757   5.754   9.184 -1.1348  0.4664  0.8751
  134SAPE  H13Y14546   5.627   5.638   9.215 -0.2462 -0.4317 -2.3403
  134SAPE  C31414547   5.748   5.577   9.053  0.4625 -0.1593 -0.2759
  134SAPE  H14X14548   5.691   5.482   9.047  1.0888 -0.4128 -2.8326
  134SAPE  H14Y14549   5.855   5.567   9.023  0.0415 -2.0234 -1.1809
  134SAPE  C31514550   5.702   5.665   8.936 -0.2352 -0.3943 -1.1260
  134SAPE  H15X14551   5.598   5.696   8.961  0.2834 -0.2511  0.9474
  134SAPE  H15Y14552   5.693   5.599   8.846  0.6819 -2.8382  0.5395
  134SAPE  C31614553   5.792   5.786   8.898 -0.1397 -0.2956  0.3198
  134SAPE  H16X14554   5.882   5.742   8.852 -1.4233 -2.1677 -0.4780
  134SAPE  H16Y14555   5.822   5.835   8.993  0.4616  0.5174 -0.2851
  134SAPE  C31714556   5.723   5.893   8.816 -0.7442 -0.6762 -0.0742
  134SAPE  H17X14557   5.658   5.954   8.882  1.4718  2.2339 -0.4688
  134SAPE  H17Y14558   5.663   5.852   8.732 -0.0752 -1.1897 -0.3041
  134SAPE  C31814559   5.833   5.987   8.762  0.9804  0.1648  0.4368
  134SAPE  H18X14560   5.922   5.921   8.755 -0.1628 -1.2482 -0.9598
  134SAPE  H18Y14561   5.854   6.074   8.829  0.1119  0.1826  0.6913
  134SAPE  H18Z14562   5.813   6.050   8.673  1.8785  1.3475  1.0491
  135SAPE     N14563   4.829   4.069  10.639 -0.2213 -0.2548  0.1901
  135SAPE   HN114564   4.771   4.105  10.718 -0.4521  0.4971 -0.3284
  135SAPE   HN214565   4.926   4.039  10.660  0.1633  1.0148  0.2647
  135SAPE   HN314566   4.842   4.146  10.571  1.2038  0.3983  1.1647
  135SAPE   C1214567   4.770   3.966  10.556  0.1911 -0.8724 -0.1911
  135SAPE  H12A14568   4.842   3.941  10.475  1.6220 -1.4878  1.2551
  135SAPE  H12B14569   4.670   4.004  10.524  0.4025 -1.1869 -1.2573
  135SAPE   C1114570   4.751   3.829  10.630  0.3971 -0.0563  0.0618
  135SAPE  H11A14571   4.699   3.761  10.559 -0.0648 -0.1871  0.5235
  135SAPE  H11B14572   4.675   3.835  10.711 -1.1725 -0.4030 -1.3586
  135SAPE     P14573   4.932   3.635  10.632 -0.4435 -0.1125  0.3553
  135SAPE   O1314574   5.083   3.641  10.660  0.2762 -0.1087 -0.0827
  135SAPE   O1414575   4.855   3.528  10.692  0.1390 -0.1534  0.4163
  135SAPE   O1214576   4.870   3.776  10.676  0.2613 -0.7417  0.4431
  135SAPE   O1114577   4.920   3.637  10.474  0.2529 -0.3114 -0.1393
  135SAPE    C114578   5.023   3.712  10.403 -0.2889 -0.1109  0.0862
  135SAPE    HA14579   5.019   3.821  10.424  0.8503 -0.1700  0.6113
  135SAPE    HB14580   5.126   3.680  10.430  0.0934  0.3321 -0.7995
  135SAPE    C214581   5.006   3.680  10.253 -0.6825  0.3948  0.4248
  135SAPE    HS14582   4.955   3.770  10.213  2.2626  2.5703  1.4237
  135SAPE   O2114583   4.933   3.550  10.241  0.0013  0.1750 -0.2826
  135SAPE   C2114584   4.799   3.563  10.226 -1.2583  0.5264  0.0050
  135SAPE   O2214585   4.740   3.672  10.218  0.4510  0.0441  0.0532
  135SAPE   C2214586   4.728   3.434  10.214  0.4181 -0.3195 -0.5615
  135SAPE   H2R14587   4.767   3.381  10.303  0.9947  0.4737 -0.3403
  135SAPE   H2S14588   4.617   3.443  10.219  0.3728 -1.5567  0.7422
  135SAPE    C314589   5.143   3.661  10.174  0.6975 -0.5073  0.5609
  135SAPE    HX14590   5.191   3.579  10.230  0.8650 -0.7317  0.0947
  135SAPE    HY14591   5.213   3.747  10.180  0.5898 -0.4290  0.6958
  135SAPE   O3114592   5.117   3.618  10.037  0.1637 -1.1207 -0.1057
  135SAPE   C3114593   5.069   3.704   9.958  0.7464 -1.1091  0.4780
  135SAPE   O3214594   5.055   3.822   9.984  0.1355  0.7945 -0.0329
  135SAPE   C3214595   5.022   3.634   9.826 -0.2969  0.8468  0.4692
  135SAPE   H2X14596   4.969   3.542   9.859  0.2372  0.5685  0.5703
  135SAPE   H2Y14597   5.115   3.598   9.776 -2.3989  0.4650 -3.2865
  135SAPE   C2314598   4.777   3.352  10.088  0.1212  0.2516 -0.1687
  135SAPE   H3R14599   4.870   3.296  10.109  0.2943  0.2255 -0.9909
  135SAPE   H3S14600   4.792   3.420  10.002 -0.7021  0.7018  0.0352
  135SAPE   C2414601   4.674   3.252  10.040 -0.3469  0.2693  0.8028
  135SAPE   H4R14602   4.632   3.188  10.121 -0.6856 -1.3875 -0.6552
  135SAPE   H4S14603   4.709   3.177   9.966 -2.8511 -1.3430  1.1708
  135SAPE   C2514604   4.541   3.309   9.989 -0.5045  0.5306  0.0165
  135SAPE   H5R14605   4.452   3.310  10.053  0.4627  2.7488  1.3895
  135SAPE   C2614606   4.538   3.382   9.882  0.3358 -0.1937  0.1764
  135SAPE   H6R14607   4.450   3.437   9.847  1.3452  0.8015 -0.8435
  135SAPE   C2714608   4.647   3.422   9.790  0.2636 -0.1603 -0.2794
  135SAPE   H7R14609   4.710   3.498   9.842 -1.7107  1.0503  0.3608
  135SAPE   H7S14610   4.594   3.472   9.706  0.5613 -2.0823 -1.6408
  135SAPE   C2814611   4.733   3.315   9.732  0.3595 -0.5648 -0.6114
  135SAPE   H8R14612   4.804   3.284   9.810  0.0487 -0.6824 -0.3758
  135SAPE   C2914613   4.756   3.281   9.605  0.2056 -0.5425 -0.1194
  135SAPE   H9R14614   4.815   3.192   9.580 -1.3868 -0.9220 -2.7019
  135SAPE  C21014615   4.695   3.340   9.483 -0.2013  0.1221  0.1452
  135SAPE  H10R14616   4.585   3.343   9.500 -0.0718  1.3369  0.8492
  135SAPE  H10S14617   4.716   3.259   9.410  0.5107 -0.4983  1.0264
  135SAPE  C21114618   4.734   3.477   9.433  0.2040 -0.5807  0.6347
  135SAPE  H11R14619   4.690   3.562   9.487  0.9345  0.0256  0.2758
  135SAPE  C21214620   4.828   3.501   9.332 -0.4515  0.3213  0.3091
  135SAPE  H12R14621   4.829   3.604   9.293  1.2945  0.5072  0.8259
  135SAPE  C21314622   4.896   3.405   9.246 -0.1296  0.9662 -0.1855
  135SAPE  H13R14623   4.918   3.309   9.298 -0.0741  2.2440  2.2587
  135SAPE  H13S14624   4.997   3.439   9.213  0.8972 -1.5047  0.2736
  135SAPE  C21414625   4.810   3.366   9.127  0.2013  0.1571 -0.1945
  135SAPE  H14R14626   4.717   3.310   9.142 -0.6401  1.6703  0.4417
  135SAPE  C21514627   4.816   3.405   9.002 -0.1483  0.7760  0.4467
  135SAPE  H15R14628   4.757   3.352   8.926  0.6127 -0.3325  0.6078
  135SAPE  C21614629   4.922   3.499   8.947  0.1046  0.0752  0.2182
  135SAPE  H16R14630   5.010   3.514   9.014  0.4494  3.8046 -0.9509
  135SAPE  H16S14631   4.889   3.601   8.918 -1.2372 -0.9078 -1.8246
  135SAPE  C21714632   4.982   3.437   8.820 -0.0663 -1.0291  0.1797
  135SAPE  H17R14633   5.007   3.329   8.828  1.4915 -0.8545 -1.9707
  135SAPE  H17S14634   5.079   3.488   8.804 -0.6310  0.9940  2.8931
  135SAPE  C21814635   4.904   3.441   8.684 -0.4325 -0.6777  0.5727
  135SAPE  H18R14636   4.886   3.549   8.663 -1.4562 -1.0653 -0.6625
  135SAPE  H18S14637   4.806   3.394   8.709 -0.4061 -0.3019  1.3790
  135SAPE  C21914638   4.972   3.385   8.559 -0.1099 -0.5152 -0.1189
  135SAPE  H19R14639   4.998   3.278   8.570 -0.3856 -0.8124 -2.3183
  135SAPE  H19S14640   5.065   3.444   8.548 -0.5779  0.1624 -0.5078
  135SAPE  C22014641   4.884   3.393   8.437  0.4508 -0.7537  0.3812
  135SAPE  H20R14642   4.929   3.347   8.347 -2.1807 -1.1066 -0.7986
  135SAPE  H20S14643   4.861   3.497   8.407  3.5800 -0.0570  0.2751
  135SAPE  H20T14644   4.787   3.344   8.462 -0.5503  1.7194  1.5175
  135SAPE   C3314645   4.940   3.709   9.716  0.3005 -1.3224  0.4282
  135SAPE   H3X14646   4.853   3.762   9.759  0.3948 -0.3388 -0.5652
  135SAPE   H3Y14647   4.884   3.649   9.642 -1.8381  1.6818 -0.4557
  135SAPE   C3414648   5.027   3.797   9.632  0.6393 -0.6608  0.0749
  135SAPE   H4X14649   5.080   3.857   9.709 -1.3950  0.6479  0.5017
  135SAPE   H4Y14650   4.964   3.865   9.571 -0.1948 -0.7928  0.7761
  135SAPE   C3514651   5.115   3.720   9.539  0.3654  0.0525  0.7067
  135SAPE   H5X14652   5.053   3.657   9.472 -0.5727  1.8313 -0.1283
  135SAPE   H5Y14653   5.177   3.656   9.606 -0.8992 -1.8057  0.1542
  135SAPE   C3614654   5.208   3.815   9.455  0.1916  0.0721  0.0261
  135SAPE   H6X14655   5.291   3.747   9.425  0.5982  0.4490  0.2895
  135SAPE   H6Y14656   5.229   3.902   9.521 -0.7311  1.9673 -2.1259
  135SAPE   C3714657   5.137   3.879   9.334 -0.7189 -0.2474 -0.0120
  135SAPE   H7X14658   5.062   3.948   9.378 -0.9602  0.2961 -1.2453
  135SAPE   H7Y14659   5.081   3.811   9.266  0.1633 -1.1224  0.1239
  135SAPE   C3814660   5.223   3.959   9.251 -0.2131 -0.6631  0.1538
  135SAPE   H8X14661   5.300   3.894   9.204 -1.4213 -1.0024 -1.4033
  135SAPE   H8Y14662   5.280   4.037   9.306  0.1730 -1.1789  0.4964
  135SAPE   C3914663   5.146   4.026   9.142  0.6002  0.0484 -0.1495
  135SAPE   H9X14664   5.216   4.079   9.074 -1.0377  2.1211 -0.2835
  135SAPE   H9Y14665   5.071   4.098   9.182  0.1423 -0.7066  0.3754
  135SAPE  C31014666   5.061   3.939   9.043  0.7202 -0.3602 -0.0305
  135SAPE  H10X14667   4.971   3.904   9.097  0.4336  0.7076  0.1976
  135SAPE  H10Y14668   5.116   3.844   9.027 -0.4096 -0.9186 -0.6812
  135SAPE  C31114669   5.033   4.016   8.910 -0.3851 -0.2205  1.3748
  135SAPE  H11X14670   5.129   4.038   8.859 -0.8658  1.1853  1.0506
  135SAPE  H11Y14671   4.992   4.117   8.932 -0.6209  0.8763 -3.5411
  135SAPE  C31214672   4.935   3.952   8.807  0.2825 -0.5274 -0.5490
  135SAPE  H12X14673   4.837   3.935   8.857 -0.0825 -2.6869 -1.9263
  135SAPE  H12Y14674   4.976   3.855   8.770  1.1494  0.3126 -1.8030
  135SAPE  C31314675   4.906   4.056   8.697 -0.2520  1.1023 -0.1541
  135SAPE  H13X14676   5.004   4.071   8.646 -1.7617  0.1415 -3.4543
  135SAPE  H13Y14677   4.885   4.154   8.747 -2.2469 -0.7398  2.8097
  135SAPE  C31414678   4.798   4.020   8.594  0.3653 -0.3438  0.1485
  135SAPE  H14X14679   4.821   3.924   8.543  0.4552  1.1246 -2.7006
  135SAPE  H14Y14680   4.800   4.105   8.523  0.4383 -1.2151 -0.9068
  135SAPE  C31514681   4.649   4.009   8.639  0.6668 -0.1868 -0.3517
  135SAPE  H15X14682   4.638   3.930   8.717 -0.4596  1.0464  0.7668
  135SAPE  H15Y14683   4.585   3.969   8.557 -1.9898  2.2647  0.4315
  135SAPE  C31614684   4.578   4.142   8.674 -0.2067 -0.1683 -0.6409
  135SAPE  H16X14685   4.617   4.225   8.612  2.2098 -0.6324  0.2244
  135SAPE  H16Y14686   4.603   4.173   8.778 -2.2020  1.1452 -0.5147
  135SAPE  C31714687   4.423   4.139   8.659 -0.0494  0.2260  0.5672
  135SAPE  H17X14688   4.384   4.053   8.717 -0.0990  0.4134  0.8099
  135SAPE  H17Y14689   4.415   4.130   8.548 -2.8065 -3.1098  0.9584
  135SAPE  C31814690   4.351   4.262   8.709 -0.6096  0.2758 -0.0562
  135SAPE  H18X14691   4.249   4.265   8.664 -0.2363  0.5316 -0.8952
  135SAPE  H18Y14692   4.400   4.348   8.658  0.8966 -1.2279 -1.2282
  135SAPE  H18Z14693   4.360   4.256   8.819 -1.8448  0.7800  0.0820
  136SAPE     N14694   0.443   4.167  10.600  0.1399  0.3490 -0.0751
  136SAPE   HN114695   0.394   4.216  10.523 -1.8923 -1.3426  0.1165
  136SAPE   HN214696   0.546   4.176  10.585  0.3931 -1.0799  0.6878
  136SAPE   HN314697   0.425   4.064  10.600 -0.1388  0.3972 -0.7984
  136SAPE   C1214698   0.402   4.217  10.737  0.0601  0.1797 -0.0824
  136SAPE  H12A14699   0.292   4.233  10.737  0.4291  2.9878  0.6969
  136SAPE  H12B14700   0.446   4.319  10.732 -0.2646  0.4730  2.2573
  136SAPE   C1114701   0.464   4.135  10.848 -0.2034 -0.0894  0.2405
  136SAPE  H11A14702   0.435   4.028  10.847  1.0583 -0.4375 -1.3876
  136SAPE  H11B14703   0.418   4.170  10.943 -1.4394  0.8160 -0.6684
  136SAPE     P14704   0.690   4.089  10.978 -0.2003 -0.1118  0.0832
  136SAPE   O1314705   0.726   4.195  11.072 -0.3111 -0.0958  0.1817
  136SAPE   O1414706   0.621   3.969  11.036 -0.0957 -0.6081  0.2904
  136SAPE   O1214707   0.600   4.154  10.869  0.3866 -0.2360  0.6317
  136SAPE   O1114708   0.810   4.041  10.887 -0.0290 -0.0728 -0.1397
  136SAPE    C114709   0.802   3.944  10.784 -0.1927 -0.6764 -0.3379
  136SAPE    HA14710   0.698   3.922  10.752 -0.6493 -0.2558  0.8191
  136SAPE    HB14711   0.854   3.988  10.696  1.2762 -1.3074  0.1976
  136SAPE    C214712   0.892   3.824  10.813  0.2805 -0.0191 -0.4953
  136SAPE    HS14713   0.880   3.782  10.915 -0.6785  1.1778 -0.0992
  136SAPE   O2114714   1.027   3.866  10.800  0.4481 -0.3558  0.2326
  136SAPE   C2114715   1.118   3.790  10.845 -0.0511 -0.9029  0.2555
  136SAPE   O2214716   1.104   3.689  10.917  0.1043  0.2747 -0.2411
  136SAPE   C2214717   1.245   3.859  10.817 -0.2191  0.0111 -0.1979
  136SAPE   H2R14718   1.242   3.963  10.857  1.0243  0.1392 -0.3899
  136SAPE   H2S14719   1.328   3.812  10.874 -1.5450 -0.7328  1.1459
  136SAPE    C314720   0.856   3.706  10.717  0.1823 -0.3183  0.0834
  136SAPE    HX14721   0.755   3.667  10.743 -0.3073  0.1292 -1.1331
  136SAPE    HY14722   0.915   3.615  10.744 -0.5759 -0.4663  1.3187
  136SAPE   O3114723   0.873   3.732  10.580 -0.0159  0.1015  0.2336
  136SAPE   C3114724   0.841   3.631  10.498 -0.4431  0.0327  0.5636
  136SAPE   O3214725   0.783   3.533  10.540 -0.3711  0.2183  0.1998
  136SAPE   C3214726   0.871   3.656  10.353  0.0153 -1.0809 -0.2887
  136SAPE   H2X14727   0.979   3.679  10.348  0.1188 -1.1794  1.4267
  136SAPE   H2Y14728   0.815   3.750  10.333 -0.6314 -0.8545  2.4259
  136SAPE   C2314729   1.292   3.864  10.668 -0.3960 -0.0937 -0.3079
  136SAPE   H3R14730   1.364   3.946  10.652 -1.8923  1.3107  0.0406
  136SAPE   H3S14731   1.211   3.896  10.599 -1.1954 -1.0545  0.1634
  136SAPE   C2414732   1.348   3.734  10.606  0.9539 -0.1564 -0.2873
  136SAPE   H4R14733   1.262   3.675  10.567  1.8799 -1.6920 -0.0335
  136SAPE   H4S14734   1.388   3.673  10.689  1.8457 -0.3078 -0.8245
  136SAPE   C2514735   1.463   3.759  10.511 -0.4223 -0.2793  0.0351
  136SAPE   H5R14736   1.552   3.805  10.556 -0.5911 -1.0356  1.1721
  136SAPE   C2614737   1.460   3.747  10.376  0.5800 -0.6226  0.0040
  136SAPE   H6R14738   1.556   3.766  10.327  0.8581 -0.2794  0.6683
  136SAPE   C2714739   1.339   3.711  10.291  0.0145  1.1137  0.3726
  136SAPE   H7R14740   1.285   3.805  10.267  0.7954  1.7611  1.1230
  136SAPE   H7S14741   1.277   3.639  10.348 -0.3519  0.9571 -0.2113
  136SAPE   C2814742   1.386   3.642  10.157 -0.0950 -0.2440  0.2006
  136SAPE   H8R14743   1.461   3.564  10.171  0.0078 -0.1766  0.0319
  136SAPE   C2914744   1.349   3.670  10.030 -0.2096 -0.2980  0.5984
  136SAPE   H9R14745   1.369   3.596   9.952 -0.3362 -0.4229  0.6846
  136SAPE  C21014746   1.260   3.789   9.988 -0.3886  0.0006  0.1508
  136SAPE  H10R14747   1.187   3.786  10.072 -0.5339 -0.2786  0.0125
  136SAPE  H10S14748   1.191   3.769   9.903 -1.3999  0.3618  0.8662
  136SAPE  C21114749   1.316   3.924   9.978 -0.0402  0.0799  0.5404
  136SAPE  H11R14750   1.338   3.968  10.077  1.4315  0.4273  0.0754
  136SAPE  C21214751   1.331   3.995   9.862 -0.2963  0.3438 -0.1419
  136SAPE  H12R14752   1.386   4.090   9.863  0.6936 -0.2300  0.6600
  136SAPE  C21314753   1.302   3.957   9.723 -0.3857  0.5315 -0.6126
  136SAPE  H13R14754   1.288   4.044   9.656 -0.4357  0.7260 -0.3472
  136SAPE  H13S14755   1.208   3.898   9.725  0.1812 -0.3702  0.1959
  136SAPE  C21414756   1.419   3.880   9.665  0.5193 -0.1371 -0.1545
  136SAPE  H14R14757   1.454   3.796   9.726  1.1535  1.7257  2.1262
  136SAPE  C21514758   1.496   3.901   9.560 -0.3668  0.0651  0.1425
  136SAPE  H15R14759   1.576   3.831   9.534  0.2490  0.5842  0.6387
  136SAPE  C21614760   1.474   4.019   9.462  0.4897  0.0361  0.3254
  136SAPE  H16R14761   1.509   4.108   9.519  1.3004  0.2906 -0.5629
  136SAPE  H16S14762   1.366   4.028   9.439  0.7888  2.5089 -0.2628
  136SAPE  C21714763   1.538   3.991   9.323  0.7397  0.6272  0.1732
  136SAPE  H17R14764   1.526   3.885   9.291 -4.1183  0.9733  0.3950
  136SAPE  H17S14765   1.647   4.004   9.337  0.6738  1.9650 -0.5044
  136SAPE  C21814766   1.486   4.083   9.213  0.5171 -0.1464  0.1229
  136SAPE  H18R14767   1.470   4.187   9.250  2.0017  0.4669 -0.9182
  136SAPE  H18S14768   1.388   4.053   9.170 -0.1000  2.2554 -0.2553
  136SAPE  C21914769   1.579   4.089   9.085 -0.3847 -0.3470  0.3242
  136SAPE  H19R14770   1.610   3.984   9.063 -1.9415 -0.4153 -1.7278
  136SAPE  H19S14771   1.678   4.135   9.106 -1.1333  0.9032  1.1515
  136SAPE  C22014772   1.512   4.145   8.957  0.9481 -0.5502  0.9716
  136SAPE  H20R14773   1.460   4.242   8.962  1.0440 -0.4112 -0.4702
  136SAPE  H20S14774   1.431   4.081   8.916  1.3192  0.1825 -0.9632
  136SAPE  H20T14775   1.589   4.158   8.878 -0.9331 -0.2233 -0.8567
  136SAPE   C3314776   0.858   3.529  10.270  0.4692  0.6746 -0.5583
  136SAPE   H3X14777   0.753   3.496  10.285  0.8518  0.0827  0.8505
  136SAPE   H3Y14778   0.909   3.447  10.326 -2.7194 -0.8220  0.2338
  136SAPE   C3414779   0.909   3.528  10.123 -0.2459  0.7429  0.1163
  136SAPE   H4X14780   1.020   3.533  10.123 -0.2217  0.2780 -1.0248
  136SAPE   H4Y14781   0.867   3.622  10.082  0.4992 -0.1710 -2.7992
  136SAPE   C3514782   0.866   3.414  10.031 -0.5162 -0.3279 -0.7123
  136SAPE   H5X14783   0.755   3.417  10.033 -0.5383 -1.4001 -0.0266
  136SAPE   H5Y14784   0.895   3.320  10.082 -0.6324 -1.5721 -2.8847
  136SAPE   C3614785   0.923   3.432   9.891  0.7089 -0.3917  0.2828
  136SAPE   H6X14786   1.030   3.405   9.884  1.1493  1.8558 -2.7830
  136SAPE   H6Y14787   0.925   3.533   9.846  0.0689 -0.5220 -0.0486
  136SAPE   C3714788   0.839   3.365   9.779 -0.2015  0.3090  0.3236
  136SAPE   H7X14789   0.745   3.425   9.773  0.9525  2.0343 -1.0787
  136SAPE   H7Y14790   0.816   3.259   9.800  0.4657  0.4499  1.7927
  136SAPE   C3814791   0.904   3.361   9.642  0.5636  0.0043  0.8627
  136SAPE   H8X14792   0.986   3.288   9.630 -1.2251 -1.6161 -2.2826
  136SAPE   H8Y14793   0.944   3.463   9.624 -0.7443  0.7659  2.1312
  136SAPE   C3914794   0.806   3.320   9.525  0.9514 -0.1603 -0.3298
  136SAPE   H9X14795   0.730   3.399   9.508  1.0726 -0.2852 -1.5114
  136SAPE   H9Y14796   0.759   3.224   9.554  2.6128 -0.1461  2.6408
  136SAPE  C31014797   0.874   3.299   9.383 -0.2781 -0.2212 -0.1428
  136SAPE  H10X14798   0.810   3.234   9.321  1.6534 -0.6426 -1.7361
  136SAPE  H10Y14799   0.977   3.261   9.400 -0.1298  0.6846  1.0966
  136SAPE  C31114800   0.898   3.434   9.302  0.0411 -0.3029  0.0563
  136SAPE  H11X14801   0.971   3.496   9.357  0.2938 -0.3855 -0.1801
  136SAPE  H11Y14802   0.805   3.493   9.284  0.6437  0.9566  1.0696
  136SAPE  C31214803   0.968   3.410   9.171  0.0710  0.0665 -0.5001
  136SAPE  H12X14804   0.901   3.335   9.124  0.3965 -1.3265  1.1844
  136SAPE  H12Y14805   1.073   3.379   9.194  0.4218 -0.1465 -2.3597
  136SAPE  C31314806   0.981   3.537   9.084  0.2251 -0.9647  0.2563
  136SAPE  H13X14807   1.064   3.603   9.117 -1.0160 -0.0643  1.6374
  136SAPE  H13Y14808   0.880   3.582   9.075  0.5989 -0.2099 -0.1311
  136SAPE  C31414809   1.014   3.497   8.935 -0.1758  0.0877  0.1676
  136SAPE  H14X14810   1.111   3.444   8.926  0.3726  1.0133  0.5663
  136SAPE  H14Y14811   1.039   3.589   8.877  1.2187 -0.2454  0.2250
  136SAPE  C31514812   0.902   3.429   8.866 -0.2120  0.0353  0.3141
  136SAPE  H15X14813   0.812   3.487   8.899 -0.6364 -1.5911  2.1493
  136SAPE  H15Y14814   0.880   3.328   8.906  0.4913 -0.0887  0.3917
  136SAPE  C31614815   0.922   3.409   8.714  0.1113 -0.6252  0.1902
  136SAPE  H16X14816   1.003   3.335   8.701 -0.8813 -1.3435 -2.1524
  136SAPE  H16Y14817   0.956   3.505   8.671  0.4512  0.9632  3.8169
  136SAPE  C31714818   0.795   3.354   8.648  0.6217  0.1731  0.0674
  136SAPE  H17X14819   0.807   3.361   8.538 -0.7055 -3.6880 -0.3928
  136SAPE  H17Y14820   0.714   3.427   8.667 -0.8562 -0.8761 -2.0770
  136SAPE  C31814821   0.746   3.211   8.693  0.4918 -0.6240  0.4070
  136SAPE  H18X14822   0.689   3.159   8.613 -2.7689  0.5772  1.8443
  136SAPE  H18Y14823   0.687   3.220   8.787  0.7409  0.3105  0.4782
  136SAPE  H18Z14824   0.833   3.144   8.711  1.8391  1.2195  1.0086
  137SAPE     N14825   5.433   0.486  10.825  0.2920  0.2196 -0.4282
  137SAPE   HN114826   5.477   0.545  10.899 -2.7328 -0.7097  2.2106
  137SAPE   HN214827   5.509   0.426  10.787  0.9894  1.2987 -0.7654
  137SAPE   HN314828   5.386   0.543  10.752 -1.9722  1.4690  1.8993
  137SAPE   C1214829   5.334   0.398  10.896 -0.2856 -0.1448 -0.6565
  137SAPE  H12A14830   5.234   0.397  10.847 -2.0077  1.4953  2.6344
  137SAPE  H12B14831   5.313   0.447  10.994 -0.7859  0.4844 -1.0797
  137SAPE   C1114832   5.382   0.253  10.931  0.3800  0.4325  0.2772
  137SAPE  H11A14833   5.316   0.204  11.005 -1.7520  1.9547 -0.5796
  137SAPE  H11B14834   5.482   0.271  10.977  0.0890  2.5338  0.1461
  137SAPE     P14835   5.307   0.047  10.790  0.1330 -0.3109  0.1144
  137SAPE   O1314836   5.373  -0.077  10.838 -0.0674 -0.1368  0.6033
  137SAPE   O1414837   5.174   0.083  10.842 -0.3254 -0.5580 -0.1926
  137SAPE   O1214838   5.404   0.170  10.815  0.1289  0.1077  0.5618
  137SAPE   O1114839   5.304   0.040  10.634  0.6515  0.0537 -0.7724
  137SAPE    C114840   5.427   0.067  10.566  0.3460  0.1861 -0.3490
  137SAPE    HA14841   5.515   0.087  10.630 -0.2691  1.2161  0.1946
  137SAPE    HB14842   5.445  -0.026  10.508 -0.0711  0.0465 -0.2602
  137SAPE    C214843   5.407   0.196  10.478 -0.2040  0.7902 -0.0418
  137SAPE    HS14844   5.396   0.271  10.559  0.3501 -0.1848  0.9475
  137SAPE   O2114845   5.298   0.177  10.389  0.7604 -1.0338  0.2510
  137SAPE   C2114846   5.201   0.266  10.400  0.9498 -0.4345  0.3184
  137SAPE   O2214847   5.197   0.370  10.461  0.0283 -0.2664  0.3882
  137SAPE   C2214848   5.098   0.209  10.309  0.2179 -0.1516  0.6166
  137SAPE   H2R14849   5.129   0.120  10.250 -0.0248 -0.4455  0.9303
  137SAPE   H2S14850   5.013   0.175  10.371 -1.0625 -0.5703 -1.3272
  137SAPE    C314851   5.536   0.236  10.399  0.1348  0.6410 -0.5553
  137SAPE    HX14852   5.572   0.149  10.340 -0.7747 -0.0815 -0.0718
  137SAPE    HY14853   5.622   0.266  10.463  1.3085  1.2563 -2.3943
  137SAPE   O3114854   5.504   0.346  10.307 -0.3078  0.1141  0.3077
  137SAPE   C3114855   5.511   0.472  10.352 -0.6032 -0.2448  0.3843
  137SAPE   O3214856   5.545   0.493  10.467 -0.1320  0.1047  0.3570
  137SAPE   C3214857   5.479   0.572  10.244  0.0939  0.5440  0.3367
  137SAPE   H2X14858   5.373   0.601  10.263 -0.5770 -1.8138  0.3066
  137SAPE   H2Y14859   5.498   0.533  10.142  1.9255 -1.2617  1.3308
  137SAPE   C2314860   5.045   0.322  10.220 -0.1993  0.0357  0.5358
  137SAPE   H3R14861   4.997   0.407  10.274  0.5954 -0.0815  1.4271
  137SAPE   H3S14862   4.967   0.280  10.152  0.0968 -1.4505  1.1080
  137SAPE   C2414863   5.162   0.391  10.130  0.4499 -0.3322 -0.1440
  137SAPE   H4R14864   5.229   0.439  10.205  0.7150 -0.5143 -0.2642
  137SAPE   H4S14865   5.112   0.471  10.070 -1.8248 -1.6505 -0.0575
  137SAPE   C2514866   5.244   0.296  10.051  0.9353 -0.2728 -0.3424
  137SAPE   H5R14867   5.288   0.214  10.110 -1.4587 -1.6228 -0.3613
  137SAPE   C2614868   5.253   0.297   9.919  0.0306 -0.7295  0.6413
  137SAPE   H6R14869   5.321   0.228   9.867 -1.4724 -0.9573 -1.0579
  137SAPE   C2714870   5.192   0.386   9.817  0.2703  0.4948 -0.0064
  137SAPE   H7R14871   5.159   0.473   9.878 -1.5050 -0.7514  0.8607
  137SAPE   H7S14872   5.115   0.331   9.759  1.3440 -0.1272 -0.8486
  137SAPE   C2814873   5.305   0.436   9.733 -0.2961 -0.5800  0.3761
  137SAPE   H8R14874   5.370   0.508   9.784 -0.1520 -0.9549  0.7212
  137SAPE   C2914875   5.321   0.434   9.599 -0.0400 -0.1517 -0.7110
  137SAPE   H9R14876   5.411   0.479   9.555 -0.1901  1.1429  0.2666
  137SAPE  C21014877   5.227   0.365   9.500 -0.4517 -0.1026 -0.0567
  137SAPE  H10R14878   5.138   0.426   9.475  0.0077  1.1033  1.1577
  137SAPE  H10S14879   5.193   0.268   9.541  0.7009 -0.9880 -1.1388
  137SAPE  C21114880   5.303   0.330   9.377 -0.0633 -0.4909 -0.4931
  137SAPE  H11R14881   5.389   0.262   9.383  0.4380  0.1882  0.0745
  137SAPE  C21214882   5.276   0.365   9.254  0.0642 -0.2839  0.2483
  137SAPE  H12R14883   5.335   0.306   9.182 -0.3682 -0.5305  0.1017
  137SAPE  C21314884   5.166   0.449   9.192 -0.1209 -0.1088 -1.0109
  137SAPE  H13R14885   5.224   0.512   9.121  1.6221 -0.4742  0.0398
  137SAPE  H13S14886   5.133   0.522   9.269 -0.6498 -1.4355  0.0369
  137SAPE  C21414887   5.063   0.365   9.120  0.1531  0.9690 -0.3793
  137SAPE  H14R14888   4.990   0.311   9.181 -0.7090  0.0117 -2.2244
  137SAPE  C21514889   5.053   0.352   8.985 -0.0374  0.2654 -0.2080
  137SAPE  H15R14890   4.989   0.275   8.941 -0.1928 -0.6472  1.5415
  137SAPE  C21614891   5.146   0.426   8.886  0.2424  0.4732  0.2070
  137SAPE  H16R14892   5.244   0.450   8.932  0.7373 -0.4218 -0.3702
  137SAPE  H16S14893   5.102   0.519   8.844  1.7604  0.9266 -0.4174
  137SAPE  C21714894   5.174   0.322   8.777 -0.4435 -0.1430 -0.2944
  137SAPE  H17R14895   5.218   0.225   8.811  0.4486  0.2437 -0.3235
  137SAPE  H17S14896   5.250   0.359   8.705 -0.1770  1.0895  0.5936
  137SAPE  C21814897   5.056   0.287   8.685  0.1760  0.1569 -0.0346
  137SAPE  H18R14898   5.071   0.363   8.605 -0.5234  0.2820 -0.0540
  137SAPE  H18S14899   4.961   0.306   8.740  0.4230 -1.8341  1.1082
  137SAPE  C21914900   5.051   0.147   8.629 -0.0527  0.4206  0.2321
  137SAPE  H19R14901   5.043   0.079   8.716  0.7446 -1.4373 -1.1290
  137SAPE  H19S14902   5.143   0.116   8.575  0.1537  1.7849 -0.2280
  137SAPE  C22014903   4.932   0.122   8.532  0.0225 -0.0897  0.0667
  137SAPE  H20R14904   4.841   0.162   8.581  0.2194  1.0307 -0.4724
  137SAPE  H20S14905   4.924   0.014   8.507  0.3753  0.2777 -1.7252
  137SAPE  H20T14906   4.948   0.183   8.440  1.0939  1.6293  1.3595
  137SAPE   C3314907   5.549   0.710  10.263 -1.2835 -0.5763  0.1269
  137SAPE   H3X14908   5.657   0.699  10.239 -0.6307 -0.0749  2.7519
  137SAPE   H3Y14909   5.548   0.725  10.373  1.9021  2.5266 -0.1329
  137SAPE   C3414910   5.472   0.827  10.192 -0.0509  0.3228 -0.7141
  137SAPE   H4X14911   5.523   0.926  10.193 -1.9748  1.3339 -0.6334
  137SAPE   H4Y14912   5.370   0.844  10.231  0.3315  0.7382  0.1137
  137SAPE   C3514913   5.464   0.805  10.038  0.1426  0.0373 -0.8024
  137SAPE   H5X14914   5.407   0.890   9.997  0.6433  1.4935  1.4372
  137SAPE   H5Y14915   5.408   0.710  10.023 -0.1670 -0.1691  1.5401
  137SAPE   C3614916   5.593   0.791   9.965 -0.2892 -0.3689 -0.9066
  137SAPE   H6X14917   5.629   0.687   9.985  0.6703  0.2269  0.5901
  137SAPE   H6Y14918   5.668   0.871   9.982 -0.6643 -0.1826 -0.0919
  137SAPE   C3714919   5.579   0.785   9.803 -0.0258 -0.3248 -0.6522
  137SAPE   H7X14920   5.575   0.887   9.759  0.7804  0.4348  1.0073
  137SAPE   H7Y14921   5.483   0.743   9.765 -0.0992 -0.1150 -0.7003
  137SAPE   C3814922   5.704   0.709   9.751  0.1387 -0.1000  0.3022
  137SAPE   H8X14923   5.691   0.603   9.784 -2.3968 -0.0778 -0.5464
  137SAPE   H8Y14924   5.787   0.762   9.803  1.2908 -0.7725 -0.8098
  137SAPE   C3914925   5.734   0.729   9.602 -0.1674 -0.8273  0.7628
  137SAPE   H9X14926   5.837   0.699   9.572  0.2708  0.4481  0.9295
  137SAPE   H9Y14927   5.722   0.839   9.590 -2.3943 -1.1362 -0.0442
  137SAPE  C31014928   5.650   0.650   9.499  0.2170  0.3031 -0.1624
  137SAPE  H10X14929   5.542   0.661   9.522  0.7258 -0.9637  3.0541
  137SAPE  H10Y14930   5.682   0.544   9.507  1.4966  0.6223 -0.7754
  137SAPE  C31114931   5.687   0.701   9.359  0.1113 -0.4338 -0.1174
  137SAPE  H11X14932   5.797   0.696   9.342  0.0235  0.6595 -1.0424
  137SAPE  H11Y14933   5.654   0.805   9.343  0.9416 -0.6045 -3.2791
  137SAPE  C31214934   5.608   0.625   9.238 -0.0034 -0.8659  0.3084
  137SAPE  H12X14935   5.499   0.628   9.262 -1.0067  0.9009 -4.0816
  137SAPE  H12Y14936   5.645   0.520   9.246  1.6908 -0.2117  1.2731
  137SAPE  C31314937   5.633   0.692   9.102 -0.2250  0.0183 -0.0609
  137SAPE  H13X14938   5.743   0.683   9.089 -0.0645  1.3172  0.3352
  137SAPE  H13Y14939   5.625   0.803   9.108  0.8622  0.1397 -0.7490
  137SAPE  C31414940   5.532   0.631   9.001 -0.2418 -0.4998  0.0498
  137SAPE  H14X14941   5.431   0.656   9.040 -0.7417 -1.7482 -0.4180
  137SAPE  H14Y14942   5.538   0.520   8.997 -0.0165 -0.5041  0.4384
  137SAPE  C31514943   5.575   0.679   8.865  0.3952 -0.3728 -0.1343
  137SAPE  H15X14944   5.685   0.669   8.852  0.9599  1.7591  2.4573
  137SAPE  H15Y14945   5.560   0.789   8.857  1.5381 -0.1474  0.6539
  137SAPE  C31614946   5.493   0.612   8.756 -0.8028 -0.6615  0.0768
  137SAPE  H16X14947   5.387   0.647   8.758 -1.6216 -3.0888  0.0905
  137SAPE  H16Y14948   5.499   0.505   8.783  3.0029 -0.1444  1.6537
  137SAPE  C31714949   5.557   0.631   8.616 -0.3507  0.6818  0.2961
  137SAPE  H17X14950   5.663   0.605   8.636 -0.5571 -1.5083 -1.2832
  137SAPE  H17Y14951   5.537   0.735   8.584 -2.9540 -0.8414 -3.2873
  137SAPE  C31814952   5.505   0.531   8.513 -0.1752  0.0384 -0.1138
  137SAPE  H18X14953   5.396   0.507   8.521 -0.3450 -0.4781 -3.3214
  137SAPE  H18Y14954   5.552   0.433   8.538  3.1630  1.7293  0.5263
  137SAPE  H18Z14955   5.536   0.541   8.407 -1.1878 -1.2739 -0.5609
  138SAPE     N14956   2.693   0.659  10.641 -0.0162  0.0164 -0.2328
  138SAPE   HN114957   2.752   0.584  10.681  0.5704  0.0073 -1.1031
  138SAPE   HN214958   2.651   0.710  10.721  1.5560 -1.0669  1.3311
  138SAPE   HN314959   2.616   0.611  10.591  0.2304  2.0656 -2.7034
  138SAPE   C1214960   2.755   0.751  10.545  0.3796  0.5407 -0.4581
  138SAPE  H12A14961   2.672   0.790  10.481 -1.4502  0.7982  1.9890
  138SAPE  H12B14962   2.817   0.684  10.483  0.1578 -1.4503  1.4236
  138SAPE   C1114963   2.833   0.868  10.611 -0.2166 -0.1925 -0.1735
  138SAPE  H11A14964   2.851   0.935  10.525  1.3901  0.6409  0.8067
  138SAPE  H11B14965   2.931   0.844  10.657 -0.2853  0.1739  0.1661
  138SAPE     P14966   2.709   1.065  10.738 -0.4022 -0.1744 -0.2753
  138SAPE   O1314967   2.586   1.072  10.823 -0.3496  0.2930 -0.0233
  138SAPE   O1414968   2.835   1.132  10.783  0.5767  0.4947 -0.0296
  138SAPE   O1214969   2.745   0.917  10.714  0.2117  0.5697 -0.3222
  138SAPE   O1114970   2.669   1.112  10.596 -1.0360 -0.5473 -0.4503
  138SAPE    C114971   2.567   1.207  10.565 -0.4842 -0.0903  0.8142
  138SAPE    HA14972   2.489   1.214  10.644 -2.5254  0.4291 -1.1998
  138SAPE    HB14973   2.617   1.306  10.556  0.8159 -0.7219  0.9739
  138SAPE    C214974   2.515   1.185  10.422 -0.6319  0.7356  0.0115
  138SAPE    HS14975   2.459   1.089  10.429 -0.0452  0.5393  2.2330
  138SAPE   O2114976   2.627   1.174  10.326  0.4508 -0.1838  0.0571
  138SAPE   C2114977   2.661   1.054  10.286  0.3984 -0.3748  0.0853
  138SAPE   O2214978   2.602   0.950  10.317 -0.2121  0.7334  0.6458
  138SAPE   C2214979   2.791   1.066  10.210 -0.9005  0.0763 -0.6382
  138SAPE   H2R14980   2.784   1.143  10.130  2.3117  2.7401  1.4540
  138SAPE   H2S14981   2.868   1.112  10.276 -0.9822  0.3539 -0.7348
  138SAPE    C314982   2.415   1.295  10.374  0.6513 -0.3561 -0.1248
  138SAPE    HX14983   2.467   1.391  10.396  0.3045 -0.2080  0.0588
  138SAPE    HY14984   2.331   1.288  10.446 -0.2211 -1.3287 -1.2362
  138SAPE   O3114985   2.375   1.290  10.234 -0.1903  0.3436 -0.3642
  138SAPE   C3114986   2.289   1.195  10.214 -0.3900 -0.4789  0.0132
  138SAPE   O3214987   2.229   1.124  10.290  0.0763  0.6553 -0.1134
  138SAPE   C3214988   2.287   1.181  10.050  0.5841  0.3096  0.3399
  138SAPE   H2X14989   2.297   1.281  10.004 -2.4293  0.4095 -0.2313
  138SAPE   H2Y14990   2.181   1.149  10.034  0.6273  1.2428 -1.9414
  138SAPE   C2314991   2.833   0.934  10.145 -0.0661  0.1310  0.3258
  138SAPE   H3R14992   2.765   0.898  10.065 -0.2468  1.4801 -0.1243
  138SAPE   H3S14993   2.838   0.851  10.219 -0.9976 -1.2763 -1.1347
  138SAPE   C2414994   2.974   0.925  10.087  0.2153 -0.0738  0.0855
  138SAPE   H4R14995   2.996   0.819  10.060  0.4232  0.3147 -1.3435
  138SAPE   H4S14996   3.034   0.959  10.174 -1.0012  1.3590  0.3746
  138SAPE   C2514997   2.988   1.019   9.967 -0.0109 -0.5560 -0.0569
  138SAPE   H5R14998   2.985   1.126   9.990  0.1150 -0.0908 -2.0923
  138SAPE   C2614999   2.990   0.991   9.837 -0.6272 -0.2374 -0.0361
  138SAPE   H6R15000   3.012   1.065   9.760 -4.9376  0.5537 -0.6262
  138SAPE   C2715001   2.978   0.853   9.780 -0.5308  0.5667  0.0180
  138SAPE   H7R15002   2.946   0.782   9.859 -2.5316  1.7086  0.2812
  138SAPE   H7S15003   3.081   0.830   9.745 -0.3887 -1.0178  1.4433
  138SAPE   C2815004   2.888   0.835   9.659  0.2836 -0.7874  0.0659
  138SAPE   H8R15005   2.828   0.920   9.624  1.7816 -0.4528 -1.7705
  138SAPE   C2915006   2.870   0.720   9.597  0.3964  0.2583  0.0720
  138SAPE   H9R15007   2.792   0.711   9.521 -1.5196 -0.6955  2.0861
  138SAPE  C21015008   2.945   0.592   9.632  0.0131 -0.2037  0.7174
  138SAPE  H10R15009   2.884   0.514   9.682  0.0043 -1.1329 -0.7180
  138SAPE  H10S15010   3.030   0.618   9.699  1.7795 -1.8970 -0.8115
  138SAPE  C21115011   2.997   0.519   9.505  0.0381 -0.2199 -1.0040
  138SAPE  H11R15012   3.107   0.511   9.506 -0.0394 -1.2608  0.1214
  138SAPE  C21215013   2.922   0.464   9.413 -0.3418 -0.4938 -0.0532
  138SAPE  H12R15014   2.975   0.411   9.332  1.0580  1.9174 -0.7546
  138SAPE  C21315015   2.777   0.460   9.400  0.0326 -0.5451 -0.1436
  138SAPE  H13R15016   2.735   0.494   9.497 -0.0837  2.9663 -1.3277
  138SAPE  H13S15017   2.754   0.352   9.388 -1.4637 -0.4663  1.8845
  138SAPE  C21415018   2.727   0.544   9.283  0.6705  0.0724 -0.1143
  138SAPE  H14R15019   2.789   0.634   9.267 -1.1382  1.1980 -0.9940
  138SAPE  C21515020   2.616   0.505   9.210 -0.2170 -0.2077  0.4566
  138SAPE  H15R15021   2.575   0.569   9.130  1.2891 -0.8622 -0.8648
  138SAPE  C21615022   2.536   0.380   9.231  0.4398 -0.0359  0.0165
  138SAPE  H16R15023   2.431   0.397   9.198 -0.9032 -2.6004  2.8390
  138SAPE  H16S15024   2.547   0.347   9.336  3.1431  0.5140 -0.0491
  138SAPE  C21715025   2.584   0.262   9.141 -0.4647 -0.2895  0.3865
  138SAPE  H17R15026   2.535   0.166   9.169 -0.4943 -0.8106 -1.4009
  138SAPE  H17S15027   2.693   0.244   9.142  0.0109  2.4330 -0.0116
  138SAPE  C21815028   2.541   0.289   8.996  0.1016  0.7623  0.3158
  138SAPE  H18R15029   2.600   0.376   8.959  1.4657 -0.2508  0.0408
  138SAPE  H18S15030   2.435   0.320   8.998 -0.4209 -0.8829 -1.1364
  138SAPE  C21915031   2.569   0.169   8.899 -0.0151  0.5176  0.0548
  138SAPE  H19R15032   2.492   0.096   8.931  2.1666 -2.7505 -1.8082
  138SAPE  H19S15033   2.669   0.127   8.923  0.7339  1.0087 -2.0510
  138SAPE  C22015034   2.555   0.213   8.749 -0.1890 -0.5736 -0.3584
  138SAPE  H20R15035   2.531   0.130   8.679 -2.1311 -0.7743  0.5000
  138SAPE  H20S15036   2.654   0.255   8.722 -0.6591  0.4678 -0.4878
  138SAPE  H20T15037   2.479   0.293   8.734  1.6929  0.7941 -3.0352
  138SAPE   C3315038   2.394   1.079  10.023  0.2529  0.2618  0.1762
  138SAPE   H3X15039   2.370   0.988  10.082 -0.9078  0.5235  0.1295
  138SAPE   H3Y15040   2.492   1.125  10.047 -0.2391  0.4777  1.7917
  138SAPE   C3415041   2.393   1.030   9.879 -0.7141 -0.7678  0.5603
  138SAPE   H4X15042   2.397   1.109   9.800  0.2788  0.8811  2.2389
  138SAPE   H4Y15043   2.298   0.975   9.859 -1.3455  0.2885  0.6045
  138SAPE   C3515044   2.517   0.942   9.863  0.2567 -0.0335  0.5894
  138SAPE   H5X15045   2.535   0.886   9.957  0.0482  1.2694  1.4164
  138SAPE   H5Y15046   2.611   0.999   9.847  0.7041 -0.4043  1.8821
  138SAPE   C3615047   2.509   0.832   9.752  0.5891 -0.1522 -0.3841
  138SAPE   H6X15048   2.441   0.752   9.790  2.7304 -0.9735  1.8231
  138SAPE   H6Y15049   2.608   0.783   9.740  0.1034 -0.7091 -2.3042
  138SAPE   C3715050   2.469   0.881   9.605  0.1256 -0.7998 -0.8954
  138SAPE   H7X15051   2.545   0.947   9.558 -0.6035 -0.4532 -1.5976
  138SAPE   H7Y15052   2.377   0.945   9.605 -0.5068 -1.7013 -0.3535
  138SAPE   C3815053   2.443   0.773   9.506 -0.5345 -0.1934  0.4506
  138SAPE   H8X15054   2.377   0.695   9.551 -1.2345  1.2515  2.0083
  138SAPE   H8Y15055   2.530   0.715   9.469  0.4136  1.9485 -0.7177
  138SAPE   C3915056   2.371   0.814   9.373 -0.2878  0.3225 -0.6601
  138SAPE   H9X15057   2.275   0.858   9.408  0.8484  0.5236  2.4152
  138SAPE   H9Y15058   2.344   0.715   9.332  1.8075 -0.3175 -0.5551
  138SAPE  C31015059   2.457   0.889   9.273  0.3218  0.1547  0.2434
  138SAPE  H10X15060   2.564   0.858   9.276 -0.6221 -3.5188 -1.3613
  138SAPE  H10Y15061   2.457   0.993   9.314 -0.6476  0.0475  0.5216
  138SAPE  C31115062   2.394   0.903   9.134 -0.2183  0.6640  0.2865
  138SAPE  H11X15063   2.455   0.971   9.071 -0.8612  1.0801  0.1051
  138SAPE  H11Y15064   2.292   0.948   9.134  0.0424  1.2642  0.3321
  138SAPE  C31215065   2.384   0.774   9.056 -0.3899  0.5293 -0.1172
  138SAPE  H12X15066   2.323   0.701   9.114  2.5758 -0.8553  1.4262
  138SAPE  H12Y15067   2.485   0.730   9.043  0.9414  3.5033 -0.2036
  138SAPE  C31315068   2.319   0.778   8.914 -0.5405  0.1231 -0.1602
  138SAPE  H13X15069   2.323   0.679   8.863  1.2840  0.7364 -1.2580
  138SAPE  H13Y15070   2.381   0.840   8.845 -1.5992  0.4772 -0.7936
  138SAPE  C31415071   2.168   0.817   8.932  0.0518  0.0967 -0.6862
  138SAPE  H14X15072   2.155   0.916   8.981 -0.7062 -0.2748 -0.1256
  138SAPE  H14Y15073   2.129   0.742   9.004 -1.4438  2.5201  1.1254
  138SAPE  C31515074   2.088   0.805   8.802  0.2423  0.7012  0.1462
  138SAPE  H15X15075   2.127   0.712   8.755 -1.8525 -0.2498  0.2117
  138SAPE  H15Y15076   2.117   0.890   8.737  1.1162  0.4991  0.2683
  138SAPE  C31615077   1.936   0.819   8.824  0.1845  0.1436  0.7660
  138SAPE  H16X15078   1.930   0.908   8.890 -0.0072 -0.4359  1.5277
  138SAPE  H16Y15079   1.893   0.731   8.875 -0.8894  0.7091  0.8400
  138SAPE  C31715080   1.854   0.865   8.698  0.5773  0.1373  0.1665
  138SAPE  H17X15081   1.906   0.953   8.654  2.0145 -0.9695 -0.3600
  138SAPE  H17Y15082   1.757   0.906   8.735  0.9725  0.8836  0.3980
  138SAPE  C31815083   1.827   0.758   8.600 -0.0650 -0.0073 -0.7272
  138SAPE  H18X15084   1.755   0.690   8.651 -2.4656  1.0195 -2.6706
  138SAPE  H18Y15085   1.921   0.708   8.568 -0.0032  0.7064 -1.6859
  138SAPE  H18Z15086   1.778   0.806   8.513 -1.5426 -0.3221 -0.0793
  139SAPE     N15087   1.171   5.806  10.781 -0.2460  0.3420 -0.2137
  139SAPE   HN115088   1.087   5.851  10.824 -0.4953  1.1177 -1.4899
  139SAPE   HN215089   1.163   5.702  10.785 -0.9936  0.3484 -1.1917
  139SAPE   HN315090   1.255   5.828  10.837  0.9286 -1.0710 -1.3749
  139SAPE   C1215091   1.195   5.844  10.641  0.5266 -0.2784  0.1187
  139SAPE  H12A15092   1.211   5.954  10.640 -2.9262  0.2871 -2.0686
  139SAPE  H12B15093   1.101   5.817  10.590  1.3921 -1.1031 -1.0460
  139SAPE   C1115094   1.317   5.775  10.581  0.7304  0.2811 -0.1756
  139SAPE  H11A15095   1.328   5.794  10.472 -0.1578  0.0472 -0.3042
  139SAPE  H11B15096   1.288   5.669  10.594 -1.2044  0.9799  1.5072
  139SAPE     P15097   1.528   5.929  10.612  0.2336  0.0705 -0.2222
  139SAPE   O1315098   1.461   6.052  10.661 -0.0170  0.5233 -0.4321
  139SAPE   O1415099   1.660   5.896  10.675  0.0864 -0.2139  0.0581
  139SAPE   O1215100   1.438   5.807  10.644  0.2675  0.3421  0.2167
  139SAPE   O1115101   1.534   5.938  10.459  0.5691  0.3821  0.6277
  139SAPE    C115102   1.594   5.841  10.373  0.3948 -0.0553  0.0607
  139SAPE    HA15103   1.596   5.746  10.432  0.5925 -0.0694  0.0305
  139SAPE    HB15104   1.542   5.837  10.276  1.6454  0.2355 -0.6333
  139SAPE    C215105   1.737   5.880  10.341 -0.0969  0.1900 -0.0764
  139SAPE    HS15106   1.781   5.885  10.443  0.1077 -2.4941  0.0046
  139SAPE   O2115107   1.757   6.004  10.266  0.5836 -0.0365 -0.1182
  139SAPE   C2115108   1.766   6.116  10.330 -0.0451  0.1116  0.0892
  139SAPE   O2215109   1.749   6.133  10.450 -0.0590  0.2586  0.3969
  139SAPE   C2215110   1.772   6.248  10.240 -0.5248  0.0303  0.2973
  139SAPE   H2R15111   1.847   6.316  10.286 -0.2435  0.5237 -0.8791
  139SAPE   H2S15112   1.812   6.217  10.140 -0.2828  0.1495  0.3556
  139SAPE    C315113   1.802   5.775  10.257  0.6831 -0.1487 -0.1945
  139SAPE    HX15114   1.904   5.810  10.230 -0.2434  2.9490  0.1098
  139SAPE    HY15115   1.753   5.757  10.159  1.1442 -2.5437 -0.0158
  139SAPE   O3115116   1.801   5.644  10.326 -0.0434 -0.6521  0.2393
  139SAPE   C3115117   1.887   5.550  10.291  0.1085 -0.5670  0.5006
  139SAPE   O3215118   1.973   5.562  10.201 -0.2443 -0.1850 -0.0761
  139SAPE   C3215119   1.858   5.422  10.364  0.2841 -0.1295 -0.0534
  139SAPE   H2X15120   1.751   5.408  10.391  0.7077 -3.2182  0.2778
  139SAPE   H2Y15121   1.922   5.425  10.455 -0.0477  0.3638  0.1627
  139SAPE   C2315122   1.637   6.319  10.243  0.1579  0.5144 -0.4355
  139SAPE   H3R15123   1.600   6.336  10.346 -1.7008  1.3858 -1.2224
  139SAPE   H3S15124   1.565   6.254  10.189  0.9538 -2.2875  1.7425
  139SAPE   C2415125   1.644   6.464  10.180 -0.0998 -0.4328 -0.1844
  139SAPE   H4R15126   1.700   6.528  10.251 -0.3915  1.6668 -1.8051
  139SAPE   H4S15127   1.542   6.508  10.188 -1.5373 -2.9453 -3.4705
  139SAPE   C2515128   1.698   6.479  10.037 -0.0203 -0.1615 -0.0231
  139SAPE   H5R15129   1.784   6.415  10.013  0.4577  0.1195  0.9015
  139SAPE   C2615130   1.670   6.576   9.952 -0.5176 -0.1909 -0.5707
  139SAPE   H6R15131   1.726   6.569   9.857 -0.3130  1.5698 -0.6047
  139SAPE   C2715132   1.568   6.685   9.950 -0.1831 -0.2365 -0.5274
  139SAPE   H7R15133   1.604   6.773   9.893 -0.9368 -0.8075 -1.9057
  139SAPE   H7S15134   1.554   6.723  10.054 -0.5978  0.6441 -0.8945
  139SAPE   C2815135   1.435   6.641   9.920  0.4534  0.7168 -0.2112
  139SAPE   H8R15136   1.383   6.577   9.991 -0.4309  1.0930 -0.5153
  139SAPE   C2915137   1.361   6.678   9.813  0.3729  0.1864  0.2547
  139SAPE   H9R15138   1.254   6.652   9.820  0.5507 -1.2673 -1.9344
  139SAPE  C21015139   1.398   6.761   9.695  0.6279  0.4368  0.1251
  139SAPE  H10R15140   1.373   6.695   9.609  0.7548  2.9795 -1.9091
  139SAPE  H10S15141   1.508   6.769   9.680  0.6933 -1.4874 -0.5848
  139SAPE  C21115142   1.335   6.899   9.699  0.6486  0.0734  0.0496
  139SAPE  H11R15143   1.377   6.972   9.769 -0.6655 -0.9108  1.9044
  139SAPE  C21215144   1.243   6.951   9.618 -0.3909  0.5889  0.1107
  139SAPE  H12R15145   1.213   7.056   9.635  2.1419  1.7241 -2.1102
  139SAPE  C21315146   1.181   6.875   9.504 -0.5293  0.2916 -0.5077
  139SAPE  H13R15147   1.075   6.905   9.490 -0.5435  0.8787  0.8110
  139SAPE  H13S15148   1.181   6.768   9.533 -1.4685 -0.4670 -3.1823
  139SAPE  C21415149   1.258   6.888   9.378  0.1723 -0.7558 -0.5652
  139SAPE  H14R15150   1.359   6.848   9.392 -0.0631 -1.2732 -0.3158
  139SAPE  C21515151   1.214   6.933   9.262 -0.3920  0.0818  0.2702
  139SAPE  H15R15152   1.290   6.926   9.183 -1.2745 -1.4284 -0.4758
  139SAPE  C21615153   1.079   6.978   9.214  0.2860  0.1602  0.8728
  139SAPE  H16R15154   1.091   7.085   9.184 -0.7728 -0.1153 -0.6184
  139SAPE  H16S15155   1.004   6.963   9.294 -0.6762 -1.4763 -0.3069
  139SAPE  C21715156   1.040   6.901   9.086  0.4090  0.4388 -0.1161
  139SAPE  H17R15157   1.049   6.795   9.117  2.5096  0.1940 -1.4566
  139SAPE  H17S15158   1.104   6.912   8.996  0.2444 -2.2421 -0.5863
  139SAPE  C21815159   0.890   6.918   9.050  0.6617  0.1037  0.3683
  139SAPE  H18R15160   0.872   7.019   9.008 -0.9100 -0.9087 -1.4104
  139SAPE  H18S15161   0.842   6.907   9.150 -0.9506  0.7420 -0.3117
  139SAPE  C21915162   0.824   6.805   8.967  0.5860 -0.1474  0.6000
  139SAPE  H19R15163   0.859   6.816   8.862 -0.9384  4.3230  0.4616
  139SAPE  H19S15164   0.715   6.824   8.969  1.0259  2.9884 -1.4739
  139SAPE  C22015165   0.852   6.661   9.010 -0.1377 -0.0569  0.2919
  139SAPE  H20R15166   0.952   6.619   8.986 -0.0705  0.8520 -1.1059
  139SAPE  H20S15167   0.781   6.591   8.960 -0.1912 -1.5908  2.4808
  139SAPE  H20T15168   0.840   6.644   9.119 -2.3355 -0.5013 -0.0080
  139SAPE   C3315169   1.895   5.290  10.299  0.5863  0.3276  0.2755
  139SAPE   H3X15170   1.887   5.212  10.378  0.1329  1.7494  1.6611
  139SAPE   H3Y15171   2.002   5.284  10.271  0.3308 -1.1408 -0.4633
  139SAPE   C3415172   1.812   5.246  10.170 -0.2303 -0.9504  0.7466
  139SAPE   H4X15173   1.702   5.258  10.184 -0.1087 -1.0399  1.8404
  139SAPE   H4Y15174   1.822   5.135  10.168 -1.0387 -1.0340  1.2116
  139SAPE   C3515175   1.877   5.299  10.042 -0.2392  0.7382  0.7582
  139SAPE   H5X15176   1.979   5.254  10.051 -0.8892 -0.9379  0.1076
  139SAPE   H5Y15177   1.899   5.408  10.038 -1.2287  1.0214  2.8479
  139SAPE   C3615178   1.804   5.269   9.912  0.7172  0.2488  0.2187
  139SAPE   H6X15179   1.710   5.329   9.908  0.9584  0.5430 -1.2015
  139SAPE   H6Y15180   1.768   5.164   9.917 -0.6978  0.6249 -1.6271
  139SAPE   C3715181   1.878   5.299   9.786  0.0857 -0.2418 -0.4623
  139SAPE   H7X15182   1.978   5.252   9.796  0.0793  0.0816  1.1959
  139SAPE   H7Y15183   1.897   5.406   9.765 -1.8102  0.4519  1.2081
  139SAPE   C3815184   1.810   5.244   9.661  0.4334 -0.2184 -0.5338
  139SAPE   H8X15185   1.714   5.290   9.629 -0.7319 -1.4812  1.0468
  139SAPE   H8Y15186   1.784   5.138   9.682 -0.8553 -0.3457 -2.6446
  139SAPE   C3915187   1.909   5.268   9.546 -0.5684 -0.5703 -0.2109
  139SAPE   H9X15188   2.010   5.222   9.555 -0.5216 -0.5581 -0.6851
  139SAPE   H9Y15189   1.938   5.375   9.553 -3.6714  0.3626 -0.7328
  139SAPE  C31015190   1.850   5.238   9.409  0.4299 -0.1299  0.2220
  139SAPE  H10X15191   1.756   5.289   9.379  1.4618  2.0104  0.5433
  139SAPE  H10Y15192   1.816   5.133   9.390  0.8079 -0.2107 -0.0088
  139SAPE  C31115193   1.957   5.275   9.299  0.1021  0.0496  0.0980
  139SAPE  H11X15194   2.052   5.218   9.313  0.0546  0.2749  1.3525
  139SAPE  H11Y15195   1.981   5.384   9.302  0.9681 -0.1141 -0.6465
  139SAPE  C31215196   1.900   5.255   9.155  0.3116 -0.0702 -0.9376
  139SAPE  H12X15197   1.813   5.318   9.128 -2.5510 -3.3065  0.4732
  139SAPE  H12Y15198   1.882   5.145   9.148  2.6347 -0.8978  3.7748
  139SAPE  C31315199   2.007   5.299   9.054 -0.1442  0.6782 -0.0331
  139SAPE  H13X15200   2.102   5.246   9.077 -0.6232 -0.1465  0.0561
  139SAPE  H13Y15201   2.037   5.406   9.065  0.2433  0.5165  0.5290
  139SAPE  C31415202   1.963   5.255   8.910 -0.4100 -0.3050 -0.2155
  139SAPE  H14X15203   1.952   5.145   8.901 -2.5397 -0.0228 -1.4537
  139SAPE  H14Y15204   2.048   5.290   8.847 -1.8427  0.5697 -1.7144
  139SAPE  C31515205   1.837   5.332   8.856 -0.2000  0.5328  0.3859
  139SAPE  H15X15206   1.875   5.435   8.871  2.3970  0.2800 -3.7399
  139SAPE  H15Y15207   1.742   5.310   8.909  1.2246 -2.6271  1.7323
  139SAPE  C31615208   1.810   5.302   8.705  0.0169 -0.3474  0.1204
  139SAPE  H16X15209   1.822   5.194   8.680 -2.0978 -0.7596  0.7790
  139SAPE  H16Y15210   1.702   5.324   8.691  0.3783  1.3661 -0.0785
  139SAPE  C31715211   1.901   5.393   8.605  0.5198  0.1923 -0.6400
  139SAPE  H17X15212   1.911   5.498   8.638 -0.3630  0.3548 -0.8729
  139SAPE  H17Y15213   1.830   5.401   8.520 -0.4854  0.2767  0.1976
  139SAPE  C31815214   2.034   5.331   8.571 -0.4770 -0.1768 -1.0074
  139SAPE  H18X15215   2.097   5.309   8.660 -1.9160  3.2185  0.9549
  139SAPE  H18Y15216   2.089   5.401   8.504  1.9000 -0.0984  0.9599
  139SAPE  H18Z15217   2.022   5.230   8.527  0.0801 -1.2931  1.3504
  140SAPE     N15218   5.415   2.444  10.698  0.1485  0.4450  0.4731
  140SAPE   HN115219   5.334   2.383  10.674 -0.3803  1.1949  0.3572
  140SAPE   HN215220   5.431   2.496  10.609 -3.1954 -1.5672 -1.4312
  140SAPE   HN315221   5.497   2.385  10.723 -0.8424  0.1000  3.0164
  140SAPE   C1215222   5.390   2.523  10.820 -0.0517 -0.1304 -0.2104
  140SAPE  H12A15223   5.371   2.461  10.910  3.9470  0.2498  0.9706
  140SAPE  H12B15224   5.302   2.588  10.798  0.7158  0.9231 -0.2013
  140SAPE   C1115225   5.516   2.611  10.849 -0.1646 -0.4008 -0.1322
  140SAPE  H11A15226   5.506   2.640  10.955 -3.9992  2.1785 -1.0793
  140SAPE  H11B15227   5.518   2.700  10.783 -0.2576  0.9916  1.7389
  140SAPE     P15228   5.783   2.579  10.876  0.2261 -0.3826  0.7467
  140SAPE   O1315229   5.777   2.659  10.997 -0.8114  0.0127  0.3544
  140SAPE   O1415230   5.861   2.453  10.887 -0.5445  1.0300  0.0378
  140SAPE   O1215231   5.637   2.529  10.834  0.5922 -0.4297  0.0739
  140SAPE   O1115232   5.829   2.671  10.754  0.6540 -0.4728 -0.4116
  140SAPE    C115233   5.853   2.605  10.625 -0.6694 -0.1859 -0.0853
  140SAPE    HA15234   5.940   2.637  10.564 -1.9507 -0.6041 -2.1867
  140SAPE    HB15235   5.881   2.499  10.644 -1.0301 -0.1664  0.5818
  140SAPE    C215236   5.725   2.610  10.530 -0.8621 -0.1045 -0.3174
  140SAPE    HS15237   5.640   2.596  10.600 -1.1486  1.7598 -0.2460
  140SAPE   O2115238   5.729   2.496  10.440 -0.3238 -0.5487  0.2260
  140SAPE   C2115239   5.606   2.465  10.395  0.0881 -0.1370 -0.1012
  140SAPE   O2215240   5.501   2.500  10.440  0.4661 -0.0663  0.4561
  140SAPE   C2215241   5.616   2.376  10.275 -0.4604  0.0341  0.1169
  140SAPE   H2R15242   5.720   2.337  10.264 -0.8746 -0.9624 -0.2699
  140SAPE   H2S15243   5.548   2.290  10.293 -0.2211 -0.0549  0.6138
  140SAPE    C315244   5.725   2.754  10.467 -0.1605  0.0542  0.0286
  140SAPE    HX15245   5.829   2.759  10.428  0.4262 -2.1589  1.2270
  140SAPE    HY15246   5.709   2.835  10.541 -0.8246  0.7882 -0.8962
  140SAPE   O3115247   5.636   2.759  10.357 -0.1175  0.6051  0.0084
  140SAPE   C3115248   5.512   2.807  10.385  0.3567 -0.6342  0.4413
  140SAPE   O3215249   5.471   2.825  10.498  0.3959 -0.4306 -0.0043
  140SAPE   C3215250   5.438   2.836  10.259  0.0875  0.3317  0.1431
  140SAPE   H2X15251   5.330   2.839  10.284 -0.0186  2.2587 -0.3934
  140SAPE   H2Y15252   5.456   2.748  10.194 -0.1891  0.0984  0.3857
  140SAPE   C2315253   5.588   2.465  10.143  0.1765 -0.3405  0.4998
  140SAPE   H3R15254   5.679   2.493  10.085 -0.5315  0.0638 -0.4381
  140SAPE   H3S15255   5.551   2.566  10.167  2.2590  0.2569  1.2916
  140SAPE   C2415256   5.478   2.408  10.057  0.0469  0.4578  0.4393
  140SAPE   H4R15257   5.454   2.484   9.980  2.2382 -0.1256 -0.8756
  140SAPE   H4S15258   5.396   2.385  10.128  0.9777 -1.8658  0.8218
  140SAPE   C2515259   5.539   2.283   9.996  0.3852  0.2850 -0.0704
  140SAPE   H5R15260   5.552   2.204  10.070 -0.6968  1.4056  1.3481
  140SAPE   C2615261   5.593   2.257   9.877  0.0305 -0.1291 -0.4080
  140SAPE   H6R15262   5.654   2.167   9.864  0.9829  0.1605  1.7770
  140SAPE   C2715263   5.597   2.354   9.765  1.1387 -0.0878  0.6637
  140SAPE   H7R15264   5.697   2.334   9.721  0.6794  0.2102 -0.5261
  140SAPE   H7S15265   5.601   2.455   9.812 -2.4301 -0.5881  2.1695
  140SAPE   C2815266   5.474   2.329   9.680 -0.3639  0.2637  0.0521
  140SAPE   H8R15267   5.373   2.323   9.723 -0.6166  0.9904 -0.4214
  140SAPE   C2915268   5.482   2.310   9.544 -0.5966 -0.2066  0.1212
  140SAPE   H9R15269   5.393   2.280   9.487 -1.8118  1.6413  1.0232
  140SAPE  C21015270   5.608   2.326   9.461 -0.5646  0.1388 -0.0313
  140SAPE  H10R15271   5.637   2.224   9.426  1.4483  0.4654  0.5902
  140SAPE  H10S15272   5.696   2.359   9.521 -0.1207 -1.4037  0.1941
  140SAPE  C21115273   5.553   2.417   9.358 -0.4747 -0.3492 -0.5978
  140SAPE  H11R15274   5.515   2.508   9.407  0.6627 -1.0973  1.7889
  140SAPE  C21215275   5.540   2.400   9.229  0.0281  0.0268 -0.5443
  140SAPE  H12R15276   5.497   2.481   9.168 -1.9522  0.5627  1.4948
  140SAPE  C21315277   5.596   2.285   9.144  0.2499 -0.0549  0.5889
  140SAPE  H13R15278   5.524   2.212   9.101 -1.1831  2.1313 -0.8781
  140SAPE  H13S15279   5.670   2.227   9.202 -1.7754 -2.0448  1.2751
  140SAPE  C21415280   5.670   2.349   9.025  0.2732 -0.6086 -0.1977
  140SAPE  H14R15281   5.746   2.426   9.047 -1.2406 -0.2711  4.2983
  140SAPE  C21515282   5.643   2.317   8.896 -0.5755  0.2583 -0.7174
  140SAPE  H15R15283   5.700   2.364   8.815 -0.4613  1.9779  0.3319
  140SAPE  C21615284   5.536   2.223   8.848 -0.0727 -0.2738  0.1644
  140SAPE  H16R15285   5.453   2.219   8.922 -1.4936  2.6712 -1.1996
  140SAPE  H16S15286   5.575   2.119   8.840  0.7457  0.2430 -3.3094
  140SAPE  C21715287   5.493   2.273   8.706 -0.3388  0.1282  0.3579
  140SAPE  H17R15288   5.572   2.308   8.637 -2.0404  0.3565 -1.5193
  140SAPE  H17S15289   5.436   2.367   8.723  1.2272  1.0118  0.8319
  140SAPE  C21815290   5.412   2.170   8.622 -0.4962 -0.8356 -0.4568
  140SAPE  H18R15291   5.350   2.135   8.707  1.7939 -0.7852  1.3039
  140SAPE  H18S15292   5.479   2.088   8.587  1.4131  0.6696 -0.4329
  140SAPE  C21915293   5.331   2.227   8.506  0.6618 -0.2813  0.4021
  140SAPE  H19R15294   5.411   2.265   8.439  0.0570  2.8141  1.3648
  140SAPE  H19S15295   5.263   2.307   8.543  0.9395  0.4678 -0.6705
  140SAPE  C22015296   5.253   2.114   8.443  0.0519 -0.5459  0.0765
  140SAPE  H20R15297   5.192   2.150   8.358 -0.6277 -0.1095  0.7427
  140SAPE  H20S15298   5.180   2.075   8.518 -1.0592 -0.0037 -0.7133
  140SAPE  H20T15299   5.325   2.038   8.405 -0.2867 -1.3997  1.0991
  140SAPE   C3315300   5.465   2.960  10.176  0.4290  0.2284  0.2892
  140SAPE   H3X15301   5.573   2.958  10.151 -0.1435 -2.1922 -2.3143
  140SAPE   H3Y15302   5.444   3.046  10.243  0.4314  1.7539 -1.6153
  140SAPE   C3415303   5.389   2.970  10.033 -0.2796  0.1931 -0.2161
  140SAPE   H4X15304   5.412   3.075  10.005  2.6157 -0.2077  0.4243
  140SAPE   H4Y15305   5.282   2.952  10.057  0.6328 -1.1531  3.0632
  140SAPE   C3515306   5.441   2.864   9.941 -0.3394 -0.4575 -0.2338
  140SAPE   H5X15307   5.428   2.761   9.981  0.6705 -0.4919  0.0171
  140SAPE   H5Y15308   5.551   2.875   9.948 -0.3190 -1.5276  1.5533
  140SAPE   C3615309   5.395   2.861   9.794  0.0454 -0.4898 -0.4621
  140SAPE   H6X15310   5.430   2.948   9.734 -0.3869  0.6075  0.8287
  140SAPE   H6Y15311   5.285   2.867   9.801 -0.1184  1.1500 -3.6362
  140SAPE   C3715312   5.451   2.737   9.734  0.6147  0.4492 -0.3127
  140SAPE   H7X15313   5.386   2.654   9.769  0.1868  0.5188 -0.9348
  140SAPE   H7Y15314   5.553   2.714   9.772  0.3867  1.7234  1.1066
  140SAPE   C3815315   5.460   2.732   9.579  0.0866 -0.0146 -0.3958
  140SAPE   H8X15316   5.465   2.622   9.563 -2.7353 -0.4042  1.0320
  140SAPE   H8Y15317   5.546   2.785   9.533  0.3639 -0.3765 -0.3052
  140SAPE   C3915318   5.348   2.793   9.497  0.4156 -0.4336  0.3352
  140SAPE   H9X15319   5.366   2.903   9.506 -1.4513 -0.0492 -0.4170
  140SAPE   H9Y15320   5.253   2.770   9.549 -0.4013  0.8896 -0.5294
  140SAPE  C31015321   5.354   2.753   9.354 -0.8389 -0.2830  0.1655
  140SAPE  H10X15322   5.259   2.787   9.308 -1.2712 -1.3173  0.2900
  140SAPE  H10Y15323   5.348   2.646   9.328 -1.6836 -0.1895 -0.0477
  140SAPE  C31115324   5.450   2.836   9.267  0.0950 -0.2016 -0.3026
  140SAPE  H11X15325   5.550   2.830   9.316 -0.3954  1.1289  0.8852
  140SAPE  H11Y15326   5.415   2.941   9.274 -2.3161 -1.0588  0.9123
  140SAPE  C31215327   5.473   2.795   9.125  0.2448  0.6458  0.4883
  140SAPE  H12X15328   5.381   2.795   9.064 -0.1792  1.8194  1.1100
  140SAPE  H12Y15329   5.513   2.691   9.123  1.4810  1.0959  1.2917
  140SAPE  C31315330   5.577   2.881   9.057  0.0296  0.1385 -0.3622
  140SAPE  H13X15331   5.596   2.816   8.969  2.2058 -1.5812  1.3307
  140SAPE  H13Y15332   5.668   2.887   9.120  0.1572  2.7354 -0.7585
  140SAPE  C31415333   5.543   3.019   9.005  0.4653 -0.7645  0.5515
  140SAPE  H14X15334   5.629   3.061   8.949 -0.0181  1.4020  1.3696
  140SAPE  H14Y15335   5.518   3.088   9.089 -2.9085  0.4620 -1.3604
  140SAPE  C31515336   5.421   3.036   8.906 -0.1415 -0.3160  0.2593
  140SAPE  H15X15337   5.336   3.084   8.958 -0.3211  0.6100 -0.8457
  140SAPE  H15Y15338   5.398   2.932   8.876  0.1285 -0.3765  0.2651
  140SAPE  C31615339   5.463   3.119   8.780 -1.1243  0.0051 -0.3807
  140SAPE  H16X15340   5.551   3.072   8.732 -0.3086  1.1828 -0.0430
  140SAPE  H16Y15341   5.494   3.220   8.814  1.0753 -1.5905  2.5572
  140SAPE  C31715342   5.347   3.122   8.674 -0.3019  0.1524  0.9626
  140SAPE  H17X15343   5.248   3.135   8.723  0.3870  0.8704  2.1959
  140SAPE  H17Y15344   5.344   3.027   8.616 -1.3191  1.3132 -0.9517
  140SAPE  C31815345   5.363   3.243   8.583 -0.0386  0.0243  0.0037
  140SAPE  H18X15346   5.331   3.335   8.636 -0.1111  0.2366 -0.4095
  140SAPE  H18Y15347   5.325   3.229   8.480 -0.5554  0.8379  0.0802
  140SAPE  H18Z15348   5.473   3.250   8.563 -0.1651  0.1868 -0.6455
  141SAPE     N15349   5.834   4.045  10.624  0.0144  0.1187 -0.0251
  141SAPE   HN115350   5.828   4.141  10.583  1.3769  0.0627 -0.3803
  141SAPE   HN215351   5.757   4.034  10.692  0.8095 -0.4642  0.8007
  141SAPE   HN315352   5.918   4.045  10.686  1.0618  2.3419 -1.3442
  141SAPE   C1215353   5.834   3.926  10.529 -0.0392  0.5374  0.3344
  141SAPE  H12A15354   5.932   3.935  10.477 -0.2716 -0.5170 -0.2960
  141SAPE  H12B15355   5.762   3.943  10.446  2.0945 -0.1245 -1.7008
  141SAPE   C1115356   5.783   3.799  10.606  0.2958 -0.2889  0.2957
  141SAPE  H11A15357   5.869   3.747  10.654  1.3733  1.5572  0.4013
  141SAPE  H11B15358   5.747   3.740  10.519 -0.2537 -3.7736  2.7919
  141SAPE     P15359   5.599   3.690  10.744 -0.3232 -0.2492  0.1556
  141SAPE   O1315360   5.699   3.608  10.821 -0.1397  0.1524  0.4289
  141SAPE   O1415361   5.473   3.733  10.814 -0.4367  0.3321  0.9592
  141SAPE   O1215362   5.678   3.825  10.691 -0.2182 -0.6712  0.6543
  141SAPE   O1115363   5.561   3.619  10.608  0.3147  0.0315  0.1897
  141SAPE    C115364   5.464   3.654  10.512 -0.1348  0.3986  0.3831
  141SAPE    HA15365   5.362   3.625  10.546  1.1743 -3.8857  0.8773
  141SAPE    HB15366   5.467   3.765  10.511 -0.5654  0.4925  3.4123
  141SAPE    C215367   5.514   3.597  10.378  0.3038  0.2149  0.1946
  141SAPE    HS15368   5.625   3.592  10.371  0.4067  0.1853  1.6637
  141SAPE   O2115369   5.460   3.685  10.277 -0.4536  0.4218  0.2124
  141SAPE   C2115370   5.551   3.775  10.227  0.4706 -0.2744  0.5354
  141SAPE   O2215371   5.673   3.770  10.238  0.4481  0.0469  0.1018
  141SAPE   C2215372   5.473   3.877  10.151  0.4137  0.1820 -0.1182
  141SAPE   H2R15373   5.397   3.926  10.215  0.1316  1.5952 -1.5127
  141SAPE   H2S15374   5.542   3.958  10.120  2.1676 -1.1017  0.3329
  141SAPE    C315375   5.460   3.447  10.362  0.0746 -0.0180 -0.2022
  141SAPE    HX15376   5.350   3.453  10.351  0.2118  0.0985 -1.5978
  141SAPE    HY15377   5.500   3.403  10.456 -2.7635 -0.1195  0.9952
  141SAPE   O3115378   5.519   3.390  10.236  1.3067 -1.0468 -0.1515
  141SAPE   C3115379   5.630   3.329  10.240  0.2226  0.3642  0.2406
  141SAPE   O3215380   5.697   3.301  10.339 -0.3145 -0.0510  0.3580
  141SAPE   C3215381   5.672   3.296  10.101 -0.9799  0.6829  0.6233
  141SAPE   H2X15382   5.699   3.396  10.060  1.8884 -0.8034 -1.2667
  141SAPE   H2Y15383   5.590   3.245  10.047 -1.9723  3.4214 -0.5371
  141SAPE   C2315384   5.406   3.824  10.016  0.5357  0.5038  0.1412
  141SAPE   H3R15385   5.329   3.897   9.981  0.1228  0.4879  1.0017
  141SAPE   H3S15386   5.363   3.723  10.034  0.2068  0.5484 -0.3634
  141SAPE   C2415387   5.518   3.822   9.904  0.2918  0.1576 -0.0617
  141SAPE   H4R15388   5.599   3.756   9.942  1.0921  2.0560  1.6468
  141SAPE   H4S15389   5.563   3.922   9.884  1.1343  0.2965  2.3090
  141SAPE   C2515390   5.471   3.751   9.776 -1.0834 -0.4171  0.0554
  141SAPE   H5R15391   5.419   3.810   9.700 -1.0560  1.0622  1.1557
  141SAPE   C2615392   5.479   3.622   9.752 -0.5551 -0.2486  0.4610
  141SAPE   H6R15393   5.465   3.586   9.650 -0.4382 -3.1333  1.4387
  141SAPE   C2715394   5.531   3.517   9.853 -0.5201  0.1062  0.7536
  141SAPE   H7R15395   5.601   3.564   9.926 -0.6937  0.5261  0.6530
  141SAPE   H7S15396   5.579   3.430   9.804  0.0508  1.9999 -2.1381
  141SAPE   C2815397   5.417   3.464   9.938  0.3442  0.8387  0.2612
  141SAPE   H8R15398   5.401   3.514  10.035 -0.3341  3.5178 -1.1828
  141SAPE   C2915399   5.319   3.382   9.896 -0.0927 -0.4961 -0.3227
  141SAPE   H9R15400   5.231   3.375   9.962 -0.5318  0.4899 -0.7885
  141SAPE  C21015401   5.307   3.320   9.757  0.0812 -0.3609 -0.0510
  141SAPE  H10R15402   5.320   3.211   9.772 -0.6859 -0.2776  1.2965
  141SAPE  H10S15403   5.382   3.373   9.695  1.4364 -2.4252 -0.2049
  141SAPE  C21115404   5.167   3.333   9.702  0.0019  0.5702 -0.2112
  141SAPE  H11R15405   5.088   3.323   9.777  0.6933 -1.8580  0.2292
  141SAPE  C21215406   5.131   3.355   9.576  0.0445 -0.2633  0.0413
  141SAPE  H12R15407   5.026   3.381   9.554 -0.0795 -0.9121 -0.1233
  141SAPE  C21315408   5.234   3.387   9.465 -0.3021  0.1963  0.4073
  141SAPE  H13R15409   5.308   3.460   9.502 -1.4968  1.2514  0.7380
  141SAPE  H13S15410   5.177   3.441   9.387  0.1890 -0.7239 -0.6171
  141SAPE  C21415411   5.313   3.267   9.420  0.1026  0.8988  0.4823
  141SAPE  H14R15412   5.301   3.171   9.472  0.9447 -0.2947 -1.4863
  141SAPE  C21515413   5.383   3.267   9.301  0.4338  0.7406 -0.4130
  141SAPE  H15R15414   5.439   3.177   9.272  2.2098  2.5026 -2.5462
  141SAPE  C21615415   5.390   3.384   9.212  0.2363 -0.3309  0.0773
  141SAPE  H16R15416   5.493   3.371   9.171 -0.2496  1.8074 -1.9604
  141SAPE  H16S15417   5.395   3.480   9.269  1.2980 -1.0436  1.2134
  141SAPE  C21715418   5.284   3.391   9.104 -0.4955  0.6243  0.8520
  141SAPE  H17R15419   5.178   3.410   9.134 -0.5295  0.9471  0.5357
  141SAPE  H17S15420   5.279   3.287   9.066  0.2494  0.9467 -0.1594
  141SAPE  C21815421   5.330   3.485   8.991 -1.0526 -0.2640  0.6107
  141SAPE  H18R15422   5.272   3.476   8.897  0.5422 -1.7414 -0.2552
  141SAPE  H18S15423   5.431   3.455   8.955 -1.5404 -1.2966  0.1139
  141SAPE  C21915424   5.350   3.633   9.032  0.6909  0.4181  0.7928
  141SAPE  H19R15425   5.432   3.647   9.105  0.6128  0.5374  0.8558
  141SAPE  H19S15426   5.251   3.668   9.069  0.4171  2.3572 -1.6585
  141SAPE  C22015427   5.368   3.724   8.915 -0.7785 -0.1437  0.3976
  141SAPE  H20R15428   5.374   3.828   8.953 -1.1940  0.2007 -0.4834
  141SAPE  H20S15429   5.287   3.714   8.841 -1.2810 -1.4233  1.0913
  141SAPE  H20T15430   5.461   3.702   8.858  0.5434  0.1068  2.3851
  141SAPE   C3315431   5.797   3.206  10.095  0.2468  0.5843 -0.0667
  141SAPE   H3X15432   5.779   3.112  10.151  0.5168  0.2399 -0.5482
  141SAPE   H3Y15433   5.886   3.252  10.143 -0.2631  1.1665  0.3276
  141SAPE   C3415434   5.844   3.167   9.948  0.3036 -0.0067 -0.1364
  141SAPE   H4X15435   5.931   3.098   9.959  0.3050 -0.0944 -0.7205
  141SAPE   H4Y15436   5.886   3.259   9.901 -0.2994  0.5116  0.3245
  141SAPE   C3515437   5.741   3.115   9.842 -0.0642  0.3105  0.1410
  141SAPE   H5X15438   5.659   3.187   9.823 -1.6698 -1.2390  1.0024
  141SAPE   H5Y15439   5.693   3.023   9.883  0.0482  0.3980  0.4714
  141SAPE   C3615440   5.803   3.086   9.709  0.7854  0.4754  0.2025
  141SAPE   H6X15441   5.880   3.006   9.719 -0.8695 -1.3485 -1.1805
  141SAPE   H6Y15442   5.852   3.183   9.685  3.6202 -0.6653  1.1781
  141SAPE   C3715443   5.690   3.048   9.604 -0.1071 -0.4333  0.2312
  141SAPE   H7X15444   5.603   3.116   9.622 -0.1665 -0.5531  0.3947
  141SAPE   H7Y15445   5.643   2.954   9.638  1.9041 -1.7981 -0.7041
  141SAPE   C3815446   5.727   3.036   9.456 -0.1298  0.6018  1.1413
  141SAPE   H8X15447   5.630   3.012   9.408 -0.1064 -1.0974  1.9328
  141SAPE   H8Y15448   5.809   2.962   9.444  0.5021  1.7792 -2.6825
  141SAPE   C3915449   5.769   3.177   9.391 -0.2935 -0.1389 -0.2269
  141SAPE   H9X15450   5.847   3.230   9.450  1.9844 -0.6431 -2.6818
  141SAPE   H9Y15451   5.685   3.249   9.398  0.2743  0.4173  0.9463
  141SAPE  C31015452   5.799   3.162   9.242  0.5658  0.3098 -0.3000
  141SAPE  H10X15453   5.732   3.089   9.191  1.2856 -0.4697 -0.1463
  141SAPE  H10Y15454   5.905   3.131   9.226  0.5376  0.1145 -0.1124
  141SAPE  C31115455   5.783   3.303   9.187 -0.1403 -0.2104 -0.9058
  141SAPE  H11X15456   5.860   3.366   9.236  0.4052 -1.0643 -0.6417
  141SAPE  H11Y15457   5.688   3.342   9.230  0.8245  0.8518  0.3158
  141SAPE  C31215458   5.781   3.333   9.036 -0.0529 -0.4728 -0.6022
  141SAPE  H12X15459   5.690   3.283   8.996 -0.5367  0.5105 -0.7513
  141SAPE  H12Y15460   5.867   3.285   8.986 -1.0801 -2.3153 -0.6196
  141SAPE  C31315461   5.760   3.487   9.019 -0.3498  0.9956  0.8142
  141SAPE  H13X15462   5.838   3.543   9.076 -0.5310  0.8307  1.2278
  141SAPE  H13Y15463   5.658   3.518   9.050 -0.8877 -1.0481  1.1790
  141SAPE  C31415464   5.772   3.537   8.873 -0.0376  0.9869 -0.3283
  141SAPE  H14X15465   5.691   3.487   8.816 -0.6690  0.1327  1.3025
  141SAPE  H14Y15466   5.861   3.498   8.819 -1.7303 -1.6443 -1.3234
  141SAPE  C31515467   5.774   3.694   8.870  0.0767  0.9649 -0.8129
  141SAPE  H15X15468   5.864   3.743   8.913 -0.2911  2.9591 -2.2927
  141SAPE  H15Y15469   5.689   3.734   8.929  0.5289 -1.0702  1.2914
  141SAPE  C31615470   5.745   3.747   8.726 -0.7783 -0.6144 -0.2697
  141SAPE  H16X15471   5.637   3.736   8.703 -1.0998  1.4797  0.1529
  141SAPE  H16Y15472   5.801   3.692   8.647  2.0679  2.6451 -0.6301
  141SAPE  C31715473   5.778   3.894   8.706  1.0588  0.0745 -0.1757
  141SAPE  H17X15474   5.887   3.906   8.721  1.1858  0.4943 -1.4278
  141SAPE  H17Y15475   5.741   3.963   8.785  0.1811 -0.3879 -0.1715
  141SAPE  C31815476   5.730   3.961   8.579 -0.1513 -0.5206 -0.1604
  141SAPE  H18X15477   5.624   3.942   8.551 -0.2123  0.4045 -0.5810
  141SAPE  H18Y15478   5.793   3.932   8.493 -0.3918 -2.9529  0.4333
  141SAPE  H18Z15479   5.740   4.071   8.594 -0.0774 -0.9784  3.7169
  142SAPE     N15480   6.247   1.689  11.146 -0.3780 -0.8849  0.7130
  142SAPE   HN115481   6.300   1.605  11.177  0.7506 -0.1609  0.7670
  142SAPE   HN215482   6.256   1.760  11.222 -3.1573  0.1713  0.1271
  142SAPE   HN315483   6.147   1.666  11.133 -0.3933 -1.5300  1.9673
  142SAPE   C1215484   6.321   1.756  11.031 -0.1944  0.2386 -0.1041
  142SAPE  H12A15485   6.291   1.706  10.936 -0.7666 -1.0332  0.7225
  142SAPE  H12B15486   6.430   1.741  11.044  0.0167  1.9597  0.2266
  142SAPE   C1115487   6.277   1.908  11.026 -0.1284  0.1403 -0.9852
  142SAPE  H11A15488   6.320   1.958  10.937  0.6981 -0.9348 -1.2050
  142SAPE  H11B15489   6.328   1.948  11.116 -1.5837 -0.4914  0.1400
  142SAPE     P15490   6.079   2.060  11.061  0.2729  0.1642  0.1119
  142SAPE   O1315491   5.953   2.050  11.137 -0.2692 -0.3935 -0.7869
  142SAPE   O1415492   6.174   2.153  11.126  0.6073  0.5187  0.1705
  142SAPE   O1215493   6.140   1.915  11.039  0.1808 -0.4232  0.1165
  142SAPE   O1115494   6.038   2.105  10.915  0.4314 -0.1543 -0.1530
  142SAPE    C115495   5.976   2.021  10.816  0.1307  0.5762 -0.7170
  142SAPE    HA15496   5.985   1.913  10.841  1.0660  1.0910  1.2483
  142SAPE    HB15497   5.876   2.055  10.783  0.3857  0.4153 -1.6674
  142SAPE    C215498   6.056   2.023  10.680  0.0839  0.0058  0.2324
  142SAPE    HS15499   6.162   2.033  10.711 -0.2216  1.1762  0.9467
  142SAPE   O2115500   6.006   2.123  10.592  0.5894  0.2117 -0.4131
  142SAPE   C2115501   6.097   2.182  10.518 -0.3112  0.7068 -0.0019
  142SAPE   O2215502   6.215   2.156  10.517  0.2863  0.5347 -0.3147
  142SAPE   C2215503   6.028   2.290  10.426 -0.5713  0.4659 -0.9636
  142SAPE   H2R15504   5.950   2.244  10.362 -1.4298  0.1486  0.2874
  142SAPE   H2S15505   5.994   2.382  10.477 -1.3096 -0.6151  0.5346
  142SAPE    C315506   6.039   1.888  10.602  0.1264  0.1167 -0.3035
  142SAPE    HX15507   5.932   1.891  10.573 -0.0344  1.8630  0.4188
  142SAPE    HY15508   6.053   1.800  10.668 -2.0072  1.1209  1.5306
  142SAPE   O3115509   6.114   1.886  10.473 -0.3182  0.5111  0.0403
  142SAPE   C3115510   6.241   1.859  10.498 -0.9278  0.2336  0.7554
  142SAPE   O3215511   6.295   1.838  10.606  0.0993  0.0392 -0.3931
  142SAPE   C3215512   6.322   1.840  10.372  0.3931 -0.0167 -0.7437
  142SAPE   H2X15513   6.355   1.734  10.369  1.9578  0.4479  0.1091
  142SAPE   H2Y15514   6.414   1.900  10.388 -0.0001  0.6282 -0.8692
  142SAPE   C2315515   6.137   2.348  10.330  0.1561  0.3207 -0.2055
  142SAPE   H3R15516   6.178   2.274  10.257 -1.0656 -2.3790  1.7278
  142SAPE   H3S15517   6.222   2.380  10.394  1.6729 -0.6449 -1.6755
  142SAPE   C2415518   6.088   2.463  10.238  0.2370  0.5196 -0.2928
  142SAPE   H4R15519   6.185   2.503  10.202 -0.2693  0.2485 -1.9711
  142SAPE   H4S15520   6.041   2.539  10.304 -2.5460  0.0152 -1.6522
  142SAPE   C2515521   6.002   2.412  10.129 -0.3004  0.2290  0.1589
  142SAPE   H5R15522   5.897   2.405  10.161 -0.6623  1.3529 -0.7589
  142SAPE   C2615523   6.037   2.392  10.002 -0.2019 -0.4470 -0.4862
  142SAPE   H6R15524   5.976   2.350   9.921  0.2236  0.2012 -1.1578
  142SAPE   C2715525   6.177   2.405   9.963 -1.1910 -0.6668 -0.1246
  142SAPE   H7R15526   6.239   2.323  10.005 -1.3109 -0.6852  0.0144
  142SAPE   H7S15527   6.227   2.495  10.006 -0.8680 -1.5465  1.3520
  142SAPE   C2815528   6.195   2.420   9.813 -0.2913 -0.2364 -0.2526
  142SAPE   H8R15529   6.108   2.401   9.749  1.0387 -1.2247 -1.8108
  142SAPE   C2915530   6.319   2.415   9.763  0.6045  0.3443 -0.1365
  142SAPE   H9R15531   6.331   2.432   9.654  1.2260  1.7038  0.1317
  142SAPE  C21015532   6.452   2.412   9.831 -0.9491  0.6445  0.3162
  142SAPE  H10R15533   6.443   2.458   9.932 -0.0101 -0.2165  0.8017
  142SAPE  H10S15534   6.507   2.502   9.794 -2.3295  1.8939  1.2312
  142SAPE  C21115535   6.520   2.279   9.817 -0.5381 -0.4420 -1.4083
  142SAPE  H11R15536   6.507   2.227   9.721 -1.5691  0.5113 -1.7954
  142SAPE  C21215537   6.600   2.217   9.913  0.3824  0.0248  0.0248
  142SAPE  H12R15538   6.645   2.117   9.902  0.0582  0.1303 -2.6577
  142SAPE  C21315539   6.634   2.293  10.042 -0.2777  0.1556  0.1032
  142SAPE  H13R15540   6.637   2.404  10.030  0.8376  0.1618  0.3771
  142SAPE  H13S15541   6.737   2.276  10.079 -0.5993 -0.8911  0.5146
  142SAPE  C21415542   6.536   2.248  10.145 -0.2517  0.9274 -0.4090
  142SAPE  H14R15543   6.440   2.232  10.093 -0.7447 -1.1821  1.1207
  142SAPE  C21515544   6.541   2.242  10.284 -0.1876  0.1229  0.6978
  142SAPE  H15R15545   6.463   2.188  10.340 -2.3156  2.2402 -0.1292
  142SAPE  C21615546   6.658   2.270  10.372  0.3558 -0.5426 -0.1219
  142SAPE  H16R15547   6.625   2.324  10.464 -1.1219  0.9273 -1.4798
  142SAPE  H16S15548   6.732   2.334  10.319  2.9686 -1.5565  2.1500
  142SAPE  C21715549   6.725   2.140  10.409 -0.2909 -0.0911  0.3620
  142SAPE  H17R15550   6.822   2.163  10.459 -0.3275 -0.6663  0.7076
  142SAPE  H17S15551   6.756   2.092  10.314 -0.6246  2.0587 -0.8482
  142SAPE  C21815552   6.664   2.039  10.508  0.3241  0.0891  0.0072
  142SAPE  H18R15553   6.556   2.017  10.495  0.0681  0.5791  1.1938
  142SAPE  H18S15554   6.684   2.087  10.607  2.1335  0.2159 -0.4037
  142SAPE  C21915555   6.719   1.895  10.496  0.0375  0.2479  0.1448
  142SAPE  H19R15556   6.828   1.895  10.473  0.5815 -0.0812  2.5469
  142SAPE  H19S15557   6.668   1.846  10.410 -0.4442 -0.3768  0.7825
  142SAPE  C22015558   6.690   1.803  10.617  0.2167  1.0137 -0.5039
  142SAPE  H20R15559   6.748   1.708  10.622 -1.4973 -0.1082 -1.3446
  142SAPE  H20S15560   6.586   1.764  10.623  1.2519 -1.7364  0.8746
  142SAPE  H20T15561   6.700   1.860  10.712  1.1276 -0.7231  0.4697
  142SAPE   C3315562   6.248   1.872  10.238 -0.5546 -0.1313  0.1132
  142SAPE   H3X15563   6.200   1.971  10.253 -0.0244  0.1319  0.0728
  142SAPE   H3Y15564   6.173   1.792  10.221 -0.0266 -0.7283  0.5681
  142SAPE   C3415565   6.358   1.883  10.124 -0.3092 -0.1515 -0.1110
  142SAPE   H4X15566   6.394   1.778  10.118  1.1783  0.2980  0.7111
  142SAPE   H4Y15567   6.448   1.935  10.163  0.2395 -0.6197 -0.7435
  142SAPE   C3515568   6.295   1.925   9.992  0.1876 -0.3942  0.4776
  142SAPE   H5X15569   6.299   2.034   9.976  1.0631 -0.6699 -1.2292
  142SAPE   H5Y15570   6.188   1.894   9.995  0.1844 -0.4247  0.0517
  142SAPE   C3615571   6.372   1.869   9.872  0.1360 -0.1644 -0.0137
  142SAPE   H6X15572   6.375   1.758   9.871  1.2651 -0.1415 -0.3217
  142SAPE   H6Y15573   6.473   1.915   9.866 -0.5571  1.4958  0.7811
  142SAPE   C3715574   6.291   1.909   9.743 -0.2800  0.0070  0.6086
  142SAPE   H7X15575   6.277   2.019   9.747  0.8377  0.1655  0.4271
  142SAPE   H7Y15576   6.188   1.870   9.758  0.2558 -1.7385 -0.1034
  142SAPE   C3815577   6.355   1.862   9.615  0.1073 -0.4846  0.2078
  142SAPE   H8X15578   6.372   1.752   9.616 -1.6523 -0.7663  0.2051
  142SAPE   H8Y15579   6.454   1.913   9.614 -2.2943  4.5481  1.8352
  142SAPE   C3915580   6.267   1.902   9.493  0.0633 -0.3411  0.0297
  142SAPE   H9X15581   6.252   2.011   9.478 -0.8183 -0.4980 -0.2769
  142SAPE   H9Y15582   6.164   1.861   9.509 -0.2289  0.3147 -0.1554
  142SAPE  C31015583   6.333   1.845   9.368 -0.4811 -0.2845  0.0398
  142SAPE  H10X15584   6.340   1.734   9.372 -1.5333 -0.3090  1.6060
  142SAPE  H10Y15585   6.439   1.877   9.372 -0.8962  0.9326  2.1602
  142SAPE  C31115586   6.268   1.897   9.238 -0.2682  0.0897 -0.8875
  142SAPE  H11X15587   6.259   2.007   9.241  1.0073  0.2665 -2.6092
  142SAPE  H11Y15588   6.163   1.862   9.233  0.0312 -0.6134 -2.9925
  142SAPE  C31215589   6.342   1.869   9.111 -0.0697 -0.9950 -0.0655
  142SAPE  H12X15590   6.447   1.900   9.126 -0.4804 -0.1828  1.3239
  142SAPE  H12Y15591   6.288   1.924   9.031  0.1638 -0.6363  0.0217
  142SAPE  C31315592   6.344   1.720   9.077 -0.0554 -0.0074  0.0570
  142SAPE  H13X15593   6.236   1.694   9.087  0.2998 -1.5642 -0.0151
  142SAPE  H13Y15594   6.400   1.659   9.151  0.3095 -1.1240 -1.1289
  142SAPE  C31415595   6.417   1.694   8.946 -0.0098  0.9040 -0.2925
  142SAPE  H14X15596   6.368   1.755   8.868 -0.4028  2.4045  1.0978
  142SAPE  H14Y15597   6.386   1.591   8.916 -0.3892  0.8311  0.3493
  142SAPE  C31515598   6.576   1.703   8.951 -0.6718  0.4364 -0.4302
  142SAPE  H15X15599   6.609   1.632   9.030  1.0882 -0.0353 -1.5667
  142SAPE  H15Y15600   6.598   1.809   8.978  0.5145 -0.7285  3.6177
  142SAPE  C31615601   6.645   1.677   8.817  0.8167  0.2873 -0.0513
  142SAPE  H16X15602   6.636   1.763   8.747  1.3592 -0.2178 -0.7378
  142SAPE  H16Y15603   6.593   1.593   8.767  2.1158  0.2775 -1.4096
  142SAPE  C31715604   6.795   1.648   8.838 -0.3570  0.1168  0.1144
  142SAPE  H17X15605   6.791   1.560   8.906  0.2335  2.3297  3.1131
  142SAPE  H17Y15606   6.847   1.736   8.881  2.0248  0.3327 -3.0556
  142SAPE  C31815607   6.863   1.611   8.704  0.6329 -0.3842 -0.1125
  142SAPE  H18X15608   6.843   1.504   8.680 -2.3911  0.3395 -1.0072
  142SAPE  H18Y15609   6.970   1.639   8.703  0.6819 -0.5647 -1.3535
  142SAPE  H18Z15610   6.825   1.676   8.623  1.9747  1.7487  0.9249
  143SAPE     N15611   1.696   2.623  11.069 -0.0149 -0.4679 -0.7549
  143SAPE   HN115612   1.728   2.541  11.124 -1.1649  0.0916  0.7814
  143SAPE   HN215613   1.765   2.637  10.993  0.4742  1.2945 -0.0116
  143SAPE   HN315614   1.698   2.704  11.134  1.1564 -0.5788 -0.6461
  143SAPE   C1215615   1.569   2.615  10.992  0.2596 -0.3462 -0.6297
  143SAPE  H12A15616   1.576   2.546  10.905  0.2128 -0.3560 -0.6252
  143SAPE  H12B15617   1.546   2.718  10.957  1.9763 -0.1070 -1.1025
  143SAPE   C1115618   1.442   2.568  11.072  0.5869  0.2459 -0.6852
  143SAPE  H11A15619   1.448   2.598  11.179  0.3625 -0.6672 -0.4189
  143SAPE  H11B15620   1.453   2.458  11.076  0.7143  0.2765 -0.0651
  143SAPE     P15621   1.204   2.536  10.966  0.0539 -0.3617  0.0147
  143SAPE   O1315622   1.190   2.425  11.057 -0.1988  0.5201  0.5255
  143SAPE   O1415623   1.089   2.628  10.944  0.2489  0.2206 -0.2497
  143SAPE   O1215624   1.325   2.624  11.018  0.0693  0.4579  0.7297
  143SAPE   O1115625   1.253   2.474  10.832 -0.7640  0.8215 -0.3724
  143SAPE    C115626   1.279   2.560  10.714 -0.1174 -1.0444 -0.6245
  143SAPE    HA15627   1.261   2.668  10.733  0.1660 -1.1351  0.2151
  143SAPE    HB15628   1.381   2.551  10.670 -0.2898 -0.5999 -1.1137
  143SAPE    C215629   1.196   2.525  10.589 -0.8297 -0.8389  0.0365
  143SAPE    HS15630   1.223   2.589  10.503 -4.7209 -1.1546 -1.5339
  143SAPE   O2115631   1.058   2.522  10.618  0.2107  0.2287  0.3212
  143SAPE   C2115632   0.991   2.628  10.643  0.4674  0.1281  0.7047
  143SAPE   O2215633   1.044   2.738  10.651  0.1209 -0.6174 -0.6798
  143SAPE   C2215634   0.844   2.591  10.643  0.0856 -0.3386 -0.5493
  143SAPE   H2R15635   0.825   2.512  10.719  2.1965 -1.6068 -1.2614
  143SAPE   H2S15636   0.791   2.685  10.666 -0.9366 -1.3858  1.5010
  143SAPE    C315637   1.237   2.381  10.532 -0.1522  0.9879  0.2352
  143SAPE    HX15638   1.223   2.311  10.617 -1.8914  0.6628 -0.2966
  143SAPE    HY15639   1.347   2.378  10.513 -0.1565  0.5875  0.2657
  143SAPE   O3115640   1.151   2.331  10.422 -0.3486 -0.3253 -0.0254
  143SAPE   C3115641   1.200   2.372  10.306  0.2281  0.4992 -0.5442
  143SAPE   O3215642   1.299   2.442  10.289  0.2902  0.4798 -0.4067
  143SAPE   C3215643   1.125   2.311  10.189 -0.2051  0.5377 -0.5039
  143SAPE   H2X15644   1.021   2.292  10.224 -0.0416  0.1179 -0.2425
  143SAPE   H2Y15645   1.171   2.213  10.163 -0.3715  0.5796 -0.9588
  143SAPE   C2315646   0.815   2.536  10.504 -0.1393 -0.5879  0.5510
  143SAPE   H3R15647   0.714   2.491  10.500 -1.9555  3.2050  1.8867
  143SAPE   H3S15648   0.883   2.449  10.488  0.7157 -0.0704  1.2782
  143SAPE   C2415649   0.814   2.641  10.393  0.5682 -0.1089  0.7463
  143SAPE   H4R15650   0.772   2.736  10.431 -0.4928 -0.0087 -0.6742
  143SAPE   H4S15651   0.747   2.598  10.316 -1.2544 -0.7237  2.6181
  143SAPE   C2515652   0.951   2.681  10.324  0.3937  0.7537  0.3326
  143SAPE   H5R15653   1.044   2.625  10.343  0.4277 -1.3879 -5.0868
  143SAPE   C2615654   0.957   2.792  10.251  0.1895  0.7372  0.6077
  143SAPE   H6R15655   1.051   2.813  10.199  0.0068 -1.4902 -0.6976
  143SAPE   C2715656   0.835   2.884  10.219 -0.4820 -0.5158  0.6716
  143SAPE   H7R15657   0.798   2.924  10.316  0.3318  0.6063  0.5250
  143SAPE   H7S15658   0.754   2.822  10.174 -0.2283  0.5424 -1.2833
  143SAPE   C2815659   0.847   3.007  10.138 -0.1010 -0.2415  0.8918
  143SAPE   H8R15660   0.847   3.103  10.192 -1.2985  1.8053 -2.6138
  143SAPE   C2915661   0.858   3.013  10.001 -0.1640  0.5420  0.3008
  143SAPE   H9R15662   0.861   3.113   9.955  1.1249 -0.5812 -2.1411
  143SAPE  C21015663   0.849   2.893   9.908  1.4667  0.3320  0.1152
  143SAPE  H10R15664   0.765   2.914   9.838  1.0492  1.8718  1.0364
  143SAPE  H10S15665   0.822   2.796   9.954 -0.5070 -0.0911 -1.8315
  143SAPE  C21115666   0.981   2.884   9.827 -0.0210  0.0499 -0.0855
  143SAPE  H11R15667   1.066   2.836   9.878 -0.6824 -0.9426  0.1051
  143SAPE  C21215668   1.004   2.929   9.704 -0.1954 -0.4158 -0.9784
  143SAPE  H12R15669   1.101   2.911   9.656  0.4761  0.0336  0.1839
  143SAPE  C21315670   0.910   3.002   9.613 -0.8210 -0.1816 -0.2421
  143SAPE  H13R15671   0.964   3.091   9.577  2.1998 -0.4133  3.4259
  143SAPE  H13S15672   0.827   3.041   9.677 -1.3320 -0.6691 -0.5951
  143SAPE  C21415673   0.858   2.924   9.492  0.0425  0.4698  0.1626
  143SAPE  H14R15674   0.765   2.873   9.520 -0.0035 -0.0451 -0.9158
  143SAPE  C21515675   0.921   2.881   9.381 -0.3911 -0.0114 -0.2812
  143SAPE  H15R15676   0.846   2.852   9.306 -1.4139 -1.7761  1.3905
  143SAPE  C21615677   1.063   2.913   9.337  0.0395  0.0869 -0.6927
  143SAPE  H16R15678   1.118   2.820   9.309 -2.3809 -2.1677  1.6977
  143SAPE  H16S15679   1.127   2.963   9.413  0.3155  2.7333 -2.5977
  143SAPE  C21715680   1.067   3.012   9.219 -0.3771  0.3314 -0.4980
  143SAPE  H17R15681   1.168   3.057   9.218  0.6018 -1.7883 -0.9686
  143SAPE  H17S15682   0.992   3.093   9.231  0.0819  0.4699  1.5092
  143SAPE  C21815683   1.041   2.936   9.086 -0.5954 -0.0147  0.1202
  143SAPE  H18R15684   0.952   2.870   9.081 -1.0337  0.5782 -0.0293
  143SAPE  H18S15685   1.126   2.870   9.061 -0.8593 -0.2841 -0.0586
  143SAPE  C21915686   1.018   3.033   8.964 -0.1107 -0.1028 -0.4042
  143SAPE  H19R15687   0.915   3.072   8.953 -1.0251 -2.2678  0.2053
  143SAPE  H19S15688   1.030   2.959   8.881 -1.2698  2.1923 -2.6964
  143SAPE  C22015689   1.134   3.136   8.960 -0.2695  0.6417  0.5063
  143SAPE  H20R15690   1.105   3.225   9.021 -3.0419  0.3425 -0.2934
  143SAPE  H20S15691   1.150   3.175   8.858  0.8519 -2.3036 -0.4856
  143SAPE  H20T15692   1.236   3.101   8.987 -0.5416 -2.4125 -2.2063
  143SAPE   C3315693   1.134   2.399  10.064  0.1500  0.2663  0.7190
  143SAPE   H3X15694   1.238   2.429  10.037 -1.1514  3.5088 -0.9008
  143SAPE   H3Y15695   1.077   2.493  10.076  2.5608  2.0166 -1.0077
  143SAPE   C3415696   1.067   2.321   9.948 -0.3813  0.7618 -0.2814
  143SAPE   H4X15697   0.964   2.281   9.959  1.0753 -3.1754 -0.3371
  143SAPE   H4Y15698   1.124   2.229   9.923  0.5552  0.7245  1.8572
  143SAPE   C3515699   1.090   2.402   9.821  0.5466 -0.3227 -0.2565
  143SAPE   H5X15700   1.200   2.408   9.802  0.8555  3.4123  2.0998
  143SAPE   H5Y15701   1.057   2.506   9.845  0.0132  0.3430 -3.6607
  143SAPE   C3615702   1.023   2.358   9.692  0.0610 -0.2677 -0.1747
  143SAPE   H6X15703   0.915   2.377   9.710  0.8534  1.7862  2.6773
  143SAPE   H6Y15704   1.032   2.247   9.684  0.3151 -0.4278  2.0904
  143SAPE   C3715705   1.067   2.447   9.571 -0.1865  0.3892 -0.1175
  143SAPE   H7X15706   1.177   2.445   9.559 -0.2913 -1.0443 -0.9963
  143SAPE   H7Y15707   1.037   2.554   9.575 -1.7055  0.0268 -1.1827
  143SAPE   C3815708   1.000   2.389   9.450  0.0960 -0.2699  0.0369
  143SAPE   H8X15709   0.896   2.355   9.468  0.4036 -0.7551  0.9249
  143SAPE   H8Y15710   1.045   2.297   9.406  0.0317 -1.6220  2.7031
  143SAPE   C3915711   1.000   2.494   9.338  0.2357  0.7888  1.1331
  143SAPE   H9X15712   1.106   2.528   9.329  0.9048 -0.8200  2.5113
  143SAPE   H9Y15713   0.933   2.572   9.379  0.5347  1.2373  0.7665
  143SAPE  C31015714   0.960   2.428   9.207  0.1062  0.3060  0.1866
  143SAPE  H10X15715   0.859   2.389   9.231 -0.5930  0.6731 -2.0320
  143SAPE  H10Y15716   1.028   2.341   9.197 -0.9225 -0.7096  1.7335
  143SAPE  C31115717   0.961   2.526   9.091  0.7450 -0.0339 -0.2738
  143SAPE  H11X15718   0.910   2.621   9.118  0.8273 -0.1035  0.1303
  143SAPE  H11Y15719   0.901   2.477   9.011 -1.2310 -0.6762  1.5548
  143SAPE  C31215720   1.106   2.572   9.059  0.2310 -0.4391  0.4501
  143SAPE  H12X15721   1.164   2.478   9.070  0.7394 -0.2932 -0.9184
  143SAPE  H12Y15722   1.135   2.641   9.142 -2.1341  1.6932 -0.4239
  143SAPE  C31315723   1.122   2.634   8.919 -0.0028 -0.2309 -0.3780
  143SAPE  H13X15724   1.063   2.728   8.922 -0.5613 -0.5918 -0.1310
  143SAPE  H13Y15725   1.085   2.580   8.830 -1.3067 -1.1914  0.7310
  143SAPE  C31415726   1.273   2.669   8.902 -0.4408 -0.2324 -0.1827
  143SAPE  H14X15727   1.334   2.577   8.900 -2.3322 -1.5038 -1.1127
  143SAPE  H14Y15728   1.304   2.729   8.990 -2.5330 -1.0845  1.1802
  143SAPE  C31515729   1.302   2.762   8.785 -0.1420 -0.6262  0.5931
  143SAPE  H15X15730   1.263   2.863   8.810  0.8677 -0.4437  1.4991
  143SAPE  H15Y15731   1.247   2.719   8.699  3.4912 -0.2034 -2.0726
  143SAPE  C31615732   1.451   2.781   8.755  0.1363  0.2453  0.9824
  143SAPE  H16X15733   1.479   2.691   8.695  2.1726  0.1421  2.0262
  143SAPE  H16Y15734   1.513   2.796   8.846  0.5551 -1.0768  0.9287
  143SAPE  C31715735   1.473   2.894   8.662 -0.3383  0.0369  0.3561
  143SAPE  H17X15736   1.432   2.987   8.707 -1.4156 -0.0768 -0.3579
  143SAPE  H17Y15737   1.417   2.876   8.568  2.3036  0.4687 -1.3350
  143SAPE  C31815738   1.620   2.931   8.636  0.2048 -0.8543  0.1097
  143SAPE  H18X15739   1.670   2.848   8.581  1.3126 -1.8077  2.4488
  143SAPE  H18Y15740   1.672   2.941   8.734  1.4572  0.1826 -0.6505
  143SAPE  H18Z15741   1.633   3.025   8.578  0.2019  0.5117  2.2442
  144SAPE     N15742   3.827   0.985  11.294 -0.7161  0.4566 -0.2069
  144SAPE   HN115743   3.726   0.994  11.268 -0.9023  0.5180  0.5435
  144SAPE   HN215744   3.842   0.927  11.379  1.4911 -1.2378 -1.7032
  144SAPE   HN315745   3.879   1.074  11.293 -1.5914  0.9791  0.3339
  144SAPE   C1215746   3.882   0.911  11.176  0.8307  0.1470  0.4128
  144SAPE  H12A15747   3.993   0.914  11.173  0.7646  1.4903 -1.5188
  144SAPE  H12B15748   3.855   0.961  11.081  1.9007  0.2781  0.1635
  144SAPE   C1115749   3.834   0.763  11.168  0.6432  0.4068  0.7890
  144SAPE  H11A15750   3.883   0.699  11.245 -0.7537 -0.0847  1.2777
  144SAPE  H11B15751   3.866   0.727  11.068 -0.1534 -1.3571  1.1531
  144SAPE     P15752   3.602   0.645  11.146 -0.0341 -0.6988 -0.1876
  144SAPE   O1315753   3.662   0.524  11.208 -0.0845 -0.0073 -0.0531
  144SAPE   O1415754   3.462   0.675  11.184 -0.0762  0.1472 -0.0795
  144SAPE   O1215755   3.690   0.774  11.179  0.1922  0.1417 -0.0477
  144SAPE   O1115756   3.615   0.628  10.992  0.5160  0.5299 -0.3269
  144SAPE    C115757   3.542   0.706  10.892  0.4631  0.2349 -0.7905
  144SAPE    HA15758   3.438   0.668  10.892  0.9183 -1.0696 -2.5088
  144SAPE    HB15759   3.539   0.814  10.919  0.5048  0.3560 -1.2635
  144SAPE    C215760   3.619   0.693  10.762 -0.4913 -0.2007  0.9890
  144SAPE    HS15761   3.616   0.585  10.739  1.1828  0.0796 -0.6314
  144SAPE   O2115762   3.757   0.740  10.781 -0.5384  0.2680 -0.0919
  144SAPE   C2115763   3.834   0.704  10.684 -0.0689  0.1284  0.2005
  144SAPE   O2215764   3.813   0.635  10.588 -0.7520  0.2829  0.1769
  144SAPE   C2215765   3.969   0.752  10.716 -0.5210 -0.5816  0.4189
  144SAPE   H2R15766   3.961   0.804  10.814 -0.7848  0.4727 -0.1467
  144SAPE   H2S15767   4.039   0.670  10.742  2.4323  1.8277  0.4675
  144SAPE    C315768   3.537   0.775  10.655  0.1769  0.1630 -0.1758
  144SAPE    HX15769   3.542   0.878  10.697  0.9274  0.6453 -1.4137
  144SAPE    HY15770   3.430   0.744  10.651 -0.0911  1.1996 -1.1428
  144SAPE   O3115771   3.594   0.759  10.523 -1.0414 -0.3627 -0.0432
  144SAPE   C3115772   3.557   0.655  10.456 -0.2920  0.0735  0.3731
  144SAPE   O3215773   3.473   0.572  10.485 -0.5857 -0.1072  0.2686
  144SAPE   C3215774   3.651   0.634  10.336  0.0500 -0.0178  0.2121
  144SAPE   H2X15775   3.703   0.536  10.340  0.6990  0.2522 -1.1028
  144SAPE   H2Y15776   3.722   0.720  10.337  1.4505 -1.1368  0.1832
  144SAPE   C2315777   4.034   0.835  10.599  0.5973  0.2904  0.1354
  144SAPE   H3R15778   4.020   0.793  10.497 -0.3196  1.4745 -0.2328
  144SAPE   H3S15779   4.145   0.833  10.611  0.9286  1.9372 -2.2970
  144SAPE   C2415780   3.992   0.987  10.589 -0.8888 -0.0939 -1.2272
  144SAPE   H4R15781   4.060   1.050  10.527  0.1859 -0.6351 -0.6193
  144SAPE   H4S15782   3.987   1.018  10.696 -0.0545  2.4548 -1.8877
  144SAPE   C2515783   3.852   0.994  10.541  0.3565 -1.1775  0.2506
  144SAPE   H5R15784   3.775   0.995  10.620 -0.6514 -0.2081 -0.7222
  144SAPE   C2615785   3.821   1.019  10.416 -0.4990  0.1415  0.1448
  144SAPE   H6R15786   3.713   1.025  10.395 -0.2500 -0.5985 -1.4786
  144SAPE   C2715787   3.923   1.031  10.305  0.5152 -0.1384 -0.4183
  144SAPE   H7R15788   4.007   0.961  10.323  0.6975  0.5236  1.4071
  144SAPE   H7S15789   3.956   1.137  10.303  2.9272 -0.8375  0.5923
  144SAPE   C2815790   3.844   0.984  10.185  0.6601  0.5603  0.6237
  144SAPE   H8R15791   3.791   0.890  10.207  0.6171  0.5807  0.6069
  144SAPE   C2915792   3.850   1.054  10.064  0.3554 -0.9866 -0.0234
  144SAPE   H9R15793   3.787   1.033   9.976 -0.5302  1.5195 -0.0305
  144SAPE  C21015794   3.925   1.177  10.030  0.5222 -1.1844  0.3019
  144SAPE  H10R15795   4.001   1.160   9.951  0.5399  0.0886  0.0308
  144SAPE  H10S15796   3.985   1.207  10.118 -1.5734  1.3674  0.9238
  144SAPE  C21115797   3.825   1.291  10.004 -0.3929  0.5728 -0.4779
  144SAPE  H11R15798   3.773   1.344  10.085  1.1491 -1.5498  2.0108
  144SAPE  C21215799   3.804   1.351   9.888  0.2698  0.0628  0.3321
  144SAPE  H12R15800   3.732   1.434   9.883  1.2436  0.8708 -0.6685
  144SAPE  C21315801   3.880   1.336   9.754  0.5157  0.0063  1.0806
  144SAPE  H13R15802   3.975   1.286   9.783  0.5273 -0.0947  0.8726
  144SAPE  H13S15803   3.901   1.434   9.708  0.8730 -0.7392 -0.3916
  144SAPE  C21415804   3.795   1.243   9.668 -0.4375  0.2424 -0.5741
  144SAPE  H14R15805   3.759   1.158   9.728  0.1565  0.4573  0.0957
  144SAPE  C21515806   3.753   1.261   9.544 -0.2709  0.4035  0.4922
  144SAPE  H15R15807   3.695   1.180   9.497 -0.1011 -1.3512  3.1808
  144SAPE  C21615808   3.783   1.381   9.452 -0.2325  0.1047 -0.2808
  144SAPE  H16R15809   3.841   1.457   9.508  1.0660  0.2046 -1.7160
  144SAPE  H16S15810   3.691   1.434   9.418  0.8802  0.5845 -2.6892
  144SAPE  C21715811   3.860   1.342   9.329  0.8058  0.0312 -0.6534
  144SAPE  H17R15812   3.807   1.256   9.283 -0.4589  0.2176  0.4242
  144SAPE  H17S15813   3.961   1.305   9.359  0.6647  0.3912  0.2987
  144SAPE  C21815814   3.863   1.458   9.223 -0.1658  0.0098 -0.5591
  144SAPE  H18R15815   3.916   1.537   9.281  0.8362 -1.0986  0.0675
  144SAPE  H18S15816   3.761   1.499   9.209 -0.4269 -0.4464 -0.0014
  144SAPE  C21915817   3.934   1.429   9.094  0.2256 -0.5550 -0.2911
  144SAPE  H19R15818   4.037   1.391   9.113  0.5673  1.0370  1.1449
  144SAPE  H19S15819   3.934   1.524   9.037 -0.8963 -0.3141  0.1105
  144SAPE  C22015820   3.863   1.322   9.006 -0.3980  0.5325 -1.1471
  144SAPE  H20R15821   3.754   1.325   9.027 -0.1364  1.2269  0.1743
  144SAPE  H20S15822   3.882   1.217   9.039 -0.4101  1.4673  1.9809
  144SAPE  H20T15823   3.886   1.337   8.898  1.7707  1.5605 -0.5668
  144SAPE   C3315824   3.559   0.623  10.214 -0.8953  0.2111 -0.3839
  144SAPE   H3X15825   3.503   0.528  10.228 -2.9372  1.7465  2.4858
  144SAPE   H3Y15826   3.621   0.606  10.124 -0.2422 -0.6408  0.2122
  144SAPE   C3415827   3.471   0.745  10.201 -0.9992  0.3909  0.1715
  144SAPE   H4X15828   3.540   0.831  10.190  0.5245 -0.9578 -0.9572
  144SAPE   H4Y15829   3.412   0.765  10.293  0.7801 -1.1695  1.6768
  144SAPE   C3515830   3.380   0.739  10.076  0.4609 -0.2166 -0.4702
  144SAPE   H5X15831   3.318   0.829  10.093  0.1177 -0.5368 -0.0171
  144SAPE   H5Y15832   3.316   0.648  10.085  0.3761  0.1414  2.8897
  144SAPE   C3615833   3.459   0.738   9.943  0.8460  0.3862  0.4462
  144SAPE   H6X15834   3.450   0.636   9.900 -0.0263  1.3806 -1.8362
  144SAPE   H6Y15835   3.565   0.764   9.962  0.8492 -0.0089  0.9605
  144SAPE   C3715836   3.400   0.842   9.843 -1.0311  0.4669  0.0391
  144SAPE   H7X15837   3.393   0.942   9.891 -3.1484 -0.2084  1.1979
  144SAPE   H7Y15838   3.298   0.812   9.811 -1.6819  1.4307  1.1145
  144SAPE   C3815839   3.501   0.850   9.726  0.3064 -0.6288  0.6547
  144SAPE   H8X15840   3.528   0.745   9.701 -0.9776 -0.0021 -3.7828
  144SAPE   H8Y15841   3.595   0.896   9.764 -0.6331  0.4782  1.6406
  144SAPE   C3915842   3.456   0.923   9.600  0.5210  0.0180  0.4909
  144SAPE   H9X15843   3.547   0.935   9.537  2.3373  0.5025  3.1170
  144SAPE   H9Y15844   3.420   1.023   9.632  1.8612  0.5176  0.4697
  144SAPE  C31015845   3.349   0.851   9.517  0.3711  0.0013 -0.1934
  144SAPE  H10X15846   3.261   0.835   9.583  0.5411  0.6921  0.1977
  144SAPE  H10Y15847   3.388   0.747   9.507 -0.5707 -0.1086 -3.0334
  144SAPE  C31115848   3.322   0.900   9.376 -0.5352  0.0086  0.0286
  144SAPE  H11X15849   3.253   0.838   9.315  1.0165 -2.6585  0.8702
  144SAPE  H11Y15850   3.421   0.884   9.326 -2.5773  0.1087 -4.2776
  144SAPE  C31215851   3.271   1.051   9.365  1.1331 -0.1444 -0.2893
  144SAPE  H12X15852   3.287   1.079   9.259  0.1583 -0.0988 -0.4301
  144SAPE  H12Y15853   3.326   1.109   9.442  0.0533 -0.1080  0.4709
  144SAPE  C31315854   3.126   1.069   9.402  0.0231 -0.2238 -0.0970
  144SAPE  H13X15855   3.096   1.176   9.393  2.3907  0.5941  1.3568
  144SAPE  H13Y15856   3.131   1.045   9.510 -0.4572 -0.4684 -0.1257
  144SAPE  C31415857   3.017   0.992   9.326  0.1738  0.0897 -0.0737
  144SAPE  H14X15858   2.929   1.027   9.384  0.2014 -0.0744  0.0643
  144SAPE  H14Y15859   3.030   0.885   9.352  3.0945  1.1844  3.3134
  144SAPE  C31515860   3.019   1.013   9.181  0.6288  0.2913  1.1230
  144SAPE  H15X15861   3.092   0.953   9.123 -1.1288  0.5972 -1.5073
  144SAPE  H15Y15862   3.040   1.120   9.157 -0.2465  0.2908  0.3045
  144SAPE  C31615863   2.878   0.977   9.118 -0.0995  0.6331 -0.1548
  144SAPE  H16X15864   2.806   1.061   9.118  1.1362  1.7777 -3.9947
  144SAPE  H16Y15865   2.837   0.891   9.176 -2.4246  1.9750  0.2572
  144SAPE  C31715866   2.899   0.932   8.970  0.2556  0.3950  0.0389
  144SAPE  H17X15867   2.986   0.862   8.969 -0.4536 -0.4869 -0.6211
  144SAPE  H17Y15868   2.915   1.025   8.911  1.2113  1.1054  1.3822
  144SAPE  C31815869   2.780   0.854   8.914  0.5472 -0.0547 -0.0993
  144SAPE  H18X15870   2.687   0.915   8.912 -1.0195 -2.3675  0.2264
  144SAPE  H18Y15871   2.763   0.757   8.966  1.2411 -0.9655 -1.5541
  144SAPE  H18Z15872   2.804   0.829   8.808  1.0281 -1.5293  0.3415
  145SAPE     N15873   1.161   2.380  11.309 -0.2474 -0.3104  0.1077
  145SAPE   HN115874   1.233   2.418  11.374  2.5901 -0.0129 -3.0766
  145SAPE   HN215875   1.169   2.276  11.310 -0.2703 -0.3122  0.0888
  145SAPE   HN315876   1.188   2.402  11.211  0.4675 -0.8707  0.1706
  145SAPE   C1215877   1.017   2.413  11.337  0.3662 -0.3230  0.0408
  145SAPE  H12A15878   1.002   2.522  11.321  1.7904 -0.4318 -2.2216
  145SAPE  H12B15879   0.994   2.389  11.443  0.1597  0.6583  0.2304
  145SAPE   C1115880   0.933   2.323  11.247  0.1264 -0.0467  0.1210
  145SAPE  H11A15881   0.929   2.362  11.143  0.3926  0.9847  0.4985
  145SAPE  H11B15882   0.828   2.328  11.285  0.8438  4.3691  1.7717
  145SAPE     P15883   0.872   2.069  11.218  0.1123 -0.3878  0.1030
  145SAPE   O1315884   0.934   1.936  11.221  0.4699 -0.0689 -0.5104
  145SAPE   O1415885   0.755   2.089  11.304  0.0543  0.2635 -0.1077
  145SAPE   O1215886   0.982   2.181  11.239 -0.0635  0.1623  0.3294
  145SAPE   O1115887   0.824   2.087  11.071 -0.3297 -0.0688  0.6915
  145SAPE    C115888   0.907   2.081  10.957  0.3538 -0.3571 -0.0038
  145SAPE    HA15889   1.004   2.120  10.994 -1.4519  1.7873  2.7246
  145SAPE    HB15890   0.932   1.976  10.931 -1.8423 -1.2712  1.4361
  145SAPE    C215891   0.875   2.174  10.836  0.0260  0.3350 -1.3614
  145SAPE    HS15892   0.842   2.271  10.879 -1.3818  0.2678 -2.2358
  145SAPE   O2115893   0.769   2.109  10.770 -0.3968  0.0282  0.2247
  145SAPE   C2115894   0.678   2.182  10.707 -0.0014  0.1080 -0.2185
  145SAPE   O2215895   0.686   2.306  10.707 -0.3916 -0.6326  0.5375
  145SAPE   C2215896   0.566   2.105  10.647 -0.3260  0.2763  0.1002
  145SAPE   H2R15897   0.597   2.002  10.676  0.4338  0.6486  0.6354
  145SAPE   H2S15898   0.469   2.144  10.684 -0.7619 -3.2722  3.0795
  145SAPE    C315899   0.998   2.182  10.747  0.4637  0.4967  0.1603
  145SAPE    HX15900   1.080   2.230  10.804  0.6073  0.9065 -0.3848
  145SAPE    HY15901   0.970   2.246  10.661 -0.0197  0.7859  0.5362
  145SAPE   O3115902   1.048   2.055  10.709 -0.0741 -0.1042 -0.1141
  145SAPE   C3115903   1.164   2.002  10.751 -0.2692  0.1637 -0.0386
  145SAPE   O3215904   1.241   2.061  10.823  0.3958  0.2686 -0.2732
  145SAPE   C3215905   1.185   1.861  10.700 -0.4478 -0.1850  0.2515
  145SAPE   H2X15906   1.102   1.799  10.740 -0.0781 -0.6183  0.3499
  145SAPE   H2Y15907   1.282   1.823  10.737 -0.3488 -0.3499 -0.1660
  145SAPE   C2315908   0.559   2.136  10.495  0.7808  0.0274 -0.4351
  145SAPE   H3R15909   0.538   2.244  10.479 -2.7026 -0.9423 -3.0812
  145SAPE   H3S15910   0.471   2.081  10.456  0.0212  1.3516 -0.6162
  145SAPE   C2415911   0.672   2.086  10.405 -0.3539  0.3432 -0.2690
  145SAPE   H4R15912   0.689   1.983  10.441 -2.1250  0.9791  2.5555
  145SAPE   H4S15913   0.762   2.139  10.443  1.0210 -2.3842  0.4025
  145SAPE   C2515914   0.661   2.089  10.258  0.6972  0.1158  0.1267
  145SAPE   H5R15915   0.654   1.988  10.214  0.5151 -0.0125  0.4555
  145SAPE   C2615916   0.666   2.200  10.179 -0.0358  0.6966  0.5477
  145SAPE   H6R15917   0.647   2.181  10.072 -1.1297 -4.2976  1.4835
  145SAPE   C2715918   0.684   2.339  10.231  0.1485 -0.0057  0.1762
  145SAPE   H7R15919   0.742   2.341  10.326 -0.4470 -2.7562  0.6416
  145SAPE   H7S15920   0.587   2.377  10.268 -0.3575  2.3082 -3.2298
  145SAPE   C2815921   0.758   2.428  10.124  0.0627  0.1280 -0.1649
  145SAPE   H8R15922   0.864   2.448  10.145 -0.1578  2.0496 -0.8203
  145SAPE   C2915923   0.705   2.474  10.011  0.1505  0.4520 -0.1299
  145SAPE   H9R15924   0.779   2.514   9.940  1.2391 -1.6923 -0.2409
  145SAPE  C21015925   0.575   2.457   9.944 -0.4328  0.4494  0.3400
  145SAPE  H10R15926   0.546   2.560   9.916  1.3007  1.3070  1.6222
  145SAPE  H10S15927   0.495   2.422  10.012 -1.3509  1.5898 -0.1319
  145SAPE  C21115928   0.605   2.366   9.819  0.4091 -0.4318 -0.1686
  145SAPE  H11R15929   0.636   2.267   9.856 -1.9643 -0.4266  1.9957
  145SAPE  C21215930   0.600   2.392   9.685 -0.1294  0.0610 -0.3171
  145SAPE  H12R15931   0.594   2.309   9.614 -0.3850  0.0164 -0.2402
  145SAPE  C21315932   0.544   2.517   9.618  0.2716 -0.0795  0.3413
  145SAPE  H13R15933   0.501   2.582   9.696  1.5709 -2.0399  2.7505
  145SAPE  H13S15934   0.451   2.489   9.563 -0.8341  2.5454  0.8121
  145SAPE  C21415935   0.633   2.602   9.537  0.1996 -0.3349  0.6800
  145SAPE  H14R15936   0.722   2.625   9.597  0.8563 -0.1857 -0.3380
  145SAPE  C21515937   0.629   2.634   9.407 -0.0321 -0.0929 -0.1571
  145SAPE  H15R15938   0.715   2.688   9.366 -0.0854  0.2695  0.2053
  145SAPE  C21615939   0.523   2.596   9.307 -0.3829  0.5085 -0.3540
  145SAPE  H16R15940   0.518   2.680   9.234  1.5831  2.9779  2.2347
  145SAPE  H16S15941   0.432   2.568   9.364  0.5059 -2.3396 -0.2976
  145SAPE  C21715942   0.560   2.462   9.233  0.1294 -0.1690 -0.6849
  145SAPE  H17R15943   0.576   2.389   9.315 -0.1445 -0.5787 -0.9927
  145SAPE  H17S15944   0.659   2.478   9.186  0.3789 -4.5526 -1.8504
  145SAPE  C21815945   0.466   2.407   9.125  0.3663  0.0811 -0.1350
  145SAPE  H18R15946   0.366   2.408   9.172 -0.5339 -3.4580 -1.8434
  145SAPE  H18S15947   0.500   2.306   9.095  0.7941 -0.5503  2.3804
  145SAPE  C21915948   0.459   2.492   9.000  0.2150  0.4423  0.3459
  145SAPE  H19R15949   0.554   2.516   8.948 -0.7399  1.5788 -0.8910
  145SAPE  H19S15950   0.402   2.583   9.027 -1.9804 -0.5979 -0.6346
  145SAPE  C22015951   0.373   2.426   8.889  0.2958  0.6185 -0.3707
  145SAPE  H20R15952   0.346   2.491   8.803 -1.2753 -0.3000 -0.5935
  145SAPE  H20S15953   0.273   2.406   8.933 -0.6966 -0.5568 -2.9834
  145SAPE  H20T15954   0.414   2.329   8.851 -1.5986 -0.4560  0.2435
  145SAPE   C3315955   1.183   1.856  10.542 -0.3861 -0.2007 -0.0948
  145SAPE   H3X15956   1.264   1.792  10.501  0.6794  0.5207  0.8753
  145SAPE   H3Y15957   1.191   1.957  10.497 -2.3857 -1.1869 -2.8229
  145SAPE   C3415958   1.056   1.791  10.489  0.0376 -0.2049  0.3397
  145SAPE   H4X15959   0.976   1.801  10.565 -0.7301  1.0775 -0.6285
  145SAPE   H4Y15960   1.077   1.686  10.459  0.7817  0.0086  0.1047
  145SAPE   C3515961   1.002   1.860  10.361  0.0221  0.0513 -0.2954
  145SAPE   H5X15962   0.995   1.971  10.364  1.4666  0.2103 -1.7448
  145SAPE   H5Y15963   0.896   1.830  10.356  0.1756 -0.4600 -0.5268
  145SAPE   C3615964   1.073   1.826  10.236  0.2722 -0.9331  0.5230
  145SAPE   H6X15965   1.083   1.716  10.226  1.0457 -0.7086 -1.2795
  145SAPE   H6Y15966   1.177   1.864  10.243 -0.4452  0.6295  4.0657
  145SAPE   C3715967   1.004   1.890  10.112  0.4487  0.7885 -0.4405
  145SAPE   H7X15968   0.998   2.001  10.121 -1.8280  0.6249  0.2663
  145SAPE   H7Y15969   0.908   1.834  10.110  1.0536 -0.2195 -2.3606
  145SAPE   C3815970   1.073   1.854   9.979 -0.4550 -0.4993  0.4449
  145SAPE   H8X15971   1.135   1.762   9.975  0.8731  0.3962 -0.1415
  145SAPE   H8Y15972   1.152   1.932   9.964 -0.2031 -0.8689 -0.1698
  145SAPE   C3915973   0.972   1.867   9.858 -0.2914 -0.5187 -0.2507
  145SAPE   H9X15974   0.896   1.787   9.876  0.7008 -0.8025  2.8408
  145SAPE   H9Y15975   1.027   1.845   9.764  0.1988  1.7607 -0.5304
  145SAPE  C31015976   0.893   2.000   9.843 -0.1978  0.2128  0.2309
  145SAPE  H10X15977   0.977   2.063   9.807 -0.1255 -0.7353 -1.2979
  145SAPE  H10Y15978   0.852   2.041   9.938  1.5890  0.5561  0.8724
  145SAPE  C31115979   0.802   2.011   9.724  0.2221  0.1372 -1.1150
  145SAPE  H11X15980   0.750   2.109   9.733  0.3335  0.1982 -1.1338
  145SAPE  H11Y15981   0.731   1.925   9.722 -0.0794  0.3100  1.3297
  145SAPE  C31215982   0.870   1.999   9.590 -0.1024  0.3254  0.1139
  145SAPE  H12X15983   0.957   1.930   9.593  0.1961  0.6679 -0.7618
  145SAPE  H12Y15984   0.911   2.100   9.574 -0.1377 -0.1202 -3.1773
  145SAPE  C31315985   0.779   1.952   9.476 -0.3108  0.0714 -0.9812
  145SAPE  H13X15986   0.677   1.997   9.475  0.1583  1.2501  0.6200
  145SAPE  H13Y15987   0.761   1.843   9.476  0.0911 -0.0298  1.8612
  145SAPE  C31415988   0.859   1.992   9.349  0.7150  0.0996  0.5993
  145SAPE  H14X15989   0.962   1.954   9.365  0.5872 -0.9594 -1.0027
  145SAPE  H14Y15990   0.854   2.103   9.339 -1.9113 -0.2705 -3.5542
  145SAPE  C31515991   0.802   1.918   9.229  1.0081  0.5905 -0.6897
  145SAPE  H15X15992   0.694   1.941   9.224 -0.0071 -3.2159  1.0483
  145SAPE  H15Y15993   0.802   1.808   9.248 -1.5232  0.4068 -1.6171
  145SAPE  C31615994   0.867   1.947   9.099 -0.0394 -0.1168  0.6302
  145SAPE  H16X15995   0.828   1.887   9.013 -0.0383  2.6616 -1.3873
  145SAPE  H16Y15996   0.973   1.919   9.119  0.3160 -0.4968 -1.6187
  145SAPE  C31715997   0.870   2.099   9.066 -0.0680  0.2007  0.2053
  145SAPE  H17X15998   0.930   2.103   8.973  1.2835 -0.5068  1.0296
  145SAPE  H17Y15999   0.937   2.151   9.138 -0.8316 -1.0884  1.8978
  145SAPE  C31816000   0.736   2.167   9.043 -0.5883 -0.2087  0.5477
  145SAPE  H18X16001   0.755   2.272   9.009  0.4912 -1.3659 -2.5762
  145SAPE  H18Y16002   0.663   2.169   9.127 -0.4150 -0.0148  0.6945
  145SAPE  H18Z16003   0.693   2.117   8.954 -0.0802  1.6798 -0.8031
  146SAPE     N16004   5.191   1.458  10.886 -0.2580 -0.1282 -0.4425
  146SAPE   HN116005   5.231   1.363  10.901  0.0681  0.2942  1.4625
  146SAPE   HN216006   5.272   1.523  10.878 -1.1997  1.5702  3.1213
  146SAPE   HN316007   5.140   1.485  10.972  1.0375 -0.4566  0.4442
  146SAPE   C1216008   5.113   1.462  10.760 -0.3165  0.0723  0.0779
  146SAPE  H12A16009   5.083   1.567  10.736  0.3299  0.8673  2.6358
  146SAPE  H12B16010   5.020   1.404  10.777  0.2283 -0.5339  1.0184
  146SAPE   C1116011   5.188   1.408  10.638  0.4008 -0.4730 -0.2288
  146SAPE  H11A16012   5.294   1.439  10.644  0.6158 -1.2019 -0.2231
  146SAPE  H11B16013   5.144   1.449  10.545  0.7103  0.5385  0.0633
  146SAPE     P16014   5.260   1.160  10.700 -0.0530  0.6494 -0.3986
  146SAPE   O1316015   5.258   1.196  10.838  0.4796 -0.2016 -0.4853
  146SAPE   O1416016   5.215   1.024  10.661 -0.0151  0.1998 -0.2519
  146SAPE   O1216017   5.175   1.270  10.627  0.0765 -0.3108  0.4073
  146SAPE   O1116018   5.406   1.184  10.641 -0.0227 -0.0983 -0.1296
  146SAPE    C116019   5.447   1.106  10.524 -0.2710 -0.4544 -0.0974
  146SAPE    HA16020   5.557   1.114  10.508 -0.4672 -0.7816 -1.6653
  146SAPE    HB16021   5.427   0.997  10.526 -0.0610 -0.5073 -0.7026
  146SAPE    C216022   5.404   1.169  10.383 -0.1069 -0.0673  0.7599
  146SAPE    HS16023   5.486   1.131  10.318 -1.2179 -0.6973 -0.3101
  146SAPE   O2116024   5.407   1.310  10.391  0.0015 -0.2327  0.0959
  146SAPE   C2116025   5.520   1.377  10.368  0.4013  0.3484 -0.0784
  146SAPE   O2216026   5.634   1.335  10.374  0.0605 -0.0570  0.1375
  146SAPE   C2216027   5.481   1.509  10.299  1.1833 -0.0191 -0.5777
  146SAPE   H2R16028   5.395   1.505  10.229 -2.3592  2.4493  3.3425
  146SAPE   H2S16029   5.435   1.554  10.390 -1.8629 -0.7426 -1.6795
  146SAPE    C316030   5.269   1.123  10.341  0.5442  0.0786  0.9203
  146SAPE    HX16031   5.186   1.185  10.379  1.5573  1.7524  0.4484
  146SAPE    HY16032   5.252   1.030  10.400 -0.3510 -1.3081 -1.4390
  146SAPE   O3116033   5.265   1.116  10.194  0.1418  0.3036 -0.1516
  146SAPE   C3116034   5.228   1.230  10.132 -0.4184  0.5646 -0.5359
  146SAPE   O3216035   5.186   1.331  10.181  0.4646  0.3364  0.6675
  146SAPE   C3216036   5.274   1.222   9.988 -0.4727  0.4611 -0.1021
  146SAPE   H2X16037   5.252   1.117   9.959 -1.3658  0.3660  0.9024
  146SAPE   H2Y16038   5.384   1.227   9.968 -0.7889  0.4427 -1.9349
  146SAPE   C2316039   5.597   1.586  10.233 -0.3171 -0.5940  0.0356
  146SAPE   H3R16040   5.693   1.555  10.280  1.3099 -0.7310 -3.2539
  146SAPE   H3S16041   5.581   1.696  10.229 -2.0485 -0.8925 -1.5026
  146SAPE   C2416042   5.617   1.545  10.081 -0.6630 -0.0526 -0.3749
  146SAPE   H4R16043   5.623   1.435  10.073  1.4129 -0.0946  1.3256
  146SAPE   H4S16044   5.712   1.588  10.042 -2.0363  3.0485 -0.4963
  146SAPE   C2516045   5.502   1.599   9.996 -0.1014 -0.0992  0.2530
  146SAPE   H5R16046   5.405   1.558  10.029 -1.2803  1.6389 -0.9671
  146SAPE   C2616047   5.505   1.665   9.878 -0.0932  1.0602 -0.0049
  146SAPE   H6R16048   5.410   1.683   9.826 -0.3188  0.3196  0.1567
  146SAPE   C2716049   5.628   1.717   9.809 -0.0978  0.1107 -0.8938
  146SAPE   H7R16050   5.666   1.644   9.734 -2.2975 -1.2488 -0.7024
  146SAPE   H7S16051   5.703   1.741   9.888 -0.7548  1.6347 -0.7202
  146SAPE   C2816052   5.602   1.840   9.738 -0.0193 -0.8958  0.7643
  146SAPE   H8R16053   5.615   1.937   9.788 -1.1002 -0.2670 -0.1421
  146SAPE   C2916054   5.562   1.852   9.611  0.2216  0.0954  1.1385
  146SAPE   H9R16055   5.551   1.955   9.575  0.8665 -0.2731 -0.1304
  146SAPE  C21016056   5.539   1.741   9.512 -0.4810 -0.1716 -0.2145
  146SAPE  H10R16057   5.442   1.746   9.458  0.3166  3.2472 -1.4360
  146SAPE  H10S16058   5.525   1.643   9.563 -0.7474 -1.3553 -2.4943
  146SAPE  C21116059   5.656   1.716   9.429 -0.1444  0.0807 -0.8349
  146SAPE  H11R16060   5.707   1.621   9.449 -2.0822 -0.5403  1.3449
  146SAPE  C21216061   5.702   1.800   9.333 -0.3452  0.4530 -0.2852
  146SAPE  H12R16062   5.797   1.763   9.293 -0.2517 -0.1349  0.4955
  146SAPE  C21316063   5.640   1.930   9.283  0.5253  0.2035  0.2092
  146SAPE  H13R16064   5.702   2.018   9.309  0.3896 -0.1141  1.6571
  146SAPE  H13S16065   5.539   1.935   9.327  1.3378  0.1910  2.0964
  146SAPE  C21416066   5.628   1.929   9.130 -0.5652  0.0349  0.3229
  146SAPE  H14R16067   5.525   1.930   9.091 -0.0914 -3.9507 -1.2934
  146SAPE  C21516068   5.729   1.931   9.035  0.1343 -0.3308 -0.0050
  146SAPE  H15R16069   5.694   1.923   8.931  1.5628 -0.5642 -0.4798
  146SAPE  C21616070   5.882   1.926   9.062 -0.2408 -0.2846  0.1736
  146SAPE  H16R16071   5.900   1.943   9.170 -0.4574 -2.4663  0.5808
  146SAPE  H16S16072   5.934   2.005   9.004 -1.1490  0.1666 -0.0240
  146SAPE  C21716073   5.943   1.790   9.028 -0.5822 -0.1076  0.5821
  146SAPE  H17R16074   5.887   1.705   9.073 -1.8537  1.4087  1.9182
  146SAPE  H17S16075   6.048   1.800   9.062  0.1623  0.9384 -1.9156
  146SAPE  C21816076   5.941   1.766   8.879 -0.2205  0.5148  0.3674
  146SAPE  H18R16077   5.978   1.857   8.827  0.6302  0.0405  0.1240
  146SAPE  H18S16078   5.840   1.728   8.854  0.9236 -2.9291  0.6218
  146SAPE  C21916079   6.031   1.642   8.841  0.8098 -0.7273 -0.7041
  146SAPE  H19R16080   5.980   1.551   8.880  1.0305  0.0075  1.3796
  146SAPE  H19S16081   6.122   1.636   8.904  0.0709  3.9701  1.0518
  146SAPE  C22016082   6.043   1.621   8.687  0.0040 -0.0384 -0.4941
  146SAPE  H20R16083   6.103   1.530   8.665  1.2564  0.5494  0.4352
  146SAPE  H20S16084   6.105   1.699   8.638 -0.6127  1.7329  1.4995
  146SAPE  H20T16085   5.944   1.599   8.641  0.2319 -3.0972  0.3783
  146SAPE   C3316086   5.196   1.323   9.903  0.0356 -0.6332  0.0968
  146SAPE   H3X16087   5.209   1.430   9.932  1.9465 -0.2941 -1.9004
  146SAPE   H3Y16088   5.088   1.306   9.920  0.0398 -0.0785  0.7283
  146SAPE   C3416089   5.243   1.323   9.752 -0.0958 -0.0911  0.4968
  146SAPE   H4X16090   5.199   1.231   9.707 -1.0748  0.6990 -0.1717
  146SAPE   H4Y16091   5.352   1.309   9.741  0.0873  2.3410 -1.0457
  146SAPE   C3516092   5.205   1.448   9.662 -0.5435 -0.9952  0.3065
  146SAPE   H5X16093   5.237   1.528   9.732  1.2213 -1.1406 -0.2984
  146SAPE   H5Y16094   5.098   1.468   9.639 -0.8129 -0.4668  1.9638
  146SAPE   C3616095   5.285   1.460   9.523  0.5234  0.0146 -0.4917
  146SAPE   H6X16096   5.385   1.418   9.546 -0.7518 -2.4675  0.6808
  146SAPE   H6Y16097   5.295   1.569   9.499  1.1945  0.3554  1.2810
  146SAPE   C3716098   5.210   1.390   9.413  0.7263 -0.5005  0.4864
  146SAPE   H7X16099   5.105   1.425   9.425  0.5651 -1.0145  0.5702
  146SAPE   H7Y16100   5.220   1.280   9.424 -2.8661 -0.7885  1.3130
  146SAPE   C3816101   5.249   1.436   9.270 -0.8807 -0.6288 -0.7265
  146SAPE   H8X16102   5.356   1.409   9.257  0.1369  2.9226 -0.2181
  146SAPE   H8Y16103   5.244   1.547   9.270  0.9227 -0.5246  0.5801
  146SAPE   C3916104   5.154   1.388   9.169  0.2518  0.5379 -0.4103
  146SAPE   H9X16105   5.053   1.428   9.193 -0.0854  0.0046 -0.9212
  146SAPE   H9Y16106   5.137   1.278   9.168  2.5168  0.1774 -2.2098
  146SAPE  C31016107   5.187   1.429   9.023  0.1184 -0.4363  0.2799
  146SAPE  H10X16108   5.296   1.431   9.004  0.4451  1.6956  2.1737
  146SAPE  H10Y16109   5.157   1.535   9.016  1.9061  0.0818  0.4800
  146SAPE  C31116110   5.110   1.330   8.937 -0.1883 -1.2125  0.0588
  146SAPE  H11X16111   5.006   1.334   8.976 -0.2788 -0.0319 -0.2748
  146SAPE  H11Y16112   5.147   1.227   8.952 -0.3465 -1.1728  0.7538
  146SAPE  C31216113   5.118   1.369   8.788  0.0765 -0.2085  0.2224
  146SAPE  H12X16114   5.214   1.329   8.749 -0.4393 -0.8448 -0.4042
  146SAPE  H12Y16115   5.123   1.479   8.774 -0.9459 -0.0200  1.2495
  146SAPE  C31316116   5.011   1.302   8.705 -0.1827 -0.2851  0.3573
  146SAPE  H13X16117   4.912   1.346   8.729 -0.4250  0.3324 -1.6967
  146SAPE  H13Y16118   5.013   1.196   8.738  1.0471  0.0328  1.3781
  146SAPE  C31416119   5.024   1.329   8.552 -0.2582  0.9422  0.2258
  146SAPE  H14X16120   5.107   1.263   8.519 -3.4849 -1.8930 -2.6038
  146SAPE  H14Y16121   5.056   1.435   8.543  0.2474  0.8447  0.7918
  146SAPE  C31516122   4.897   1.294   8.480  0.3720 -0.4920 -0.3730
  146SAPE  H15X16123   4.811   1.360   8.502 -1.6207 -2.7975 -1.0797
  146SAPE  H15Y16124   4.866   1.191   8.508 -0.0450 -1.0009 -2.6092
  146SAPE  C31616125   4.914   1.291   8.332  0.3663  0.2171 -0.2222
  146SAPE  H16X16126   4.992   1.218   8.300 -0.8096 -1.4217  0.5374
  146SAPE  H16Y16127   4.950   1.386   8.288 -0.8228 -0.4120 -2.6355
  146SAPE  C31716128   4.796   1.235   8.252  0.2529  0.1422 -0.3182
  146SAPE  H17X16129   4.768   1.134   8.288  0.3362  0.3990  0.4744
  146SAPE  H17Y16130   4.847   1.235   8.153  1.2462 -0.1310  0.1926
  146SAPE  C31816131   4.675   1.326   8.242 -0.2803  0.2124 -0.2486
  146SAPE  H18X16132   4.634   1.347   8.344 -1.1527  0.6919 -0.6876
  146SAPE  H18Y16133   4.598   1.284   8.174  0.2494  1.4180 -1.6015
  146SAPE  H18Z16134   4.705   1.425   8.202 -1.5830  0.1496 -1.3986
  147SAPE     N16135   3.239   5.353   6.258  0.2823 -0.5909  0.5068
  147SAPE   HN116136   3.296   5.327   6.341  0.9739 -3.5772 -0.8472
  147SAPE   HN216137   3.211   5.265   6.210 -1.5522  0.2024  0.0984
  147SAPE   HN316138   3.311   5.409   6.208 -0.9662 -1.1798 -2.0314
  147SAPE   C1216139   3.111   5.430   6.297  0.9117 -0.1835  0.8509
  147SAPE  H12A16140   3.067   5.489   6.214 -0.5874 -0.1600  1.6516
  147SAPE  H12B16141   3.145   5.506   6.371  0.5486  0.7709  0.0473
  147SAPE   C1116142   2.990   5.351   6.353  0.0612 -0.3384 -0.1651
  147SAPE  H11A16143   3.010   5.332   6.461 -2.9304  2.9642  1.0423
  147SAPE  H11B16144   2.989   5.253   6.302  1.3455 -0.7392  0.5451
  147SAPE     P16145   2.808   5.521   6.443 -0.1674 -0.0381  0.0795
  147SAPE   O1316146   2.917   5.571   6.527 -0.1153 -0.5301 -0.0067
  147SAPE   O1416147   2.717   5.614   6.366 -1.1012 -0.1659 -0.2969
  147SAPE   O1216148   2.867   5.422   6.340 -0.1737 -0.1904  0.1705
  147SAPE   O1116149   2.719   5.422   6.535  0.3064  0.2375 -0.1585
  147SAPE    C116150   2.639   5.494   6.636  0.4607  0.6626  0.1121
  147SAPE    HA16151   2.596   5.578   6.579  0.0891  0.3712 -0.0404
  147SAPE    HB16152   2.552   5.428   6.656 -0.3415  0.9966 -2.1627
  147SAPE    C216153   2.709   5.527   6.763 -0.2688  0.3923 -0.5394
  147SAPE    HS16154   2.801   5.577   6.726 -0.1337 -0.3582 -1.2082
  147SAPE   O2116155   2.746   5.402   6.824 -0.3018 -0.3141 -0.0621
  147SAPE   C2116156   2.844   5.413   6.909 -0.4233 -0.2887 -0.1334
  147SAPE   O2216157   2.922   5.508   6.923 -0.2557 -0.0130  0.5264
  147SAPE   C2216158   2.856   5.271   6.981  0.0097  0.5717  0.1772
  147SAPE   H2R16159   2.767   5.208   6.959  1.4928 -0.9264 -1.6556
  147SAPE   H2S16160   2.939   5.206   6.948  0.9810  1.9260 -0.0921
  147SAPE    C316161   2.625   5.624   6.858 -0.1392 -0.2280 -0.7788
  147SAPE    HX16162   2.522   5.584   6.857  1.0234 -3.3757 -1.0809
  147SAPE    HY16163   2.633   5.720   6.801  0.3496 -0.5032 -1.1783
  147SAPE   O3116164   2.684   5.633   6.986 -0.3366 -0.6817  0.0379
  147SAPE   C3116165   2.736   5.747   7.023  0.8073 -0.2499  0.0660
  147SAPE   O3216166   2.747   5.849   6.955 -0.0338 -0.1492  0.8090
  147SAPE   C3216167   2.770   5.735   7.166 -0.6829  0.1815 -0.8361
  147SAPE   H2X16168   2.849   5.658   7.179  0.6962  1.2574 -2.5347
  147SAPE   H2Y16169   2.670   5.715   7.211 -0.6470 -1.0446 -1.2998
  147SAPE   C2316170   2.859   5.282   7.138 -0.4036 -0.7769 -0.3854
  147SAPE   H3R16171   2.944   5.344   7.174 -0.3473 -1.0401 -0.0599
  147SAPE   H3S16172   2.873   5.183   7.186 -2.4333 -0.7497  0.3190
  147SAPE   C2416173   2.719   5.327   7.189  0.0769 -0.3477 -0.5806
  147SAPE   H4R16174   2.653   5.240   7.169 -0.8127 -0.6302  3.2112
  147SAPE   H4S16175   2.695   5.417   7.128 -3.1937  0.0554  1.1837
  147SAPE   C2516176   2.707   5.359   7.334 -0.2371  0.5250  0.1051
  147SAPE   H5R16177   2.777   5.303   7.398 -0.7998 -1.0238 -0.5933
  147SAPE   C2616178   2.608   5.431   7.387 -0.0263  0.2055 -0.3845
  147SAPE   H6R16179   2.608   5.441   7.496  2.6266 -1.6758 -0.1584
  147SAPE   C2716180   2.493   5.506   7.328  0.3866  0.8453  1.0358
  147SAPE   H7R16181   2.525   5.556   7.235  0.1989  2.1766  1.6700
  147SAPE   H7S16182   2.470   5.591   7.396 -0.4064  1.3740  0.1128
  147SAPE   C2816183   2.382   5.419   7.297 -0.4799  0.0725 -0.0775
  147SAPE   H8R16184   2.331   5.383   7.387 -0.1084  0.7230  0.3946
  147SAPE   C2916185   2.347   5.376   7.173 -0.1381 -0.2982  0.3929
  147SAPE   H9R16186   2.264   5.304   7.171 -0.6445  0.2725  0.8344
  147SAPE  C21016187   2.414   5.410   7.041 -0.0623 -0.3006 -0.3250
  147SAPE  H10R16188   2.519   5.375   7.052 -0.1182 -0.6581 -0.9186
  147SAPE  H10S16189   2.426   5.520   7.025 -1.4167 -0.4509 -2.5701
  147SAPE  C21116190   2.339   5.350   6.923  0.1110  0.1816 -0.2763
  147SAPE  H11R16191   2.269   5.422   6.878  1.5747  0.6263 -1.8603
  147SAPE  C21216192   2.367   5.245   6.845 -0.4951  0.8616 -0.3519
  147SAPE  H12R16193   2.304   5.216   6.760  1.7976  0.0593 -1.8473
  147SAPE  C21316194   2.478   5.146   6.862 -0.0328  0.4408  0.1581
  147SAPE  H13R16195   2.530   5.156   6.960  0.4496  1.5488 -0.2087
  147SAPE  H13S16196   2.546   5.183   6.783 -0.6559 -1.7846 -1.4620
  147SAPE  C21416197   2.452   4.997   6.844 -0.7012 -0.1181  0.4725
  147SAPE  H14R16198   2.518   4.951   6.769 -1.6903 -0.8675  0.0684
  147SAPE  C21516199   2.348   4.916   6.884  0.7291 -0.8259  0.3302
  147SAPE  H15R16200   2.349   4.810   6.855  1.6772 -1.1297  1.4523
  147SAPE  C21616201   2.225   4.964   6.964 -0.2117  0.4106  0.2304
  147SAPE  H16R16202   2.137   4.907   6.927  1.6072 -0.4426 -2.9542
  147SAPE  H16S16203   2.208   5.073   6.950  1.2171  0.4359 -1.5222
  147SAPE  C21716204   2.253   4.948   7.112 -0.3489 -0.1939 -0.4242
  147SAPE  H17R16205   2.179   4.985   7.185 -0.9086  1.5168 -1.8211
  147SAPE  H17S16206   2.348   4.996   7.146 -0.1821  0.9789 -2.4347
  147SAPE  C21816207   2.269   4.795   7.146  0.2675 -0.3306  0.5351
  147SAPE  H18R16208   2.311   4.728   7.068 -0.8231  0.9990 -1.2530
  147SAPE  H18S16209   2.168   4.754   7.166 -0.1793  0.0325 -0.8868
  147SAPE  C21916210   2.346   4.773   7.276  0.6926  0.6531  0.2290
  147SAPE  H19R16211   2.298   4.833   7.357  1.3615 -0.6439  1.6175
  147SAPE  H19S16212   2.452   4.799   7.254  1.4816 -3.7157 -1.5328
  147SAPE  C22016213   2.365   4.627   7.327  0.4208  0.3284  0.4355
  147SAPE  H20R16214   2.271   4.569   7.316 -0.3518  1.2240  2.1483
  147SAPE  H20S16215   2.404   4.627   7.431  0.2687  0.3555  0.4921
  147SAPE  H20T16216   2.443   4.582   7.262 -0.1812 -0.4770  0.2613
  147SAPE   C3316217   2.823   5.876   7.233 -0.1809 -0.2681  0.2135
  147SAPE   H3X16218   2.750   5.955   7.204  0.0257 -0.2796 -0.3472
  147SAPE   H3Y16219   2.928   5.899   7.202  0.2157 -2.0796  0.1568
  147SAPE   C3416220   2.827   5.877   7.388  0.8975 -0.0507  0.2162
  147SAPE   H4X16221   2.834   5.985   7.414 -1.4143 -0.3983  2.4810
  147SAPE   H4Y16222   2.920   5.830   7.427  2.2279 -0.0801 -2.9261
  147SAPE   C3516223   2.716   5.821   7.468 -0.7532  0.2783 -0.8939
  147SAPE   H5X16224   2.726   5.710   7.470  1.9544  0.4914  0.8087
  147SAPE   H5Y16225   2.620   5.842   7.416 -0.4671 -0.3031 -1.6584
  147SAPE   C3616226   2.740   5.880   7.606 -0.2104 -0.5263 -0.3837
  147SAPE   H6X16227   2.751   5.990   7.595  2.3982 -0.7573 -0.5202
  147SAPE   H6Y16228   2.838   5.843   7.644 -0.4201 -1.8559 -1.1145
  147SAPE   C3716229   2.644   5.834   7.711  0.4139  0.0696 -0.7300
  147SAPE   H7X16230   2.550   5.885   7.678  0.5180  1.7672  1.5296
  147SAPE   H7Y16231   2.677   5.872   7.810 -0.5526  1.3114 -0.8661
  147SAPE   C3816232   2.613   5.677   7.711 -0.1672 -0.2759  0.0114
  147SAPE   H8X16233   2.705   5.627   7.748  1.0911 -0.5922 -3.3719
  147SAPE   H8Y16234   2.596   5.640   7.608  0.7449 -0.5338 -0.0494
  147SAPE   C3916235   2.489   5.661   7.803 -0.5020  0.6102 -0.0257
  147SAPE   H9X16236   2.455   5.556   7.799 -1.5658  1.0306 -2.2975
  147SAPE   H9Y16237   2.405   5.713   7.753 -0.1194  0.8594 -0.4173
  147SAPE  C31016238   2.529   5.699   7.945  0.2421  0.0522  0.1537
  147SAPE  H10X16239   2.501   5.804   7.967 -1.4559 -0.7461  1.9360
  147SAPE  H10Y16240   2.638   5.683   7.961  0.1849 -1.9677 -1.1266
  147SAPE  C31116241   2.444   5.625   8.047  0.1781 -0.8181  0.1719
  147SAPE  H11X16242   2.484   5.523   8.032 -0.9300 -1.2189 -0.1541
  147SAPE  H11Y16243   2.336   5.621   8.021  0.1247  1.0577 -0.0172
  147SAPE  C31216244   2.488   5.678   8.186 -0.0574 -0.4596 -0.4444
  147SAPE  H12X16245   2.442   5.776   8.211  3.6263  1.8275 -2.1893
  147SAPE  H12Y16246   2.599   5.688   8.192 -0.2455  0.5543  1.7759
  147SAPE  C31316247   2.447   5.574   8.295  0.6981 -0.2189  0.5014
  147SAPE  H13X16248   2.504   5.479   8.284  0.2887 -0.5155  0.9753
  147SAPE  H13Y16249   2.341   5.546   8.279  0.6593 -1.0284  2.0672
  147SAPE  C31416250   2.472   5.619   8.438  0.5065 -0.0245  0.0142
  147SAPE  H14X16251   2.511   5.723   8.430 -0.8129  0.4060 -0.9412
  147SAPE  H14Y16252   2.552   5.547   8.466 -0.1006 -0.6042  0.2681
  147SAPE  C31516253   2.345   5.604   8.524 -0.3755  0.1136  0.4192
  147SAPE  H15X16254   2.322   5.496   8.538  2.4291 -0.4316  1.2786
  147SAPE  H15Y16255   2.252   5.643   8.477  0.4632 -1.6126 -2.8105
  147SAPE  C31616256   2.375   5.678   8.656  0.6184 -0.4609 -0.1454
  147SAPE  H16X16257   2.398   5.784   8.631  0.6762 -0.7165 -1.1871
  147SAPE  H16Y16258   2.465   5.637   8.705 -0.2487 -1.9530  0.2399
  147SAPE  C31716259   2.261   5.685   8.769 -0.6151  0.0084 -0.0137
  147SAPE  H17X16260   2.184   5.607   8.753  0.1969 -0.9862  0.8473
  147SAPE  H17Y16261   2.208   5.782   8.769  2.7802  1.9260  0.9531
  147SAPE  C31816262   2.317   5.673   8.909 -0.1810 -0.1235  0.0844
  147SAPE  H18X16263   2.232   5.655   8.978 -2.4865  3.3063 -1.7093
  147SAPE  H18Y16264   2.368   5.766   8.941  1.5700 -2.0366  3.1175
  147SAPE  H18Z16265   2.387   5.587   8.913 -1.7028 -1.3652  0.4080
  148SAPE     N16266   2.085   4.189   6.595  0.3984 -0.1412  0.1348
  148SAPE   HN116267   2.174   4.173   6.544 -0.4991 -0.4918 -1.3567
  148SAPE   HN216268   2.101   4.269   6.659 -0.0830  0.3759 -0.3841
  148SAPE   HN316269   2.048   4.113   6.655 -2.6710  0.9053 -0.3365
  148SAPE   C1216270   1.980   4.224   6.494 -0.4426 -0.4054  0.5171
  148SAPE  H12A16271   1.944   4.132   6.443 -0.0079  0.2658 -1.0406
  148SAPE  H12B16272   2.028   4.298   6.427 -0.3371 -1.0279 -0.0985
  148SAPE   C1116273   1.851   4.274   6.560  0.3198 -0.3104 -0.7286
  148SAPE  H11A16274   1.783   4.303   6.478 -1.1166 -0.0255  0.5495
  148SAPE  H11B16275   1.865   4.370   6.614  0.4403 -1.0878  0.6425
  148SAPE     P16276   1.684   4.099   6.624 -0.2349  0.4711 -0.4728
  148SAPE   O1316277   1.561   4.184   6.654 -0.5562 -0.1910 -0.2971
  148SAPE   O1416278   1.694   4.053   6.484  0.7650 -0.5794  0.4810
  148SAPE   O1216279   1.810   4.178   6.663  0.2025 -0.3021  0.2987
  148SAPE   O1116280   1.685   3.966   6.712 -0.2786  0.0483 -0.6248
  148SAPE    C116281   1.795   3.918   6.782  0.4078  0.0692  0.0499
  148SAPE    HA16282   1.763   3.817   6.818  2.4619  0.3908  2.9719
  148SAPE    HB16283   1.880   3.902   6.712 -0.4863  0.4164 -1.1402
  148SAPE    C216284   1.831   3.985   6.911  0.3686 -0.2866  0.0456
  148SAPE    HS16285   1.855   4.092   6.895 -2.4244  0.1789 -1.4129
  148SAPE   O2116286   1.944   3.915   6.973 -0.1163 -0.0511 -0.0663
  148SAPE   C2116287   2.058   3.940   6.908 -1.0112 -0.5452  0.5939
  148SAPE   O2216288   2.069   4.022   6.819  0.2252  0.4865  0.8177
  148SAPE   C2216289   2.177   3.875   6.977 -0.4150 -0.1318  0.0359
  148SAPE   H2R16290   2.158   3.893   7.085  1.0002  1.0588  0.1146
  148SAPE   H2S16291   2.182   3.766   6.957  0.4398 -0.4892  2.0089
  148SAPE    C316292   1.711   3.982   7.012  0.0180 -0.3137  0.1185
  148SAPE    HX16293   1.686   3.877   7.039 -0.2422 -0.8503 -2.0449
  148SAPE    HY16294   1.623   4.024   6.958  0.5691  0.4205 -0.2104
  148SAPE   O3116295   1.750   4.066   7.122  0.2007 -0.1878 -0.0674
  148SAPE   C3116296   1.693   4.177   7.141 -0.0310 -0.0889 -0.4372
  148SAPE   O3216297   1.623   4.232   7.054  0.5887 -0.6547 -0.1748
  148SAPE   C3216298   1.718   4.228   7.284  0.2308 -0.3212 -0.1696
  148SAPE   H2X16299   1.624   4.235   7.342  0.5119 -0.7161  0.3307
  148SAPE   H2Y16300   1.752   4.333   7.265  2.5386 -0.1312  4.4288
  148SAPE   C2316301   2.311   3.937   6.935 -0.4667 -0.0381 -0.5970
  148SAPE   H3R16302   2.308   4.047   6.951  2.2309 -0.1768  1.1319
  148SAPE   H3S16303   2.322   3.915   6.826 -1.2796 -3.7223 -0.0049
  148SAPE   C2416304   2.440   3.871   6.999  0.5349  0.3335 -0.9300
  148SAPE   H4R16305   2.526   3.912   6.943  0.0369 -1.3054 -2.9669
  148SAPE   H4S16306   2.429   3.762   6.980  2.0058 -0.1831  1.0949
  148SAPE   C2516307   2.461   3.902   7.146 -0.6532  0.7746 -0.6786
  148SAPE   H5R16308   2.457   4.009   7.171 -3.5025  0.3086  0.9613
  148SAPE   C2616309   2.485   3.814   7.244 -0.4348  0.0969 -0.4701
  148SAPE   H6R16310   2.509   3.846   7.346 -2.1155 -1.1438  0.3545
  148SAPE   C2716311   2.498   3.666   7.230 -0.7004  0.3232  0.6291
  148SAPE   H7R16312   2.608   3.655   7.239 -0.5564  1.0823 -0.0612
  148SAPE   H7S16313   2.477   3.625   7.129 -4.4466 -0.5685  1.6923
  148SAPE   C2816314   2.426   3.584   7.340  0.0039  0.1270 -0.6310
  148SAPE   H8R16315   2.338   3.532   7.298  0.1332 -1.2673  0.7550
  148SAPE   C2916316   2.456   3.582   7.470  0.2822  0.5277 -0.5100
  148SAPE   H9R16317   2.382   3.544   7.542  0.0793  1.6670 -0.1148
  148SAPE  C21016318   2.577   3.643   7.533  0.2373  0.3809  0.1021
  148SAPE  H10R16319   2.532   3.735   7.577  0.0642  0.5301 -0.3819
  148SAPE  H10S16320   2.648   3.670   7.452  2.9820 -3.0757  1.2641
  148SAPE  C21116321   2.640   3.561   7.646  0.3276 -0.2723  0.2395
  148SAPE  H11R16322   2.718   3.487   7.620  0.4984 -1.2032  3.1561
  148SAPE  C21216323   2.610   3.563   7.776  0.2271 -0.3390  0.2405
  148SAPE  H12R16324   2.675   3.503   7.841  2.9333  0.9296 -1.1841
  148SAPE  C21316325   2.503   3.651   7.835  0.7731  0.2295  0.2824
  148SAPE  H13R16326   2.436   3.590   7.899 -0.3693  0.1641 -0.9639
  148SAPE  H13S16327   2.433   3.701   7.765  1.1097  0.6854  0.2692
  148SAPE  C21416328   2.567   3.760   7.916 -0.5896 -0.0803  0.6585
  148SAPE  H14R16329   2.574   3.862   7.876 -1.3162 -0.1833  0.2576
  148SAPE  C21516330   2.620   3.750   8.044 -0.4290 -0.5504  0.6307
  148SAPE  H15R16331   2.678   3.836   8.080  1.4010 -1.2032 -0.6671
  148SAPE  C21616332   2.625   3.631   8.132  0.2264 -0.3043 -0.3865
  148SAPE  H16R16333   2.732   3.613   8.158  0.4841  1.6949  0.0232
  148SAPE  H16S16334   2.585   3.538   8.087  1.4776 -0.8118 -0.4856
  148SAPE  C21716335   2.559   3.638   8.272 -0.4040  0.1975 -0.1822
  148SAPE  H17R16336   2.606   3.720   8.331  0.8039  0.3429 -1.3276
  148SAPE  H17S16337   2.592   3.545   8.322  0.2753  0.7087  0.3260
  148SAPE  C21816338   2.404   3.641   8.260 -0.3907 -0.0628  0.7271
  148SAPE  H18R16339   2.385   3.552   8.196 -0.9475 -0.9862  2.1398
  148SAPE  H18S16340   2.365   3.730   8.207  2.4711  1.3125  0.8267
  148SAPE  C21916341   2.322   3.619   8.390  0.0677  0.0741  0.5186
  148SAPE  H19R16342   2.305   3.510   8.404 -1.0349 -0.2546 -2.9111
  148SAPE  H19S16343   2.222   3.661   8.368  0.9107  1.1384 -1.4342
  148SAPE  C22016344   2.387   3.703   8.509 -0.4359  0.0298  1.0966
  148SAPE  H20R16345   2.388   3.806   8.469  1.4066 -0.6032 -0.5854
  148SAPE  H20S16346   2.491   3.666   8.524 -0.3193 -0.2554 -0.2868
  148SAPE  H20T16347   2.327   3.693   8.602 -2.0574  0.4132  0.1105
  148SAPE   C3316348   1.814   4.153   7.383 -0.1995  0.4866 -0.3612
  148SAPE   H3X16349   1.823   4.228   7.465  1.5913  0.3172 -0.4023
  148SAPE   H3Y16350   1.908   4.135   7.327  0.2109  3.1239 -0.5821
  148SAPE   C3416351   1.756   4.014   7.431 -0.4775 -0.2647 -0.1432
  148SAPE   H4X16352   1.834   3.951   7.478 -1.3235 -2.0468 -1.0536
  148SAPE   H4Y16353   1.707   3.956   7.349  0.7434  0.6364 -1.5249
  148SAPE   C3516354   1.648   4.033   7.543  0.7146  0.2576  0.3274
  148SAPE   H5X16355   1.566   4.092   7.498  1.3943  0.6402 -0.4285
  148SAPE   H5Y16356   1.696   4.096   7.621  1.8336  1.2476 -1.1333
  148SAPE   C3616357   1.593   3.910   7.618 -0.3317  0.2741 -0.0193
  148SAPE   H6X16358   1.675   3.838   7.640  1.4243  2.2661  0.1793
  148SAPE   H6Y16359   1.513   3.871   7.552 -0.6418 -0.0246  0.5342
  148SAPE   C3716360   1.523   3.949   7.751  0.2131 -1.0059  0.0259
  148SAPE   H7X16361   1.434   3.882   7.753  0.6958 -1.6532 -0.0424
  148SAPE   H7Y16362   1.489   4.053   7.731  3.0940 -0.1090 -0.4236
  148SAPE   C3816363   1.618   3.943   7.868 -0.2321 -0.1018  0.3241
  148SAPE   H8X16364   1.691   4.027   7.866 -4.2091  3.5027 -1.8370
  148SAPE   H8Y16365   1.670   3.845   7.875  2.7097  1.3921  0.0805
  148SAPE   C3916366   1.544   3.968   8.002  0.0620 -0.2867 -0.0880
  148SAPE   H9X16367   1.474   3.885   8.025 -1.6517  0.6489 -1.8339
  148SAPE   H9Y16368   1.488   4.064   8.003  0.7038  0.0973 -0.5146
  148SAPE  C31016369   1.634   3.968   8.131  0.2329 -0.2125 -1.0160
  148SAPE  H10X16370   1.654   4.073   8.161  0.0882 -0.6533  0.7075
  148SAPE  H10Y16371   1.733   3.920   8.118  0.5924  0.0362  0.6293
  148SAPE  C31116372   1.566   3.894   8.246  0.2480  0.1110 -0.1660
  148SAPE  H11X16373   1.550   3.788   8.220  2.3811 -0.3774  0.3515
  148SAPE  H11Y16374   1.465   3.936   8.261  0.7218  1.3473 -0.3519
  148SAPE  C31216375   1.634   3.914   8.386 -0.9628 -0.3238  0.2356
  148SAPE  H12X16376   1.600   4.007   8.437  0.3409  0.4940 -0.3721
  148SAPE  H12Y16377   1.740   3.935   8.361 -0.6817  0.1959  1.7798
  148SAPE  C31316378   1.619   3.791   8.475  0.0908  0.3360 -0.3026
  148SAPE  H13X16379   1.642   3.707   8.406  0.1704  1.3928 -1.5793
  148SAPE  H13Y16380   1.515   3.773   8.509  0.0649 -0.9189 -1.0079
  148SAPE  C31416381   1.709   3.795   8.593 -0.3621  0.2359 -0.1580
  148SAPE  H14X16382   1.812   3.773   8.557 -0.3481 -1.9324  1.0783
  148SAPE  H14Y16383   1.678   3.714   8.663 -2.5011  1.1682  0.0047
  148SAPE  C31516384   1.702   3.922   8.675 -0.2847  0.6973 -0.3140
  148SAPE  H15X16385   1.593   3.944   8.670 -0.2980  0.6858 -0.0966
  148SAPE  H15Y16386   1.764   3.992   8.615  0.2552 -0.8019 -1.5443
  148SAPE  C31616387   1.754   3.906   8.820 -0.3173 -0.5992  0.2980
  148SAPE  H16X16388   1.691   3.836   8.879 -1.6244 -0.5433 -0.9846
  148SAPE  H16Y16389   1.736   4.009   8.856 -1.4847  0.1483 -2.2656
  148SAPE  C31716390   1.899   3.858   8.823  0.0802 -1.0558 -0.5347
  148SAPE  H17X16391   1.954   3.917   8.747 -4.3796  0.5004 -2.7493
  148SAPE  H17Y16392   1.908   3.754   8.786  3.3054 -1.3414  0.9143
  148SAPE  C31816393   1.969   3.878   8.967 -0.1266 -0.1945  1.0923
  148SAPE  H18X16394   2.050   3.805   8.988  1.5246  1.1676 -0.4774
  148SAPE  H18Y16395   1.884   3.860   9.037 -0.5704 -0.0350  0.5922
  148SAPE  H18Z16396   2.010   3.981   8.974 -1.9942  0.5199  1.9788
  149SAPE     N16397   2.320   5.416   6.254 -0.0745  1.0713  0.4103
  149SAPE   HN116398   2.227   5.463   6.254 -0.4116  0.4183  0.7259
  149SAPE   HN216399   2.378   5.486   6.203  1.1683 -0.3748 -0.1922
  149SAPE   HN316400   2.314   5.324   6.205  0.6269  1.2216  0.0284
  149SAPE   C1216401   2.369   5.381   6.391  0.6751  0.0817 -0.0846
  149SAPE  H12A16402   2.306   5.438   6.462  0.3708 -0.2950 -0.0536
  149SAPE  H12B16403   2.472   5.419   6.407  0.5814  0.2604  0.0848
  149SAPE   C1116404   2.352   5.234   6.418 -0.2888 -0.1388  0.1749
  149SAPE  H11A16405   2.373   5.219   6.526 -0.5645 -1.1521  0.0935
  149SAPE  H11B16406   2.431   5.187   6.355 -1.7597  0.9597 -2.6164
  149SAPE     P16407   2.181   5.034   6.397 -0.2228 -0.6088  0.1493
  149SAPE   O1316408   2.078   5.004   6.296 -0.0090  0.6439  0.7108
  149SAPE   O1416409   2.308   4.961   6.381  0.0828 -0.0645  0.0648
  149SAPE   O1216410   2.217   5.188   6.384  0.2067  0.3733  0.2416
  149SAPE   O1116411   2.121   5.016   6.539 -0.8417 -0.4594 -0.4075
  149SAPE    C116412   2.022   5.112   6.581 -1.3113  0.1262  0.1353
  149SAPE    HA16413   2.071   5.171   6.661 -0.0628 -1.3264  0.4503
  149SAPE    HB16414   1.986   5.187   6.506 -0.5578  1.5699  1.1967
  149SAPE    C216415   1.894   5.031   6.629  0.1266 -0.7735  0.4333
  149SAPE    HS16416   1.810   5.099   6.603  1.3991  0.0119 -1.8013
  149SAPE   O2116417   1.900   4.985   6.766  0.1640  0.4081 -0.3455
  149SAPE   C2116418   1.855   5.085   6.849  0.4028  0.2858 -0.6676
  149SAPE   O2216419   1.810   5.196   6.823  0.3079 -0.0397  0.5296
  149SAPE   C2216420   1.857   5.025   6.994 -0.1273  0.2977  0.7307
  149SAPE   H2R16421   1.759   4.977   7.012 -0.8172  1.4213  0.0029
  149SAPE   H2S16422   1.934   4.946   7.004 -0.1857  0.1354 -0.0885
  149SAPE    C316423   1.863   4.905   6.538 -1.0050 -0.3793  0.5053
  149SAPE    HX16424   1.952   4.838   6.537  0.3114  1.3308  0.8584
  149SAPE    HY16425   1.846   4.928   6.430  0.8737  1.5900  0.5922
  149SAPE   O3116426   1.737   4.854   6.588 -0.3360  0.2312  0.2641
  149SAPE   C3116427   1.732   4.726   6.589 -0.0859  0.1225 -0.7508
  149SAPE   O3216428   1.820   4.653   6.553  0.1084  0.1196  0.0727
  149SAPE   C3216429   1.593   4.680   6.634  0.0113  0.2868  0.1184
  149SAPE   H2X16430   1.539   4.648   6.542  0.3306 -2.0162  0.6871
  149SAPE   H2Y16431   1.542   4.764   6.685  2.0827  1.0697  0.9733
  149SAPE   C2316432   1.894   5.123   7.099  0.2345 -0.2349 -0.1269
  149SAPE   H3R16433   1.824   5.210   7.095 -0.3632 -0.7696 -1.5330
  149SAPE   H3S16434   1.997   5.159   7.079 -0.1341  2.0730  1.7411
  149SAPE   C2416435   1.879   5.069   7.237  0.1564  0.3065 -0.2382
  149SAPE   H4R16436   1.974   5.014   7.254 -0.2915 -0.0085  1.3389
  149SAPE   H4S16437   1.795   5.000   7.258  0.6403 -0.2641 -0.1761
  149SAPE   C2516438   1.896   5.169   7.342  0.0944  0.1941 -0.6816
  149SAPE   H5R16439   1.804   5.228   7.356 -0.3013 -0.3013 -1.1685
  149SAPE   C2616440   1.996   5.182   7.431 -0.5781 -0.3189  0.5956
  149SAPE   H6R16441   2.002   5.282   7.477  0.3978  0.0727 -0.3571
  149SAPE   C2716442   2.125   5.098   7.434  0.1533 -0.5424 -0.1083
  149SAPE   H7R16443   2.196   5.155   7.371 -0.2760 -0.9164 -0.9443
  149SAPE   H7S16444   2.109   4.998   7.387 -1.1549  0.1622 -1.1943
  149SAPE   C2816445   2.175   5.067   7.569  0.1605  0.0537 -0.0212
  149SAPE   H8R16446   2.098   5.043   7.643 -0.7539  0.5133 -0.8062
  149SAPE   C2916447   2.304   5.069   7.607  0.0263 -0.2351  0.4560
  149SAPE   H9R16448   2.327   5.049   7.713 -0.5472  1.6535  0.9519
  149SAPE  C21016449   2.422   5.097   7.513  0.2447  0.0631 -0.0156
  149SAPE  H10R16450   2.450   5.199   7.547 -2.4254  1.3004 -1.3792
  149SAPE  H10S16451   2.396   5.101   7.405 -1.1354  3.1333  0.3749
  149SAPE  C21116452   2.541   5.001   7.539  0.3888  1.0217 -0.7006
  149SAPE  H11R16453   2.525   4.898   7.503  1.0392  1.0300 -1.0239
  149SAPE  C21216454   2.631   5.023   7.639 -0.0597 -0.0378  0.1918
  149SAPE  H12R16455   2.713   4.951   7.649  1.9998  2.0785 -1.1035
  149SAPE  C21316456   2.630   5.154   7.716 -0.7810 -0.0411 -0.4010
  149SAPE  H13R16457   2.526   5.175   7.749 -0.5652  0.0482  0.2194
  149SAPE  H13S16458   2.653   5.232   7.641  0.7589 -0.4025 -0.3196
  149SAPE  C21416459   2.723   5.158   7.833 -0.6330 -0.0772  0.3321
  149SAPE  H14R16460   2.824   5.198   7.813 -0.6173  0.6829  1.8327
  149SAPE  C21516461   2.699   5.120   7.959  0.0114  0.5770  0.1601
  149SAPE  H15R16462   2.769   5.142   8.041  1.9885  0.3008 -1.4371
  149SAPE  C21616463   2.563   5.061   8.006  0.2399 -0.1146 -0.0567
  149SAPE  H16R16464   2.588   4.979   8.077  0.7025  0.2308  0.1846
  149SAPE  H16S16465   2.506   5.010   7.926 -0.7933  2.3684 -0.9660
  149SAPE  C21716466   2.478   5.162   8.077  0.3588  0.1740  0.9193
  149SAPE  H17R16467   2.425   5.228   8.005  0.5251  0.5553  1.1464
  149SAPE  H17S16468   2.542   5.229   8.138  1.3916 -0.3687  0.4246
  149SAPE  C21816469   2.370   5.097   8.162 -0.1875  0.6502  0.3468
  149SAPE  H18R16470   2.422   5.029   8.233  0.0006 -0.6323 -0.9808
  149SAPE  H18S16471   2.311   5.034   8.092 -0.8593  3.4823 -1.7069
  149SAPE  C21916472   2.282   5.183   8.250 -0.6342  0.0189  0.3471
  149SAPE  H19R16473   2.187   5.127   8.265  0.4067 -2.3570 -1.5095
  149SAPE  H19S16474   2.257   5.283   8.209  1.6850  0.7642  0.6894
  149SAPE  C22016475   2.342   5.207   8.389 -0.3062  0.3015 -0.0301
  149SAPE  H20R16476   2.374   5.110   8.434 -1.5434 -0.6649 -1.1790
  149SAPE  H20S16477   2.271   5.240   8.468 -0.4111 -3.0494  1.3731
  149SAPE  H20T16478   2.434   5.269   8.396  1.7169 -2.8904  5.9212
  149SAPE   C3316479   1.615   4.564   6.728  0.0953  0.3202 -0.4464
  149SAPE   H3X16480   1.697   4.498   6.694  0.5317  0.0278  1.1573
  149SAPE   H3Y16481   1.526   4.501   6.707 -0.5154  0.9856  0.1321
  149SAPE   C3416482   1.617   4.580   6.880 -1.1023 -0.2770  0.3197
  149SAPE   H4X16483   1.603   4.479   6.924  0.7899 -0.9857 -0.6750
  149SAPE   H4Y16484   1.534   4.650   6.904 -1.7710  0.0396 -2.7120
  149SAPE   C3516485   1.752   4.623   6.931 -0.4874 -0.9935  0.3340
  149SAPE   H5X16486   1.774   4.726   6.896  0.7987 -1.4681 -0.3089
  149SAPE   H5Y16487   1.837   4.557   6.903  0.7477  1.2981 -1.5072
  149SAPE   C3616488   1.753   4.626   7.091 -0.9198  0.2879 -0.0009
  149SAPE   H6X16489   1.708   4.533   7.130 -1.1026  0.8893  1.2652
  149SAPE   H6Y16490   1.679   4.707   7.111 -0.4730  0.7620 -0.2432
  149SAPE   C3716491   1.886   4.662   7.165  0.6517 -0.1960  0.7860
  149SAPE   H7X16492   1.928   4.755   7.122  0.9866 -1.2424 -1.2495
  149SAPE   H7Y16493   1.953   4.579   7.134  0.3360  0.5537 -2.1391
  149SAPE   C3816494   1.860   4.665   7.318  0.0124 -0.1802 -0.3485
  149SAPE   H8X16495   1.796   4.583   7.356 -0.0091  0.7012  1.5651
  149SAPE   H8Y16496   1.798   4.757   7.330  1.8597  1.0113  0.3587
  149SAPE   C3916497   1.991   4.666   7.407 -0.7895  0.2008 -0.1339
  149SAPE   H9X16498   2.062   4.744   7.374  0.2356 -0.6658 -0.0087
  149SAPE   H9Y16499   2.049   4.572   7.393  1.7747  1.5891  0.9641
  149SAPE  C31016500   1.947   4.683   7.553  0.2133 -0.3897 -0.0212
  149SAPE  H10X16501   1.875   4.602   7.577 -0.6471 -0.8534 -3.8832
  149SAPE  H10Y16502   1.889   4.778   7.556 -0.5326 -0.8664  1.5184
  149SAPE  C31116503   2.060   4.685   7.658 -0.1304 -0.9842 -0.1349
  149SAPE  H11X16504   2.109   4.784   7.648 -1.6089 -0.3181 -0.9120
  149SAPE  H11Y16505   2.141   4.618   7.622  1.5613  0.9186  0.0231
  149SAPE  C31216506   2.016   4.643   7.797 -0.1306  0.1647  0.4227
  149SAPE  H12X16507   1.996   4.534   7.798  1.3524 -0.1239 -0.2274
  149SAPE  H12Y16508   1.912   4.674   7.823  0.3880  0.1133  2.6803
  149SAPE  C31316509   2.126   4.680   7.899  0.3678  0.3788 -0.0243
  149SAPE  H13X16510   2.133   4.790   7.908 -1.3196  0.5232 -0.2890
  149SAPE  H13Y16511   2.224   4.644   7.863  0.0508 -1.2662  0.7133
  149SAPE  C31416512   2.100   4.631   8.045 -0.4237 -0.9584 -0.2301
  149SAPE  H14X16513   2.098   4.519   8.047 -0.8950 -0.9438  0.8911
  149SAPE  H14Y16514   2.000   4.674   8.070  0.6218  0.4147  1.6698
  149SAPE  C31516515   2.210   4.678   8.144  0.7399  0.0017 -0.2018
  149SAPE  H15X16516   2.208   4.788   8.132  0.2659 -0.2785 -2.9972
  149SAPE  H15Y16517   2.313   4.660   8.107  0.3414  1.2944 -2.0482
  149SAPE  C31616518   2.188   4.622   8.290  0.9035 -0.8962  0.9878
  149SAPE  H16X16519   2.183   4.512   8.282  0.3096 -0.7906 -0.2843
  149SAPE  H16Y16520   2.096   4.655   8.344  2.4155  2.4990  1.6541
  149SAPE  C31716521   2.308   4.646   8.380 -0.5383  0.4158 -0.2214
  149SAPE  H17X16522   2.340   4.752   8.379  0.5896  0.0851 -0.1377
  149SAPE  H17Y16523   2.400   4.600   8.338 -0.3244  0.1716  0.5016
  149SAPE  C31816524   2.285   4.595   8.515 -0.2157 -0.2196 -0.3596
  149SAPE  H18X16525   2.195   4.637   8.564  0.4358  0.3854  0.3430
  149SAPE  H18Y16526   2.371   4.625   8.580  0.4548 -1.1926 -0.7843
  149SAPE  H18Z16527   2.283   4.487   8.493  0.5942 -0.0035 -1.6042
  150SAPE     N16528   6.582   6.017   6.253 -0.2808 -0.0976 -1.0061
  150SAPE   HN116529   6.566   6.118   6.272  0.7319  0.1100 -1.2393
  150SAPE   HN216530   6.679   6.014   6.215  0.3443 -0.2947  0.5325
  150SAPE   HN316531   6.514   5.998   6.177 -0.8505 -1.6434 -0.1429
  150SAPE   C1216532   6.570   5.943   6.387 -0.2155 -0.5318  0.4517
  150SAPE  H12A16533   6.476   5.885   6.384  0.4013 -1.6809  2.3278
  150SAPE  H12B16534   6.564   6.020   6.467  0.3229  0.6187 -0.6065
  150SAPE   C1116535   6.676   5.830   6.402 -0.3015 -0.0744 -0.0871
  150SAPE  H11A16536   6.655   5.756   6.322  1.8102  0.8538 -1.5111
  150SAPE  H11B16537   6.647   5.771   6.492 -0.5019 -2.1489 -1.4837
  150SAPE     P16538   6.937   5.825   6.356  0.5400  0.1412  0.0715
  150SAPE   O1316539   6.900   5.733   6.250  0.4027  0.3267 -0.5695
  150SAPE   O1416540   7.034   5.924   6.313  0.0029 -0.0563 -0.6422
  150SAPE   O1216541   6.806   5.891   6.410 -0.0474  0.0101 -0.5426
  150SAPE   O1116542   6.982   5.741   6.477  0.0478 -0.2045 -0.0522
  150SAPE    C116543   6.887   5.650   6.541  0.4374  0.1279 -0.3090
  150SAPE    HA16544   6.815   5.703   6.606  0.8359 -0.3775  0.5589
  150SAPE    HB16545   6.834   5.597   6.459 -0.4001 -1.9118  1.4951
  150SAPE    C216546   6.969   5.550   6.622 -1.0461  0.0364 -0.5758
  150SAPE    HS16547   6.905   5.479   6.680 -0.0025  1.2691  2.1720
  150SAPE   O2116548   7.063   5.617   6.709 -0.1766 -0.0480  0.4006
  150SAPE   C2116549   7.007   5.679   6.814  0.3801  0.8613  0.2589
  150SAPE   O2216550   6.892   5.674   6.847 -0.3185 -0.4079  0.0449
  150SAPE   C2216551   7.111   5.749   6.901  0.2293  0.6079 -0.1113
  150SAPE   H2R16552   7.169   5.674   6.959 -1.2057 -0.1367  0.3875
  150SAPE   H2S16553   7.176   5.801   6.828  1.2992 -0.4750  0.0547
  150SAPE    C316554   7.050   5.460   6.521 -0.4878  0.0993 -0.0699
  150SAPE    HX16555   7.119   5.522   6.460 -2.3119  2.0217 -0.2778
  150SAPE    HY16556   6.967   5.410   6.467 -0.2673 -2.8939  2.2454
  150SAPE   O3116557   7.113   5.354   6.592 -0.7650 -0.1863 -0.1802
  150SAPE   C3116558   7.243   5.357   6.606  0.4632 -0.1291 -0.2825
  150SAPE   O3216559   7.315   5.450   6.577 -0.3090  0.1909 -0.1516
  150SAPE   C3216560   7.287   5.240   6.688 -0.5252  0.0798 -0.0403
  150SAPE   H2X16561   7.364   5.193   6.623 -0.0656 -0.4131  0.8623
  150SAPE   H2Y16562   7.206   5.165   6.702 -0.8481  0.5187  0.4318
  150SAPE   C2316563   7.054   5.849   7.000  0.1495 -0.0600 -0.1958
  150SAPE   H3R16564   6.949   5.831   7.031  0.0256 -1.5966 -1.4512
  150SAPE   H3S16565   7.029   5.943   6.948  0.7406  0.1499 -0.1029
  150SAPE   C2416566   7.152   5.882   7.117 -0.8107  0.4002  0.4572
  150SAPE   H4R16567   7.228   5.959   7.093 -1.0709  0.0116 -1.6856
  150SAPE   H4S16568   7.211   5.790   7.134 -2.1098 -0.2736  1.4332
  150SAPE   C2516569   7.072   5.913   7.242 -0.1684 -0.2449  0.6749
  150SAPE   H5R16570   6.979   5.968   7.222 -0.2901  0.1728  2.2996
  150SAPE   C2616571   7.128   5.915   7.363 -0.7421 -0.2289  0.2029
  150SAPE   H6R16572   7.063   5.919   7.452 -1.0136 -2.7476  0.1674
  150SAPE   C2716573   7.268   5.864   7.402  0.3410 -0.1465 -0.2066
  150SAPE   H7R16574   7.322   5.828   7.312  0.0190  1.0932 -0.9088
  150SAPE   H7S16575   7.260   5.771   7.463  1.4861 -0.3578 -0.3687
  150SAPE   C2816576   7.353   5.970   7.462  0.1523 -0.5762 -0.1819
  150SAPE   H8R16577   7.353   6.063   7.402 -1.3381 -0.8270 -0.5929
  150SAPE   C2916578   7.421   5.961   7.581 -0.2084 -0.3910  0.2173
  150SAPE   H9R16579   7.470   6.053   7.617 -3.3417 -0.1258  4.0369
  150SAPE  C21016580   7.439   5.843   7.676 -0.3104  0.2501 -0.6968
  150SAPE  H10R16581   7.547   5.816   7.667 -0.4346 -0.0912 -1.1410
  150SAPE  H10S16582   7.379   5.756   7.642 -0.5689  0.4798 -0.8291
  150SAPE  C21116583   7.392   5.892   7.821  0.3241 -0.4151 -0.6556
  150SAPE  H11R16584   7.285   5.878   7.844 -0.2662  2.7323 -1.3221
  150SAPE  C21216585   7.473   5.929   7.924 -0.2358 -0.2105 -0.2521
  150SAPE  H12R16586   7.423   5.950   8.019  1.9821  0.2258  0.8614
  150SAPE  C21316587   7.622   5.932   7.927 -0.0536  0.1499  0.4388
  150SAPE  H13R16588   7.650   6.031   7.968  2.4635  0.3715 -1.6835
  150SAPE  H13S16589   7.674   5.933   7.829 -1.2461 -0.2561 -0.2141
  150SAPE  C21416590   7.685   5.821   8.001 -0.1572  0.6845  0.8117
  150SAPE  H14R16591   7.678   5.719   7.961  0.4754  0.1418  2.0414
  150SAPE  C21516592   7.745   5.837   8.121  0.1961 -0.7059 -0.1408
  150SAPE  H15R16593   7.779   5.744   8.171  0.5434 -0.8010 -0.5504
  150SAPE  C21616594   7.751   5.966   8.198 -0.1422  0.0299  0.1927
  150SAPE  H16R16595   7.673   6.039   8.168 -1.5300 -0.7442  1.7808
  150SAPE  H16S16596   7.850   6.015   8.195 -0.6791  1.1345  0.3600
  150SAPE  C21716597   7.719   5.961   8.356  0.2226  0.5448 -0.2034
  150SAPE  H17R16598   7.711   6.057   8.412  2.6364  0.6560 -0.0151
  150SAPE  H17S16599   7.788   5.889   8.405 -0.9951  0.1371  0.9515
  150SAPE  C21816600   7.583   5.899   8.392  0.4536  0.8143 -0.8078
  150SAPE  H18R16601   7.568   5.807   8.332 -2.5987 -0.9156  2.4537
  150SAPE  H18S16602   7.507   5.974   8.360  1.0217  1.9628  0.4572
  150SAPE  C21916603   7.566   5.864   8.548  0.1084 -0.3525  0.2800
  150SAPE  H19R16604   7.463   5.822   8.557 -0.7192  0.9760 -2.5296
  150SAPE  H19S16605   7.566   5.955   8.610 -2.6311  0.0048 -0.1999
  150SAPE  C22016606   7.661   5.763   8.620  0.3331  0.4175  0.3799
  150SAPE  H20R16607   7.615   5.726   8.715 -1.4433 -1.3861 -1.1155
  150SAPE  H20S16608   7.764   5.802   8.634  0.8952 -1.9868  3.6019
  150SAPE  H20T16609   7.666   5.673   8.555 -0.8044 -0.4704  1.4764
  150SAPE   C3316610   7.366   5.279   6.822  0.1264  0.3494 -1.0435
  150SAPE   H3X16611   7.432   5.367   6.807  0.6502  0.0613 -0.4820
  150SAPE   H3Y16612   7.443   5.201   6.842  0.5394  0.6359 -1.4897
  150SAPE   C3416613   7.263   5.303   6.934  0.2804  0.2956  0.1545
  150SAPE   H4X16614   7.212   5.205   6.927  1.2712 -0.2137 -0.0545
  150SAPE   H4Y16615   7.187   5.380   6.909 -0.4004 -1.0820 -2.1495
  150SAPE   C3516616   7.320   5.338   7.078  0.9368  0.9793  0.1463
  150SAPE   H5X16617   7.404   5.266   7.090 -1.1697 -1.8719 -1.5430
  150SAPE   H5Y16618   7.247   5.316   7.159 -2.0932  1.1419 -2.4285
  150SAPE   C3616619   7.374   5.482   7.074  0.2450  0.0016  0.3308
  150SAPE   H6X16620   7.282   5.538   7.102 -0.1893  0.1806 -1.3949
  150SAPE   H6Y16621   7.423   5.497   6.976 -0.8145 -1.8381 -0.4937
  150SAPE   C3716622   7.481   5.502   7.177 -0.5777  0.0154 -0.5942
  150SAPE   H7X16623   7.510   5.609   7.176  1.4423 -0.4717  1.5159
  150SAPE   H7Y16624   7.576   5.448   7.158  0.0116  1.0849 -0.6969
  150SAPE   C3816625   7.439   5.451   7.316  0.1165  0.6029 -0.1873
  150SAPE   H8X16626   7.465   5.344   7.300 -0.0368  0.8785 -2.4870
  150SAPE   H8Y16627   7.330   5.462   7.336  0.2625  0.3733  0.7710
  150SAPE   C3916628   7.505   5.505   7.446  0.5831 -0.1440 -0.3740
  150SAPE   H9X16629   7.461   5.607   7.460  1.4996  0.6135 -2.6513
  150SAPE   H9Y16630   7.615   5.520   7.445  0.6456 -0.5408  0.6082
  150SAPE  C31016631   7.488   5.411   7.574 -0.0491  0.1531  0.1059
  150SAPE  H10X16632   7.553   5.322   7.557  0.0693  0.6574 -2.2343
  150SAPE  H10Y16633   7.389   5.366   7.555  0.7486 -1.2374 -0.8483
  150SAPE  C31116634   7.508   5.474   7.707  0.8360  0.3801  0.0265
  150SAPE  H11X16635   7.426   5.545   7.730  0.6253  1.1208 -2.8587
  150SAPE  H11Y16636   7.601   5.535   7.702 -0.1267  1.7982 -0.7134
  150SAPE  C31216637   7.522   5.369   7.821 -0.6223 -0.1799  0.3300
  150SAPE  H12X16638   7.617   5.312   7.809  0.4583  1.7269 -0.2519
  150SAPE  H12Y16639   7.435   5.300   7.815 -0.6873 -0.1380  0.8170
  150SAPE  C31316640   7.523   5.440   7.961  0.1378  0.2390  0.4019
  150SAPE  H13X16641   7.423   5.490   7.960  0.4364  0.9353  2.5843
  150SAPE  H13Y16642   7.606   5.512   7.978 -0.0925  0.7838 -0.7247
  150SAPE  C31416643   7.537   5.353   8.087 -0.0509 -0.0908  0.1916
  150SAPE  H14X16644   7.618   5.283   8.059 -1.2111 -0.9249 -1.1362
  150SAPE  H14Y16645   7.439   5.304   8.108  0.1088 -0.3889  0.2363
  150SAPE  C31516646   7.599   5.424   8.212  0.6526 -0.0071  0.3096
  150SAPE  H15X16647   7.606   5.345   8.290  1.3377  1.2582  1.5573
  150SAPE  H15Y16648   7.535   5.511   8.237 -0.0158 -1.5539  4.5432
  150SAPE  C31616649   7.744   5.464   8.203  0.6373  0.5282  0.1531
  150SAPE  H16X16650   7.768   5.543   8.130 -0.5127  1.9776  1.3103
  150SAPE  H16Y16651   7.792   5.369   8.172  2.9296  1.6093  0.2893
  150SAPE  C31716652   7.803   5.501   8.345 -0.1621 -0.1641 -0.0187
  150SAPE  H17X16653   7.810   5.412   8.410 -1.0474 -0.1391  0.1076
  150SAPE  H17Y16654   7.742   5.577   8.397 -1.9721 -2.1763  0.8607
  150SAPE  C31816655   7.943   5.566   8.328 -0.4276 -0.1188 -0.1492
  150SAPE  H18X16656   8.014   5.487   8.295  1.4078  0.3284  2.5243
  150SAPE  H18Y16657   7.989   5.623   8.412 -2.7084  0.8362  0.4696
  150SAPE  H18Z16658   7.939   5.633   8.240 -3.5332  1.1007  0.8396
  151SAPE     N16659   2.789   2.827   6.267  0.2689  0.1622 -0.2681
  151SAPE   HN116660   2.753   2.738   6.306 -0.1575  0.2767 -0.4042
  151SAPE   HN216661   2.844   2.877   6.340 -1.0298 -0.7312  1.3572
  151SAPE   HN316662   2.711   2.879   6.223 -0.8613 -2.7293 -1.8256
  151SAPE   C1216663   2.895   2.803   6.161 -0.5769  0.0482 -0.5392
  151SAPE  H12A16664   2.875   2.878   6.082  1.9467  2.5409  1.1160
  151SAPE  H12B16665   2.877   2.699   6.124 -0.4646  0.2303 -1.0986
  151SAPE   C1116666   3.037   2.824   6.221 -0.2856 -0.1561  0.0794
  151SAPE  H11A16667   3.104   2.860   6.140 -1.3658 -1.0449 -1.2448
  151SAPE  H11B16668   3.080   2.732   6.267 -0.9766  0.2534  1.5674
  151SAPE     P16669   3.127   3.042   6.319  0.1078  0.4452  0.4700
  151SAPE   O1316670   3.243   3.008   6.237 -0.0622 -0.1016  0.2813
  151SAPE   O1416671   3.040   3.157   6.278 -0.2759 -0.0245 -0.7770
  151SAPE   O1216672   3.031   2.923   6.331  0.1110  0.5129 -0.0982
  151SAPE   O1116673   3.169   3.073   6.465 -0.1822 -0.0043  0.0939
  151SAPE    C116674   3.226   2.973   6.547 -1.0639  0.6549  0.0147
  151SAPE    HA16675   3.254   2.882   6.490  0.8963  1.0872  0.2381
  151SAPE    HB16676   3.316   3.025   6.586 -0.6320  0.6746 -0.9759
  151SAPE    C216677   3.138   2.949   6.667 -0.4999  0.7125  0.6232
  151SAPE    HS16678   3.203   2.912   6.750  1.3114 -0.2036 -1.1615
  151SAPE   O2116679   3.036   2.851   6.632  0.3157 -0.3765  0.7087
  151SAPE   C2116680   3.064   2.722   6.642 -0.4511 -0.5968  0.5326
  151SAPE   O2216681   3.155   2.678   6.706 -0.3767  0.3467  0.1311
  151SAPE   C2216682   2.958   2.634   6.583  0.7573  0.0478 -0.0109
  151SAPE   H2R16683   2.920   2.694   6.498  1.2936 -0.6539 -0.7459
  151SAPE   H2S16684   3.013   2.549   6.538  2.9938  0.9366  0.9541
  151SAPE    C316685   3.073   3.074   6.725 -0.7791  0.2952  0.8972
  151SAPE    HX16686   3.029   3.121   6.634  2.0538  2.2866  0.4914
  151SAPE    HY16687   3.145   3.149   6.763 -0.2565  1.2984 -1.9905
  151SAPE   O3116688   2.967   3.032   6.817  0.7769 -0.2702  0.1385
  151SAPE   C3116689   2.999   3.036   6.944 -0.0180 -0.1907 -0.7810
  151SAPE   O3216690   3.106   3.080   6.983  0.6303 -0.0445 -0.7087
  151SAPE   C3216691   2.869   2.997   7.022 -0.1891  0.5764  0.3293
  151SAPE   H2X16692   2.877   2.886   7.020  0.9671  0.6638 -1.0380
  151SAPE   H2Y16693   2.789   3.036   6.956  1.2583  5.0317  1.0211
  151SAPE   C2316694   2.857   2.586   6.693 -0.3837  0.5308 -0.4298
  151SAPE   H3R16695   2.761   2.622   6.651 -1.1914 -0.6099  0.4184
  151SAPE   H3S16696   2.867   2.640   6.790  1.7988 -0.3462 -0.1293
  151SAPE   C2416697   2.872   2.438   6.731  0.5960 -0.4250 -0.5246
  151SAPE   H4R16698   2.856   2.374   6.641  2.1005  0.2411 -1.2721
  151SAPE   H4S16699   2.790   2.414   6.803  0.0462 -0.9518 -1.3153
  151SAPE   C2516700   3.014   2.407   6.785 -0.1616 -0.7977  0.2029
  151SAPE   H5R16701   3.091   2.409   6.706 -0.7846  0.3079 -0.3985
  151SAPE   C2616702   3.050   2.396   6.913  0.6968 -0.4571  0.1550
  151SAPE   H6R16703   3.155   2.381   6.941  1.1587  2.3512 -0.0126
  151SAPE   C2716704   2.945   2.408   7.018  0.7639  0.0186 -0.0987
  151SAPE   H7R16705   2.870   2.328   6.997  0.0142  0.1837  1.8220
  151SAPE   H7S16706   2.886   2.502   7.007  0.4033 -0.3588 -1.4815
  151SAPE   C2816707   3.014   2.416   7.157  0.3088  0.4383  0.1752
  151SAPE   H8R16708   3.037   2.318   7.200 -1.0866  0.3732  0.7873
  151SAPE   C2916709   3.040   2.528   7.227 -0.0696 -0.8112  0.7115
  151SAPE   H9R16710   3.091   2.515   7.323  1.0594 -1.7526 -0.0065
  151SAPE  C21016711   3.021   2.672   7.180  0.7433 -0.7882  0.6662
  151SAPE  H10R16712   2.932   2.706   7.237  0.2071 -0.1943 -0.5003
  151SAPE  H10S16713   2.996   2.673   7.072  0.9835 -2.3246  0.5829
  151SAPE  C21116714   3.149   2.755   7.192 -0.7451  0.6621  0.2693
  151SAPE  H11R16715   3.202   2.769   7.097 -2.1059 -0.2080 -0.6364
  151SAPE  C21216716   3.200   2.806   7.305 -0.4105 -0.4230  0.6807
  151SAPE  H12R16717   3.292   2.864   7.293 -0.1129 -1.5319 -2.8351
  151SAPE  C21316718   3.134   2.808   7.441  0.1433  0.5693 -0.7910
  151SAPE  H13R16719   3.168   2.718   7.497 -1.7720  1.0319  1.2123
  151SAPE  H13S16720   3.024   2.794   7.428  0.3008 -0.5193 -1.0391
  151SAPE  C21416721   3.168   2.935   7.510 -0.1089  0.7343  0.1222
  151SAPE  H14R16722   3.099   3.021   7.506 -1.8564 -0.7063 -1.4766
  151SAPE  C21516723   3.264   2.934   7.606 -0.3134 -0.3056  0.5072
  151SAPE  H15R16724   3.285   3.027   7.661  1.0065 -0.6227  0.5662
  151SAPE  C21616725   3.354   2.815   7.651 -0.4316 -0.7179 -0.1202
  151SAPE  H16R16726   3.460   2.832   7.623 -0.9295  4.0060  0.4446
  151SAPE  H16S16727   3.337   2.729   7.583 -1.5407  0.1052 -0.8994
  151SAPE  C21716728   3.346   2.772   7.799 -0.4602 -0.0285 -0.8477
  151SAPE  H17R16729   3.386   2.670   7.813 -1.1985 -0.2887 -0.6114
  151SAPE  H17S16730   3.238   2.774   7.827 -0.2202 -0.4305  0.1063
  151SAPE  C21816731   3.417   2.867   7.897 -0.3177  0.4141  0.2088
  151SAPE  H18R16732   3.389   2.841   8.002  2.0006 -1.6741  0.3507
  151SAPE  H18S16733   3.381   2.972   7.888 -0.2370  0.3297 -1.1290
  151SAPE  C21916734   3.568   2.853   7.876  0.2639 -0.9873  0.2682
  151SAPE  H19R16735   3.606   2.892   7.778  0.1625  0.0588  0.6364
  151SAPE  H19S16736   3.609   2.750   7.887  1.5701 -0.4501  0.5637
  151SAPE  C22016737   3.655   2.930   7.984  0.1285 -0.3877 -0.0034
  151SAPE  H20R16738   3.621   3.036   7.988 -1.9073 -1.1273  3.6198
  151SAPE  H20S16739   3.632   2.887   8.083 -1.9051 -1.5879 -0.9469
  151SAPE  H20T16740   3.761   2.919   7.953  0.2368  0.0624  0.2050
  151SAPE   C3316741   2.837   3.058   7.160 -0.1049 -0.8405  0.6763
  151SAPE   H3X16742   2.810   3.165   7.149 -1.7671 -1.1796  1.2917
  151SAPE   H3Y16743   2.929   3.054   7.220  0.8495 -2.6629 -0.8407
  151SAPE   C3416744   2.715   2.998   7.228 -0.3900  0.0626  0.2704
  151SAPE   H4X16745   2.713   2.887   7.233  1.1702 -0.1222 -2.2757
  151SAPE   H4Y16746   2.621   3.027   7.177 -0.4985  4.2065  2.5983
  151SAPE   C3516747   2.705   3.064   7.366 -0.5554  0.5030  0.3156
  151SAPE   H5X16748   2.597   3.051   7.390 -0.8173  1.9463 -0.0920
  151SAPE   H5Y16749   2.750   3.165   7.369  0.0294  0.2043  3.0713
  151SAPE   C3616750   2.774   2.981   7.474  0.1790 -0.3474 -0.2140
  151SAPE   H6X16751   2.879   3.017   7.479 -0.1412  0.3118  2.3311
  151SAPE   H6Y16752   2.777   2.871   7.455  0.0717 -0.6025  1.2269
  151SAPE   C3716753   2.716   2.997   7.621 -0.4115 -0.4493  0.2149
  151SAPE   H7X16754   2.611   2.960   7.618 -0.2985 -0.8072  0.5969
  151SAPE   H7Y16755   2.708   3.108   7.629  1.8768 -0.3886  1.8979
  151SAPE   C3816756   2.785   2.911   7.726  0.6230  0.1998  0.1924
  151SAPE   H8X16757   2.893   2.932   7.711  0.6522 -0.6984 -0.8662
  151SAPE   H8Y16758   2.777   2.803   7.702  0.4737 -0.3286  2.4667
  151SAPE   C3916759   2.743   2.946   7.867  0.8936 -0.5218 -0.3831
  151SAPE   H9X16760   2.633   2.954   7.882  1.4409  1.2598  3.3906
  151SAPE   H9Y16761   2.782   3.050   7.868  0.7297 -0.4342 -1.9050
  151SAPE  C31016762   2.809   2.863   7.973 -0.0874  0.5770  0.5136
  151SAPE  H10X16763   2.914   2.845   7.940 -0.1470  1.7903 -0.3931
  151SAPE  H10Y16764   2.780   2.756   7.973 -0.0496  0.5438 -1.0614
  151SAPE  C31116765   2.813   2.914   8.117  0.0588  0.8994 -0.2415
  151SAPE  H11X16766   2.817   2.823   8.181 -0.1632  1.3393  0.4106
  151SAPE  H11Y16767   2.715   2.966   8.126 -0.6304 -0.1237 -1.7252
  151SAPE  C31216768   2.935   3.006   8.139  0.7425 -0.5574 -0.0465
  151SAPE  H12X16769   2.926   3.083   8.060  0.0705 -1.2239 -0.6248
  151SAPE  H12Y16770   3.030   2.949   8.129  1.1500 -0.1269  1.3117
  151SAPE  C31316771   2.915   3.082   8.269  0.6179 -0.3163 -0.6335
  151SAPE  H13X16772   2.894   3.014   8.354  0.4638  0.4512 -0.0512
  151SAPE  H13Y16773   2.827   3.146   8.247  0.6771 -0.8043 -2.3175
  151SAPE  C31416774   3.030   3.176   8.304 -0.2711 -0.4520 -0.3906
  151SAPE  H14X16775   3.014   3.246   8.388  0.9891  0.1564 -0.6561
  151SAPE  H14Y16776   3.051   3.244   8.219 -1.1762  1.8634  1.2174
  151SAPE  C31516777   3.174   3.116   8.320 -0.8362 -0.3116  0.1480
  151SAPE  H15X16778   3.244   3.203   8.319 -0.9124 -0.2405  0.7793
  151SAPE  H15Y16779   3.201   3.045   8.239  1.3264 -2.9650  3.0715
  151SAPE  C31616780   3.199   3.048   8.459 -0.0703 -0.1716 -0.2185
  151SAPE  H16X16781   3.121   2.972   8.481  0.1606  0.7256  4.0539
  151SAPE  H16Y16782   3.183   3.114   8.547  0.3414  0.7479 -0.8230
  151SAPE  C31716783   3.343   2.976   8.478  0.4350  0.0485  0.1090
  151SAPE  H17X16784   3.349   2.943   8.584  1.8429  3.1843  1.0630
  151SAPE  H17Y16785   3.416   3.059   8.469  1.9793 -0.8211  3.7523
  151SAPE  C31816786   3.372   2.871   8.371 -0.2252 -0.0274  0.2238
  151SAPE  H18X16787   3.358   2.919   8.271  0.3974 -1.2529 -0.4666
  151SAPE  H18Y16788   3.297   2.790   8.383 -1.4306  0.9818 -0.3237
  151SAPE  H18Z16789   3.476   2.833   8.364 -0.0206  0.3530  1.1810
  152SAPE     N16790   1.004   0.186   6.345  0.0320  0.5673 -0.3239
  152SAPE   HN116791   1.002   0.135   6.254  0.3364  0.8123 -0.4717
  152SAPE   HN216792   1.047   0.279   6.326  0.1044  1.1047  2.2797
  152SAPE   HN316793   1.071   0.149   6.415 -1.2314 -1.3033 -0.0739
  152SAPE   C1216794   0.874   0.211   6.416 -0.6463 -0.0668 -0.6135
  152SAPE  H12A16795   0.802   0.212   6.332 -0.3875 -0.3604 -0.8392
  152SAPE  H12B16796   0.874   0.301   6.481  0.5897  0.5952 -1.5110
  152SAPE   C1116797   0.851   0.095   6.506 -0.2305 -0.3365  0.4305
  152SAPE  H11A16798   0.757   0.106   6.564 -0.9459  2.1396 -1.1334
  152SAPE  H11B16799   0.934   0.085   6.579  1.0592  0.2057 -0.9439
  152SAPE     P16800   0.725  -0.093   6.360 -0.0809  0.4313  0.1187
  152SAPE   O1316801   0.688  -0.027   6.229 -0.5165 -0.2320 -0.2544
  152SAPE   O1416802   0.756  -0.239   6.353 -0.1279 -0.7229 -0.1481
  152SAPE   O1216803   0.859  -0.021   6.421  0.1434 -0.4092 -0.1319
  152SAPE   O1116804   0.615  -0.077   6.474  0.1536  0.0745 -0.2365
  152SAPE    C116805   0.478  -0.104   6.467 -0.0693  0.1396 -0.1802
  152SAPE    HA16806   0.426  -0.008   6.447  0.4898  0.3503 -0.6447
  152SAPE    HB16807   0.448  -0.153   6.371  0.7226 -0.5814 -0.0617
  152SAPE    C216808   0.405  -0.183   6.585  0.1762  0.4313  0.3931
  152SAPE    HS16809   0.297  -0.163   6.570 -0.3204 -0.8644  2.0735
  152SAPE   O2116810   0.461  -0.136   6.715 -0.1717 -0.2137 -0.0387
  152SAPE   C2116811   0.398  -0.033   6.764 -0.7615 -0.1483  0.1387
  152SAPE   O2216812   0.317   0.036   6.710 -0.5972 -0.7489  0.4824
  152SAPE   C2216813   0.461  -0.016   6.902 -0.1278 -0.0655 -0.1201
  152SAPE   H2R16814   0.413  -0.100   6.957 -0.7842 -1.6973 -3.0937
  152SAPE   H2S16815   0.570  -0.028   6.882  0.0895 -1.0521  1.5538
  152SAPE    C316816   0.429  -0.337   6.568  0.1922 -1.1678  0.3285
  152SAPE    HX16817   0.535  -0.368   6.581 -0.1529 -2.2301  0.6496
  152SAPE    HY16818   0.402  -0.367   6.465  1.5361 -0.3988 -0.2741
  152SAPE   O3116819   0.350  -0.406   6.662  0.3148 -0.0568 -0.4683
  152SAPE   C3116820   0.399  -0.436   6.782 -0.2513  0.1539 -0.5031
  152SAPE   O3216821   0.511  -0.411   6.820  0.1972  0.0772  0.8269
  152SAPE   C3216822   0.310  -0.529   6.856  0.1214  0.0931  0.1889
  152SAPE   H2X16823   0.292  -0.621   6.796 -1.1135 -0.9860  2.1673
  152SAPE   H2Y16824   0.209  -0.488   6.879 -0.3064 -1.7163  1.6561
  152SAPE   C2316825   0.430   0.121   6.963  0.1920 -0.9235 -0.5858
  152SAPE   H3R16826   0.319   0.126   6.973  0.0983 -0.3806 -1.7922
  152SAPE   H3S16827   0.464   0.209   6.904  2.5288 -1.1358  0.3959
  152SAPE   C2416828   0.491   0.139   7.103  0.1531  0.2554  0.6023
  152SAPE   H4R16829   0.482   0.245   7.133  0.0563  0.5807 -0.5366
  152SAPE   H4S16830   0.602   0.127   7.098  0.4649  3.0778  0.2437
  152SAPE   C2516831   0.433   0.050   7.209 -0.1430 -0.0410  0.1963
  152SAPE   H5R16832   0.323   0.043   7.211 -0.1065 -0.6107  0.2555
  152SAPE   C2616833   0.503  -0.001   7.303  0.0408 -0.6814 -0.2086
  152SAPE   H6R16834   0.451  -0.070   7.371 -2.1203  2.2639  1.2276
  152SAPE   C2716835   0.652   0.014   7.325  0.4115 -0.6659 -0.4390
  152SAPE   H7R16836   0.681   0.105   7.381 -0.9274  0.3375 -1.3689
  152SAPE   H7S16837   0.709   0.028   7.230  0.5430  3.6363  0.2122
  152SAPE   C2816838   0.710  -0.108   7.391  0.4758 -0.2315  0.9193
  152SAPE   H8R16839   0.772  -0.177   7.332  1.2381 -0.3956  1.8925
  152SAPE   C2916840   0.697  -0.135   7.522 -0.5057 -0.0205 -0.4480
  152SAPE   H9R16841   0.748  -0.221   7.568  1.5057  1.2562 -0.2158
  152SAPE  C21016842   0.623  -0.043   7.624 -0.2156 -0.8937  0.4972
  152SAPE  H10R16843   0.517  -0.045   7.590  0.0863 -0.0416 -0.5183
  152SAPE  H10S16844   0.653   0.064   7.622 -2.8263 -0.1384  0.2818
  152SAPE  C21116845   0.624  -0.090   7.766  1.3281 -0.0201  0.5527
  152SAPE  H11R16846   0.525  -0.124   7.800  0.3542  0.6569 -1.5640
  152SAPE  C21216847   0.733  -0.064   7.848 -0.0027  0.9418  0.4393
  152SAPE  H12R16848   0.745  -0.097   7.952  1.1412 -0.9974 -0.2869
  152SAPE  C21316849   0.860  -0.002   7.795 -0.9569  0.8710 -0.0962
  152SAPE  H13R16850   0.885  -0.038   7.693 -0.1496  2.8923 -0.6294
  152SAPE  H13S16851   0.951  -0.050   7.836 -0.0803  3.4339  1.0942
  152SAPE  C21416852   0.862   0.147   7.809  0.1253 -0.6344  0.1649
  152SAPE  H14R16853   0.814   0.206   7.729  0.5677 -0.7687 -0.1964
  152SAPE  C21516854   0.907   0.221   7.909 -0.2025 -0.4171  0.2686
  152SAPE  H15R16855   0.899   0.330   7.900 -1.9495 -0.7066 -1.9600
  152SAPE  C21616856   0.971   0.167   8.035  0.4734  0.5299  0.2144
  152SAPE  H16R16857   0.979   0.058   8.056  1.7105  0.6575  0.4678
  152SAPE  H16S16858   0.913   0.199   8.124  0.7125  0.7812  0.2801
  152SAPE  C21716859   1.102   0.245   8.041 -0.0572 -0.1356  0.3193
  152SAPE  H17R16860   1.091   0.356   8.038 -0.6814 -0.2176 -0.5598
  152SAPE  H17S16861   1.166   0.222   7.953  0.6424 -0.8846  1.0164
  152SAPE  C21816862   1.188   0.213   8.168  0.6012 -0.6590  0.9356
  152SAPE  H18R16863   1.296   0.225   8.141  0.7517 -1.1132  1.3366
  152SAPE  H18S16864   1.165   0.117   8.219 -0.7208 -0.6796  0.3087
  152SAPE  C21916865   1.170   0.321   8.276  0.7686 -0.4378  0.2552
  152SAPE  H19R16866   1.060   0.334   8.287  0.6241 -0.0054 -1.5140
  152SAPE  H19S16867   1.217   0.406   8.222  2.1891 -0.5491  1.2963
  152SAPE  C22016868   1.252   0.293   8.401  1.0533  0.6020  0.4377
  152SAPE  H20R16869   1.235   0.365   8.484 -2.4078 -0.3269  0.6423
  152SAPE  H20S16870   1.361   0.277   8.389  0.4665 -1.1246 -3.5221
  152SAPE  H20T16871   1.211   0.201   8.450 -1.8037  1.1717 -0.7678
  152SAPE   C3316872   0.360  -0.568   6.996  0.0605  0.3223 -0.4329
  152SAPE   H3X16873   0.453  -0.629   7.001 -0.1651 -0.1960 -2.2014
  152SAPE   H3Y16874   0.278  -0.637   7.026  1.7541 -0.3919  2.8705
  152SAPE   C3416875   0.367  -0.458   7.106 -0.4828 -0.0802 -0.3982
  152SAPE   H4X16876   0.280  -0.390   7.095 -0.8221 -0.2623  0.9966
  152SAPE   H4Y16877   0.458  -0.395   7.098 -1.0091  0.6754 -0.4796
  152SAPE   C3516878   0.369  -0.523   7.249 -0.3123 -0.8668 -0.5262
  152SAPE   H5X16879   0.447  -0.601   7.244 -0.6399 -1.3221  1.3546
  152SAPE   H5Y16880   0.265  -0.562   7.256 -0.9399  0.5801 -1.3875
  152SAPE   C3616881   0.398  -0.418   7.360 -0.8361 -0.6619 -0.2240
  152SAPE   H6X16882   0.339  -0.325   7.342 -2.9847 -1.9725 -0.1672
  152SAPE   H6Y16883   0.501  -0.387   7.333 -1.5139 -0.0146 -2.2174
  152SAPE   C3716884   0.378  -0.480   7.501 -0.1571  0.4092  0.3052
  152SAPE   H7X16885   0.404  -0.588   7.501 -0.2192  0.3810 -1.1985
  152SAPE   H7Y16886   0.277  -0.467   7.544 -0.2826 -2.4406  0.9504
  152SAPE   C3816887   0.477  -0.410   7.596 -0.5027  0.6865 -0.2321
  152SAPE   H8X16888   0.454  -0.304   7.618  0.2533  0.5817  1.1559
  152SAPE   H8Y16889   0.570  -0.404   7.536  0.1472 -0.4704  0.6520
  152SAPE   C3916890   0.499  -0.498   7.720  0.0459  0.2750  0.3168
  152SAPE   H9X16891   0.540  -0.595   7.685 -1.9633 -0.9161  1.1563
  152SAPE   H9Y16892   0.399  -0.514   7.767 -0.1190 -0.3869 -0.2570
  152SAPE  C31016893   0.589  -0.439   7.823  0.5210 -0.2376  0.1019
  152SAPE  H10X16894   0.554  -0.340   7.858  0.0185  0.0792 -1.2879
  152SAPE  H10Y16895   0.679  -0.393   7.777 -0.6904  1.9446 -0.1269
  152SAPE  C31116896   0.626  -0.525   7.942 -0.6787  0.0533 -0.1218
  152SAPE  H11X16897   0.684  -0.615   7.915 -1.9281 -0.8891  0.3095
  152SAPE  H11Y16898   0.535  -0.568   7.989  0.8683 -1.8947  1.1536
  152SAPE  C31216899   0.692  -0.436   8.051  0.2030 -0.7984 -0.8380
  152SAPE  H12X16900   0.714  -0.479   8.151  4.2445 -0.3127 -1.4007
  152SAPE  H12Y16901   0.631  -0.346   8.072 -0.1547 -0.9989 -1.0276
  152SAPE  C31316902   0.829  -0.384   8.008  0.1862 -0.1884 -0.2956
  152SAPE  H13X16903   0.823  -0.306   7.930 -2.4621  0.1016  0.1436
  152SAPE  H13Y16904   0.891  -0.457   7.953  1.3222 -1.0895  2.0978
  152SAPE  C31416905   0.913  -0.334   8.127 -0.2601 -0.3400 -0.0021
  152SAPE  H14X16906   1.006  -0.289   8.086 -1.2988  0.5389 -1.4516
  152SAPE  H14Y16907   0.946  -0.417   8.193  1.4611  0.7478  0.5331
  152SAPE  C31516908   0.850  -0.229   8.218  0.0128 -0.6954 -0.2374
  152SAPE  H15X16909   0.779  -0.280   8.287 -1.0031  0.0118 -0.7428
  152SAPE  H15Y16910   0.790  -0.156   8.160 -4.3792 -2.6380  1.6026
  152SAPE  C31616911   0.944  -0.146   8.296  0.2452  0.4018  0.4305
  152SAPE  H16X16912   1.012  -0.102   8.220  1.8755 -0.5102  1.3464
  152SAPE  H16Y16913   1.013  -0.210   8.356 -1.4152 -0.1227  1.8079
  152SAPE  C31716914   0.885  -0.033   8.375  0.2031  0.4644 -0.1789
  152SAPE  H17X16915   0.810   0.022   8.315  1.5732  1.5812 -0.9000
  152SAPE  H17Y16916   0.972   0.033   8.398  2.1368 -1.9934 -0.2713
  152SAPE  C31816917   0.817  -0.068   8.513 -1.0444 -0.5870  0.3699
  152SAPE  H18X16918   0.792   0.017   8.580 -0.7604  0.1717 -0.4664
  152SAPE  H18Y16919   0.892  -0.120   8.576 -0.8193  0.2203  0.7725
  152SAPE  H18Z16920   0.737  -0.143   8.496 -0.9707 -0.5056 -0.3844
  153SAPE     N16921   3.915   0.292   6.156 -0.0719  0.2555  0.6627
  153SAPE   HN116922   3.996   0.231   6.130 -0.4164  0.1990 -0.2824
  153SAPE   HN216923   3.825   0.241   6.148 -0.2999  0.7038  0.3646
  153SAPE   HN316924   3.924   0.368   6.086  2.6699 -1.5111 -0.9918
  153SAPE   C1216925   3.923   0.330   6.303 -0.6286  0.1774 -0.1740
  153SAPE  H12A16926   3.855   0.416   6.323 -3.4049 -2.1529  0.7863
  153SAPE  H12B16927   4.028   0.360   6.319 -0.2521 -2.0249  1.7409
  153SAPE   C1116928   3.890   0.218   6.398  0.6072  0.2393 -0.5894
  153SAPE  H11A16929   3.946   0.236   6.492 -3.1101  0.6994  1.6682
  153SAPE  H11B16930   3.916   0.118   6.356 -0.8438 -0.5898  0.4086
  153SAPE     P16931   3.637   0.168   6.358  0.4086  0.2091 -0.1691
  153SAPE   O1316932   3.509   0.228   6.403 -0.3679  0.2808 -0.0434
  153SAPE   O1416933   3.668   0.176   6.213  0.1390  0.1253  0.3415
  153SAPE   O1216934   3.748   0.227   6.439 -0.7211 -0.0989 -0.1846
  153SAPE   O1116935   3.643   0.020   6.400 -0.6586 -0.0203 -0.1316
  153SAPE    C116936   3.531  -0.056   6.438 -0.1152 -0.7537 -0.5492
  153SAPE    HA16937   3.441  -0.028   6.379 -1.1453 -0.4400  1.1508
  153SAPE    HB16938   3.552  -0.163   6.421 -2.8339 -1.3679 -0.2556
  153SAPE    C216939   3.497  -0.031   6.582 -0.3689  1.0338 -0.5702
  153SAPE    HS16940   3.436   0.062   6.583 -1.2136  0.4838 -0.5984
  153SAPE   O2116941   3.618  -0.021   6.660 -0.2841  0.1887  1.2998
  153SAPE   C2116942   3.626   0.093   6.731 -0.9680 -0.3729 -0.7132
  153SAPE   O2216943   3.530   0.164   6.756 -0.0030  0.0422 -0.4470
  153SAPE   C2216944   3.768   0.115   6.776  0.6753 -0.1357 -0.2335
  153SAPE   H2R16945   3.833   0.041   6.724 -2.5350 -0.5871 -3.8378
  153SAPE   H2S16946   3.782   0.221   6.745 -1.7251  0.6621  1.2549
  153SAPE    C316947   3.405  -0.149   6.635 -0.0621 -0.3935  0.5262
  153SAPE    HX16948   3.461  -0.245   6.627  2.8519  1.2270  0.4580
  153SAPE    HY16949   3.318  -0.144   6.567  0.6547 -0.5067 -0.4102
  153SAPE   O3116950   3.376  -0.136   6.776 -0.3899  0.1321 -0.0992
  153SAPE   C3116951   3.286  -0.042   6.806  0.2817 -0.6623 -0.3266
  153SAPE   O3216952   3.221   0.022   6.725  0.4475  0.1853 -0.1661
  153SAPE   C3216953   3.272  -0.045   6.958 -0.0826  0.2312 -0.3409
  153SAPE   H2X16954   3.266  -0.149   6.995  1.3076  0.6486  1.1547
  153SAPE   H2Y16955   3.176   0.005   6.980 -1.1742 -1.3819 -1.3492
  153SAPE   C2316956   3.782   0.124   6.932 -0.1717  0.6733 -0.0498
  153SAPE   H3R16957   3.740   0.032   6.978  0.4420  1.2795  1.7936
  153SAPE   H3S16958   3.716   0.207   6.967 -1.1684 -0.1915  0.1534
  153SAPE   C2416959   3.927   0.154   6.988 -0.6887  0.6939 -0.1303
  153SAPE   H4R16960   3.912   0.214   7.080  0.7692  1.3763 -0.3369
  153SAPE   H4S16961   3.979   0.221   6.917 -2.2933  1.7846 -0.2877
  153SAPE   C2516962   4.001   0.021   7.005 -0.1317 -0.6848 -0.5690
  153SAPE   H5R16963   4.056  -0.016   6.918 -3.8715  0.2988 -3.4553
  153SAPE   C2616964   4.003  -0.043   7.124 -0.0628  0.3520 -0.8516
  153SAPE   H6R16965   4.054  -0.141   7.132  1.8208  1.3491 -0.2560
  153SAPE   C2716966   3.933   0.007   7.252 -0.0866  0.1501 -0.1841
  153SAPE   H7R16967   3.896  -0.079   7.312 -1.0645  1.1948  0.7426
  153SAPE   H7S16968   3.839   0.060   7.224  0.0769 -0.1146 -1.2489
  153SAPE   C2816969   4.016   0.089   7.348  1.0743  0.3312  0.2416
  153SAPE   H8R16970   4.012   0.196   7.321 -3.3088  0.2723  0.3055
  153SAPE   C2916971   4.094   0.058   7.454 -0.1330  0.0856 -0.0810
  153SAPE   H9R16972   4.155   0.132   7.507 -0.5914  0.2228  0.2525
  153SAPE  C21016973   4.115  -0.081   7.513  0.2478  0.0923 -0.1126
  153SAPE  H10R16974   4.219  -0.085   7.551  0.4580  0.0080 -0.6985
  153SAPE  H10S16975   4.114  -0.164   7.439 -1.0449  0.1599 -0.1907
  153SAPE  C21116976   4.013  -0.102   7.621  0.2916  0.4034 -0.5063
  153SAPE  H11R16977   3.912  -0.120   7.582 -0.0205  0.4058  0.2836
  153SAPE  C21216978   4.035  -0.109   7.753 -1.6021 -0.3018 -0.4026
  153SAPE  H12R16979   3.945  -0.128   7.812 -2.1144 -0.5952 -1.2709
  153SAPE  C21316980   4.165  -0.100   7.825  0.4064 -0.9753 -0.2559
  153SAPE  H13R16981   4.248  -0.059   7.763 -0.7183  3.9545  1.2723
  153SAPE  H13S16982   4.194  -0.204   7.853 -1.3961 -1.3483  0.2547
  153SAPE  C21416983   4.150  -0.019   7.947  0.7413  0.3468  0.1941
  153SAPE  H14R16984   4.216   0.067   7.968  1.1745 -0.3012  1.6238
  153SAPE  C21516985   4.078  -0.049   8.056  0.3333  0.7161 -0.0645
  153SAPE  H15R16986   4.065   0.034   8.128  1.2287  1.5928 -0.8873
  153SAPE  C21616987   3.986  -0.161   8.078  0.0712  0.1818  0.2401
  153SAPE  H16R16988   3.983  -0.244   8.004 -2.2986  0.4851 -0.0384
  153SAPE  H16S16989   3.882  -0.125   8.070  0.6303  1.6399 -0.6193
  153SAPE  C21716990   3.996  -0.210   8.222  0.0085 -0.5944  0.1620
  153SAPE  H17R16991   3.972  -0.131   8.296 -2.8092 -0.4742 -0.8143
  153SAPE  H17S16992   4.104  -0.230   8.239  0.2309 -0.6627 -1.2489
  153SAPE  C21816993   3.919  -0.335   8.238  0.3328 -0.5497 -0.2799
  153SAPE  H18R16994   3.956  -0.401   8.156 -1.8809 -1.6445 -0.4538
  153SAPE  H18S16995   3.810  -0.326   8.215  0.1017 -1.5323  0.3806
  153SAPE  C21916996   3.942  -0.406   8.372 -0.6765  0.5603 -0.2096
  153SAPE  H19R16997   3.882  -0.350   8.448 -1.1440 -0.0666 -0.1166
  153SAPE  H19S16998   4.048  -0.402   8.406 -0.8453 -1.4303  0.6098
  153SAPE  C22016999   3.912  -0.563   8.372  0.3716 -0.4008  0.2416
  153SAPE  H20R17000   3.994  -0.624   8.329  0.6023 -0.8323  1.2737
  153SAPE  H20S17001   3.811  -0.583   8.329 -0.8861  1.3120  2.2493
  153SAPE  H20T17002   3.917  -0.596   8.478  0.4833 -1.3422 -0.0507
  153SAPE   C3317003   3.380   0.037   7.031  0.4549 -0.2994  0.3679
  153SAPE   H3X17004   3.387   0.140   6.991  0.1883 -0.3375  0.2143
  153SAPE   H3Y17005   3.473  -0.022   7.015 -1.0816 -3.0936  1.2612
  153SAPE   C3417006   3.362   0.031   7.181  0.2996 -0.4374 -0.3622
  153SAPE   H4X17007   3.320  -0.062   7.224 -0.1033 -0.4188 -0.7092
  153SAPE   H4Y17008   3.286   0.109   7.204  0.4784 -1.0356  2.5321
  153SAPE   C3517009   3.501   0.053   7.249 -0.6603 -0.0959 -0.4983
  153SAPE   H5X17010   3.531   0.158   7.226 -1.8565  1.2815  3.7371
  153SAPE   H5Y17011   3.578  -0.020   7.216 -0.9962  0.1602 -1.8680
  153SAPE   C3617012   3.487   0.044   7.398  0.4965 -0.4042 -1.3540
  153SAPE   H6X17013   3.425  -0.044   7.427  0.5998  0.1779  0.7020
  153SAPE   H6Y17014   3.428   0.130   7.436 -1.9007 -1.5924 -2.2257
  153SAPE   C3717015   3.620   0.032   7.466 -0.6155  0.0818 -0.2284
  153SAPE   H7X17016   3.688   0.118   7.448  1.0849 -1.4941 -1.5685
  153SAPE   H7Y17017   3.675  -0.056   7.427  1.1061  1.5851 -1.2664
  153SAPE   C3817018   3.594   0.021   7.618  0.9089  0.0730  0.2140
  153SAPE   H8X17019   3.512  -0.052   7.632  2.1209 -1.5453 -0.9670
  153SAPE   H8Y17020   3.544   0.118   7.637 -1.9876 -1.4064  0.3295
  153SAPE   C3917021   3.722   0.011   7.701  0.6591  0.4112  1.2348
  153SAPE   H9X17022   3.793   0.068   7.637 -0.3594 -1.4472 -1.6580
  153SAPE   H9Y17023   3.738  -0.099   7.699 -1.8722  0.0365 -0.0859
  153SAPE  C31017024   3.708   0.066   7.848  0.2671  0.4423  0.4805
  153SAPE  H10X17025   3.706   0.177   7.844 -2.8149  0.4164  0.1408
  153SAPE  H10Y17026   3.802   0.042   7.902  1.2251  3.2489  0.1675
  153SAPE  C31117027   3.584   0.006   7.921  0.3033  0.4237  0.1516
  153SAPE  H11X17028   3.593  -0.104   7.907 -1.4489  0.1591  0.9575
  153SAPE  H11Y17029   3.490   0.049   7.881 -0.9952 -1.3820  1.1632
  153SAPE  C31217030   3.585   0.040   8.070  0.8378 -0.1134 -0.1305
  153SAPE  H12X17031   3.569   0.149   8.087 -0.0707 -0.5376  1.7516
  153SAPE  H12Y17032   3.680   0.006   8.117  0.0172 -4.7396 -1.5377
  153SAPE  C31317033   3.479  -0.031   8.152  0.0330 -0.1821  0.1694
  153SAPE  H13X17034   3.501  -0.140   8.156  0.0339 -0.1869  0.0427
  153SAPE  H13Y17035   3.379  -0.014   8.107  0.7217  0.0945 -1.2776
  153SAPE  C31417036   3.478   0.029   8.295  0.6570  0.0622  0.1928
  153SAPE  H14X17037   3.579   0.023   8.340  0.7292  0.4003  0.0736
  153SAPE  H14Y17038   3.402  -0.031   8.349  0.2879 -0.5830 -1.0254
  153SAPE  C31517039   3.417   0.172   8.308  0.7435 -0.1644 -0.1903
  153SAPE  H15X17040   3.321   0.173   8.251  0.7383 -2.5944 -0.2657
  153SAPE  H15Y17041   3.472   0.258   8.265  1.0103 -0.0211  0.4344
  153SAPE  C31617042   3.404   0.220   8.453 -0.3038  0.3825 -0.3519
  153SAPE  H16X17043   3.497   0.183   8.501 -0.2199  3.0365  1.6137
  153SAPE  H16Y17044   3.324   0.173   8.513 -1.6670  2.0659 -0.8227
  153SAPE  C31717045   3.396   0.374   8.466  0.0375 -0.1521 -0.0829
  153SAPE  H17X17046   3.482   0.428   8.422 -0.2764  0.3729 -0.0519
  153SAPE  H17Y17047   3.393   0.379   8.577  0.1487 -0.6152 -0.0586
  153SAPE  C31817048   3.271   0.431   8.405 -0.4599  0.2250 -0.4065
  153SAPE  H18X17049   3.274   0.437   8.294 -2.1862 -1.0081 -0.5385
  153SAPE  H18Y17050   3.251   0.535   8.438  0.4894 -0.0457  1.0738
  153SAPE  H18Z17051   3.177   0.375   8.423  0.5603 -0.9584  1.4462
  154SAPE     N17052   0.474   5.970   6.418  0.7445 -1.0338  0.0152
  154SAPE   HN117053   0.492   6.052   6.478 -1.2408 -0.0598 -0.6635
  154SAPE   HN217054   0.370   5.973   6.409  0.6011 -0.2457  1.7198
  154SAPE   HN317055   0.500   5.882   6.467  0.7810  0.5016  2.7931
  154SAPE   C1217056   0.548   5.990   6.290 -0.5480 -0.2769 -0.5404
  154SAPE  H12A17057   0.463   6.026   6.226 -1.1043  1.8900  1.3458
  154SAPE  H12B17058   0.591   5.894   6.253  2.7314  1.0880 -0.4297
  154SAPE   C1117059   0.658   6.093   6.303 -0.1498  0.1346 -0.1952
  154SAPE  H11A17060   0.606   6.179   6.352  0.9625  0.3543  0.6402
  154SAPE  H11B17061   0.695   6.138   6.208 -0.2044 -0.8973 -0.7020
  154SAPE     P17062   0.892   5.989   6.320  0.2444 -0.1295 -0.1947
  154SAPE   O1317063   0.855   5.861   6.256  0.0598 -0.5704 -0.1713
  154SAPE   O1417064   0.950   6.099   6.238  0.4551 -0.4054 -0.5144
  154SAPE   O1217065   0.760   6.048   6.395 -0.1804  0.3150  0.0507
  154SAPE   O1117066   0.992   5.955   6.437 -0.4817 -0.1091 -1.0422
  154SAPE    C117067   0.938   5.944   6.572 -0.0843  0.6004  0.3106
  154SAPE    HA17068   0.835   5.902   6.571  0.1731 -0.0421  0.4754
  154SAPE    HB17069   0.989   5.861   6.626 -1.0140  0.0150  0.3019
  154SAPE    C217070   0.958   6.069   6.660  0.9328  0.2454  0.6400
  154SAPE    HS17071   0.897   6.152   6.619 -0.0866 -1.2161 -0.8621
  154SAPE   O2117072   1.093   6.107   6.641  0.2174 -0.1066 -0.2777
  154SAPE   C2117073   1.118   6.232   6.691 -0.4584  0.3043  0.7890
  154SAPE   O2217074   1.037   6.306   6.741 -0.6332  0.1220  0.2048
  154SAPE   C2217075   1.264   6.268   6.650  0.2039 -0.5958  0.0930
  154SAPE   H2R17076   1.332   6.186   6.682 -1.3546 -0.6828  3.2861
  154SAPE   H2S17077   1.281   6.282   6.541  0.9680  1.0874  0.4080
  154SAPE    C317078   0.923   6.056   6.814 -0.1266  0.0206  0.4626
  154SAPE    HX17079   0.814   6.039   6.822 -0.1129  0.3153  1.3737
  154SAPE    HY17080   0.936   6.153   6.865 -0.8215  0.9244 -1.0430
  154SAPE   O3117081   0.999   5.945   6.863  0.1203  0.3556 -0.3110
  154SAPE   C3117082   0.956   5.907   6.989 -0.4606 -0.0787  0.5051
  154SAPE   O3217083   0.879   5.975   7.056  0.4328 -0.2131  0.0762
  154SAPE   C3217084   1.015   5.769   7.029  0.6867 -0.3091  0.0431
  154SAPE   H2X17085   1.119   5.779   6.991  0.2295  0.5909 -0.9936
  154SAPE   H2Y17086   0.962   5.695   6.964  0.7776  0.7109 -1.2001
  154SAPE   C2317087   1.312   6.404   6.711  0.7262  0.2319 -0.0203
  154SAPE   H3R17088   1.239   6.488   6.702  0.7283  0.3018  0.5983
  154SAPE   H3S17089   1.402   6.438   6.655  0.7782  0.2807  0.0924
  154SAPE   C2417090   1.354   6.386   6.862 -0.1971  0.4822 -0.2596
  154SAPE   H4R17091   1.438   6.314   6.870  0.4710  1.0852 -1.6063
  154SAPE   H4S17092   1.259   6.341   6.899  1.2038 -0.8296  1.8699
  154SAPE   C2517093   1.383   6.513   6.937  0.1069 -0.3040 -1.2230
  154SAPE   H5R17094   1.365   6.608   6.884 -1.7758  0.3002  0.4457
  154SAPE   C2617095   1.429   6.522   7.059  0.0447  0.0600 -0.0999
  154SAPE   H6R17096   1.450   6.622   7.101  0.4005  0.0982 -0.3615
  154SAPE   C2717097   1.478   6.410   7.151 -0.3574  0.1987 -1.0583
  154SAPE   H7R17098   1.453   6.317   7.096  1.2303 -0.5747 -0.4949
  154SAPE   H7S17099   1.418   6.420   7.244 -1.3828  0.0905 -1.6926
  154SAPE   C2817100   1.632   6.407   7.178  0.8394 -0.0280  0.6367
  154SAPE   H8R17101   1.699   6.387   7.094 -1.0888  0.5132 -1.0916
  154SAPE   C2917102   1.685   6.432   7.300 -0.9021 -0.3102 -0.2900
  154SAPE   H9R17103   1.795   6.423   7.311 -1.0942 -1.5557  0.8409
  154SAPE  C21017104   1.617   6.463   7.437 -0.1990 -0.6883  0.0048
  154SAPE  H10R17105   1.510   6.436   7.443 -0.4069 -0.2754 -1.7422
  154SAPE  H10S17106   1.623   6.572   7.456  0.7276 -0.7223 -0.0838
  154SAPE  C21117107   1.691   6.393   7.552  0.4105  0.2196  0.5203
  154SAPE  H11R17108   1.703   6.285   7.533 -0.5156  0.4015 -1.2397
  154SAPE  C21217109   1.728   6.434   7.674 -0.0022  0.6516 -0.2362
  154SAPE  H12R17110   1.766   6.365   7.750  0.2638  2.4957  1.3633
  154SAPE  C21317111   1.706   6.572   7.731  0.2209  0.6050  0.7591
  154SAPE  H13R17112   1.609   6.560   7.784 -0.6116 -2.3823 -1.3407
  154SAPE  H13S17113   1.685   6.654   7.660 -2.4121  0.9507  1.8566
  154SAPE  C21417114   1.811   6.618   7.836  0.3067  0.5883  0.4293
  154SAPE  H14R17115   1.894   6.673   7.789  1.2388 -0.0145  1.3384
  154SAPE  C21517116   1.816   6.588   7.975 -0.5343 -0.0181  0.0316
  154SAPE  H15R17117   1.905   6.619   8.031 -0.2937 -1.5558  0.5180
  154SAPE  C21617118   1.712   6.499   8.041 -0.0320 -0.4467 -0.5163
  154SAPE  H16R17119   1.758   6.419   8.104  0.6927  2.3230  2.6321
  154SAPE  H16S17120   1.652   6.438   7.971 -0.1360 -1.7320  0.6545
  154SAPE  C21717121   1.608   6.590   8.119  0.1368  0.5519 -0.6718
  154SAPE  H17R17122   1.522   6.531   8.155  0.0682  1.1467  0.1573
  154SAPE  H17S17123   1.577   6.672   8.050  0.7524  0.6704 -0.8174
  154SAPE  C21817124   1.663   6.653   8.253 -0.0516  0.0830  0.0016
  154SAPE  H18R17125   1.581   6.720   8.288 -0.7682  0.2879 -1.9741
  154SAPE  H18S17126   1.753   6.718   8.244  0.9535 -1.1004  1.4364
  154SAPE  C21917127   1.682   6.565   8.381 -0.4645 -0.3331  0.4387
  154SAPE  H19R17128   1.753   6.486   8.348  1.2861  1.0843  0.7020
  154SAPE  H19S17129   1.586   6.511   8.393 -0.1301 -1.3140 -1.1339
  154SAPE  C22017130   1.735   6.632   8.509  0.2555 -0.7835  0.6180
  154SAPE  H20R17131   1.738   6.548   8.582 -0.1486 -1.5296 -0.2166
  154SAPE  H20S17132   1.669   6.708   8.557 -0.4548 -0.8567 -0.2451
  154SAPE  H20T17133   1.832   6.682   8.488  0.4339 -1.7147 -0.8357
  154SAPE   C3317134   1.005   5.725   7.178  0.0112  0.3019  0.1277
  154SAPE   H3X17135   0.979   5.617   7.177  1.7406 -0.1996  3.0160
  154SAPE   H3Y17136   0.922   5.779   7.228  0.7977  0.1094  1.6608
  154SAPE   C3417137   1.133   5.756   7.248 -0.5634  0.0425  0.0392
  154SAPE   H4X17138   1.131   5.866   7.265 -2.2271 -0.2766  2.0292
  154SAPE   H4Y17139   1.224   5.723   7.192  0.1276  1.7294  0.1326
  154SAPE   C3517140   1.128   5.697   7.393 -0.6473 -1.2777  0.3076
  154SAPE   H5X17141   1.235   5.709   7.420 -0.3657 -1.6751 -0.6029
  154SAPE   H5Y17142   1.122   5.587   7.386  0.1102 -1.3743  1.0660
  154SAPE   C3617143   1.030   5.768   7.480  0.2981 -0.2884 -0.0056
  154SAPE   H6X17144   0.925   5.761   7.443  0.7151 -2.4931 -0.8171
  154SAPE   H6Y17145   1.059   5.872   7.503 -0.3522 -0.8122  3.4023
  154SAPE   C3717146   1.035   5.694   7.618 -0.3628  0.5539  0.0965
  154SAPE   H7X17147   0.993   5.592   7.602  3.0141 -0.7360 -1.0592
  154SAPE   H7Y17148   0.973   5.748   7.692  2.7881  1.5696  2.1126
  154SAPE   C3817149   1.180   5.689   7.682 -0.3315 -0.6506  0.3234
  154SAPE   H8X17150   1.214   5.794   7.668 -0.1515 -0.3854  2.5030
  154SAPE   H8Y17151   1.242   5.616   7.626 -0.1035  0.2845 -0.6736
  154SAPE   C3917152   1.197   5.636   7.829  0.5070  0.0164 -0.0138
  154SAPE   H9X17153   1.219   5.527   7.832  3.8289  0.6718  3.9094
  154SAPE   H9Y17154   1.101   5.656   7.881  0.4450 -2.5021  0.8814
  154SAPE  C31017155   1.319   5.693   7.901  0.0549  0.5308 -0.3864
  154SAPE  H10X17156   1.328   5.799   7.870 -2.3037  1.3653  1.5485
  154SAPE  H10Y17157   1.415   5.647   7.869 -0.6855 -1.3639  0.0282
  154SAPE  C31117158   1.318   5.674   8.053  0.7488  0.3609  0.0560
  154SAPE  H11X17159   1.304   5.568   8.086  1.5365  0.3229  0.2792
  154SAPE  H11Y17160   1.228   5.726   8.093 -0.7092 -1.1606 -1.1568
  154SAPE  C31217161   1.448   5.727   8.121  0.3162  0.1324  1.4672
  154SAPE  H12X17162   1.469   5.828   8.082 -0.3462 -1.4151 -3.1590
  154SAPE  H12Y17163   1.526   5.657   8.084  0.1870  0.7403  0.0238
  154SAPE  C31317164   1.426   5.731   8.274  0.3640  0.2634 -0.3135
  154SAPE  H13X17165   1.391   5.627   8.288 -0.7053  0.5558 -0.7621
  154SAPE  H13Y17166   1.343   5.803   8.295  0.2662 -0.3575  1.5122
  154SAPE  C31417167   1.554   5.758   8.359 -0.3218  0.8577  0.1068
  154SAPE  H14X17168   1.584   5.865   8.357 -0.5549  0.9140 -0.6432
  154SAPE  H14Y17169   1.636   5.690   8.327  0.7623  2.2625 -0.1346
  154SAPE  C31517170   1.527   5.721   8.510  0.2652 -0.3873  0.4313
  154SAPE  H15X17171   1.534   5.614   8.539  2.3804 -0.7261 -1.1385
  154SAPE  H15Y17172   1.424   5.748   8.541 -0.7406  0.9999 -3.7601
  154SAPE  C31617173   1.623   5.800   8.594 -0.2883 -0.4941 -0.8412
  154SAPE  H16X17174   1.600   5.768   8.698  1.0111 -0.9291 -0.6822
  154SAPE  H16Y17175   1.605   5.910   8.599 -1.9730 -0.8376  0.8724
  154SAPE  C31717176   1.770   5.804   8.565  0.2071  0.0873  0.3462
  154SAPE  H17X17177   1.781   5.835   8.459  1.0374  0.8559  0.6530
  154SAPE  H17Y17178   1.813   5.702   8.573  1.4246  0.6346  0.9312
  154SAPE  C31817179   1.847   5.898   8.657  0.1863 -0.6977  0.3256
  154SAPE  H18X17180   1.945   5.857   8.688  0.8850  0.0646 -0.8323
  154SAPE  H18Y17181   1.793   5.903   8.754 -1.6470  1.1046 -0.7336
  154SAPE  H18Z17182   1.863   6.003   8.623  2.4571 -0.6176  1.5586
  155SAPE     N17183   0.971   1.027   6.370 -0.1224 -0.1312 -0.2215
  155SAPE   HN117184   0.927   0.953   6.312 -0.3640 -0.3124  0.1877
  155SAPE   HN217185   0.924   1.119   6.356 -0.6090 -0.2640  0.5056
  155SAPE   HN317186   1.066   1.033   6.327 -0.8012  0.3330 -1.6988
  155SAPE   C1217187   0.975   0.980   6.515  0.3425 -0.1582 -0.9105
  155SAPE  H12A17188   0.871   0.957   6.545 -0.4821  2.4514 -1.6100
  155SAPE  H12B17189   1.012   1.067   6.574 -0.0570 -0.6475  0.0861
  155SAPE   C1117190   1.067   0.857   6.552  0.4655 -0.1532 -0.5311
  155SAPE  H11A17191   1.016   0.767   6.510 -0.6285  1.3349 -2.4709
  155SAPE  H11B17192   1.076   0.837   6.661 -1.4809 -3.7810 -0.9603
  155SAPE     P17193   1.323   0.920   6.571  0.1443  0.1948  0.5776
  155SAPE   O1317194   1.442   0.875   6.494 -0.3282  0.2418  0.3637
  155SAPE   O1417195   1.299   1.065   6.585 -0.4413 -0.3113  0.1112
  155SAPE   O1217196   1.193   0.869   6.492  0.1394 -0.2956  0.5771
  155SAPE   O1117197   1.312   0.842   6.714 -0.0888 -0.2556  0.0437
  155SAPE    C117198   1.329   0.704   6.729  0.0638  0.0358 -0.2956
  155SAPE    HA17199   1.236   0.651   6.700 -1.2943  0.4936  3.0209
  155SAPE    HB17200   1.415   0.670   6.668  2.6194 -0.0194  3.1983
  155SAPE    C217201   1.360   0.656   6.882  0.2862  0.5268 -0.3487
  155SAPE    HS17202   1.303   0.714   6.958  2.9723 -0.5263  2.5930
  155SAPE   O2117203   1.498   0.662   6.909  0.2377  0.4500 -0.1838
  155SAPE   C2117204   1.565   0.778   6.919 -0.8202  0.0619  0.1753
  155SAPE   O2217205   1.524   0.886   6.896 -0.3769  0.3364 -0.0314
  155SAPE   C2217206   1.705   0.736   6.973 -0.1792 -0.0965  0.1183
  155SAPE   H2R17207   1.767   0.825   6.996  1.7476 -1.3153 -0.2002
  155SAPE   H2S17208   1.686   0.680   7.067 -2.2010 -0.4441 -0.4846
  155SAPE    C317209   1.305   0.511   6.894 -0.0524 -0.3582 -0.1797
  155SAPE    HX17210   1.342   0.433   6.824 -0.1961  0.6855 -1.4475
  155SAPE    HY17211   1.198   0.508   6.863 -0.0260 -0.6622 -0.2453
  155SAPE   O3117212   1.303   0.479   7.030  0.3686  0.1892 -0.2019
  155SAPE   C3117213   1.388   0.382   7.069  0.1425  0.7209 -0.1025
  155SAPE   O3217214   1.458   0.316   6.997 -0.3442  0.2131 -0.0379
  155SAPE   C3217215   1.394   0.380   7.219 -0.1626 -1.0466 -0.0252
  155SAPE   H2X17216   1.435   0.279   7.239 -2.5900 -1.8609  1.1002
  155SAPE   H2Y17217   1.292   0.383   7.263 -0.2720 -0.6036 -0.3073
  155SAPE   C2317218   1.782   0.639   6.888  0.3231 -0.8539  0.0593
  155SAPE   H3R17219   1.805   0.694   6.795  0.1611  2.1002  1.7035
  155SAPE   H3S17220   1.721   0.552   6.856  0.0325  0.0366 -1.8386
  155SAPE   C2417221   1.920   0.605   6.948  0.1884  0.5112  0.6686
  155SAPE   H4R17222   1.963   0.702   6.983  3.1583 -0.8107  0.8104
  155SAPE   H4S17223   1.994   0.567   6.874 -0.8726  3.7796 -2.2603
  155SAPE   C2517224   1.906   0.504   7.056  0.2434  0.0067 -0.0669
  155SAPE   H5R17225   1.862   0.411   7.015 -0.6523  0.0670  0.7370
  155SAPE   C2617226   1.924   0.515   7.190  0.1989 -0.4865 -0.1463
  155SAPE   H6R17227   1.896   0.424   7.245  0.1334  0.5431  1.5398
  155SAPE   C2717228   1.972   0.633   7.263  0.1705 -0.3276  0.5839
  155SAPE   H7R17229   1.894   0.653   7.340 -1.2904  1.6036 -1.3212
  155SAPE   H7S17230   1.961   0.720   7.195 -0.8429 -1.6673 -1.0095
  155SAPE   C2817231   2.112   0.646   7.315  0.5097  0.8867  0.4410
  155SAPE   H8R17232   2.188   0.667   7.238 -0.5954 -1.3839 -1.3030
  155SAPE   C2917233   2.158   0.642   7.439  0.1843 -0.2498 -0.5596
  155SAPE   H9R17234   2.267   0.648   7.453  0.5767 -1.2355 -2.9263
  155SAPE  C21017235   2.077   0.612   7.568  0.0809 -0.1515  0.1339
  155SAPE  H10R17236   2.082   0.504   7.593  2.3504  0.3190  1.9169
  155SAPE  H10S17237   1.970   0.633   7.548 -0.3399 -1.4045  1.0157
  155SAPE  C21117238   2.127   0.676   7.696  1.0657 -0.1907  0.5748
  155SAPE  H11R17239   2.078   0.774   7.707 -0.4244 -0.5976 -2.0497
  155SAPE  C21217240   2.217   0.628   7.784 -0.4259  0.7853  0.7221
  155SAPE  H12R17241   2.247   0.700   7.861  2.1885  0.7192 -0.1782
  155SAPE  C21317242   2.295   0.499   7.784 -0.0303 -0.4335 -0.9562
  155SAPE  H13R17243   2.225   0.424   7.740 -0.6437 -0.2654 -0.2855
  155SAPE  H13S17244   2.308   0.485   7.893 -0.3553  0.4083 -0.8033
  155SAPE  C21417245   2.429   0.521   7.722  0.0738  0.4634  0.0685
  155SAPE  H14R17246   2.438   0.501   7.614  1.4888 -2.9495  0.7663
  155SAPE  C21517247   2.542   0.552   7.789  0.4121  0.0500 -0.3850
  155SAPE  H15R17248   2.627   0.578   7.724  1.3672 -0.1527  0.7586
  155SAPE  C21617249   2.554   0.576   7.942 -0.0852  0.1120 -0.3309
  155SAPE  H16R17250   2.479   0.513   7.994 -0.1444  0.0853 -0.4464
  155SAPE  H16S17251   2.537   0.682   7.970 -2.4923 -0.1809 -0.5317
  155SAPE  C21717252   2.695   0.539   7.999 -0.2251 -0.4809  0.1704
  155SAPE  H17R17253   2.763   0.608   7.945 -0.0291  0.5647  1.7226
  155SAPE  H17S17254   2.720   0.435   7.970 -0.2260 -0.5349  0.3663
  155SAPE  C21817255   2.699   0.556   8.145 -0.5400 -0.0237 -0.5132
  155SAPE  H18R17256   2.615   0.509   8.200 -1.4223  1.4012 -0.6245
  155SAPE  H18S17257   2.681   0.664   8.160 -0.5115  0.1824 -1.9220
  155SAPE  C21917258   2.834   0.504   8.195  0.1926 -0.8904 -0.2246
  155SAPE  H19R17259   2.916   0.551   8.137 -0.4587  0.7895  0.1710
  155SAPE  H19S17260   2.831   0.396   8.172 -2.8008 -0.8527 -0.1624
  155SAPE  C22017261   2.844   0.518   8.344  0.4048  0.0391 -0.5006
  155SAPE  H20R17262   2.769   0.447   8.385 -0.3215  0.1992 -1.5430
  155SAPE  H20S17263   2.810   0.621   8.365  1.8604  0.2105  1.1707
  155SAPE  H20T17264   2.950   0.512   8.377  0.9095 -1.9237 -2.3527
  155SAPE   C3317265   1.488   0.486   7.286  0.2750  0.3589 -0.0958
  155SAPE   H3X17266   1.438   0.585   7.283 -0.3536  0.0716  0.6023
  155SAPE   H3Y17267   1.580   0.498   7.226  1.8038 -3.1978  1.4030
  155SAPE   C3417268   1.520   0.459   7.433 -0.4077 -0.7330 -0.4185
  155SAPE   H4X17269   1.583   0.368   7.429  1.3028  0.4029  0.0297
  155SAPE   H4Y17270   1.428   0.435   7.491 -0.0865 -1.3429 -0.1643
  155SAPE   C3517271   1.585   0.578   7.512  0.5652 -0.2542  0.5618
  155SAPE   H5X17272   1.507   0.640   7.562  0.6694  0.6669 -0.4060
  155SAPE   H5Y17273   1.642   0.648   7.448  0.7497  0.7962  1.8632
  155SAPE   C3617274   1.675   0.523   7.618 -0.1119 -0.6619 -0.4606
  155SAPE   H6X17275   1.777   0.497   7.585  0.0383 -0.2083 -0.3450
  155SAPE   H6Y17276   1.640   0.422   7.648 -0.6841 -0.9943 -2.1830
  155SAPE   C3717277   1.683   0.610   7.752  0.4605 -0.1561  0.1370
  155SAPE   H7X17278   1.576   0.609   7.782  0.5603  1.6791  0.6354
  155SAPE   H7Y17279   1.725   0.708   7.720  0.5844 -0.5224 -0.8382
  155SAPE   C3817280   1.770   0.541   7.855 -0.7241 -0.1702 -0.3543
  155SAPE   H8X17281   1.856   0.491   7.804 -0.6615  1.0892 -1.5118
  155SAPE   H8Y17282   1.709   0.463   7.906  0.7671 -1.7690 -0.9583
  155SAPE   C3917283   1.822   0.640   7.967 -0.4917 -0.1217  0.4602
  155SAPE   H9X17284   1.728   0.673   8.017 -1.1629  1.8864 -1.9902
  155SAPE   H9Y17285   1.882   0.725   7.928 -0.1398 -0.4739  0.2323
  155SAPE  C31017286   1.905   0.569   8.069 -0.1117  0.3437 -0.3252
  155SAPE  H10X17287   2.002   0.542   8.022 -0.4024 -0.1472 -0.6381
  155SAPE  H10Y17288   1.846   0.482   8.103 -1.1330  1.5710  1.1343
  155SAPE  C31117289   1.917   0.652   8.200 -0.5142  0.1640  0.1889
  155SAPE  H11X17290   1.922   0.585   8.289 -3.2514  0.0154  0.2723
  155SAPE  H11Y17291   1.826   0.714   8.213  0.6356  1.6017  1.6914
  155SAPE  C31217292   2.045   0.741   8.200  0.3686 -0.4468 -0.9338
  155SAPE  H12X17293   2.025   0.804   8.290  1.5174 -1.8380  0.3381
  155SAPE  H12Y17294   2.048   0.790   8.101 -1.0827 -1.0536 -1.2866
  155SAPE  C31317295   2.188   0.682   8.243 -0.9032  0.4365  0.2067
  155SAPE  H13X17296   2.265   0.745   8.193  0.3310 -0.5944  0.7708
  155SAPE  H13Y17297   2.203   0.586   8.188 -0.4454  0.2254  0.6940
  155SAPE  C31417298   2.213   0.670   8.390  0.6324  0.5287 -1.2313
  155SAPE  H14X17299   2.137   0.615   8.449  0.8083  1.3292 -0.2371
  155SAPE  H14Y17300   2.194   0.769   8.437  0.4722 -0.0505 -0.0908
  155SAPE  C31517301   2.357   0.622   8.414 -0.4994  1.1963  0.6114
  155SAPE  H15X17302   2.412   0.686   8.341 -0.4927 -2.3530 -2.6564
  155SAPE  H15Y17303   2.368   0.513   8.396  0.0490  1.6664 -2.0404
  155SAPE  C31617304   2.418   0.653   8.553  0.0426 -0.6412  0.5626
  155SAPE  H16X17305   2.350   0.607   8.628 -1.3747  1.8346  0.8404
  155SAPE  H16Y17306   2.418   0.762   8.571 -0.8427 -0.8161  1.6904
  155SAPE  C31717307   2.560   0.600   8.561 -0.2450  1.2455  0.0381
  155SAPE  H17X17308   2.625   0.659   8.495 -2.2388 -0.3140 -3.4597
  155SAPE  H17Y17309   2.558   0.490   8.541 -0.6967  0.9022  1.8409
  155SAPE  C31817310   2.610   0.606   8.711  0.3294 -0.4569  0.0909
  155SAPE  H18X17311   2.606   0.709   8.753 -0.4507 -0.9784  1.3178
  155SAPE  H18Y17312   2.718   0.582   8.708  0.3691 -0.1452 -1.3426
  155SAPE  H18Z17313   2.561   0.535   8.781 -0.0861 -0.6328 -0.3786
  156SAPE     N17314   5.745   0.824   6.435 -0.2632  0.0044 -0.4296
  156SAPE   HN117315   5.694   0.816   6.344 -0.4732 -0.3906 -0.2746
  156SAPE   HN217316   5.671   0.799   6.503  1.7654  0.6004  2.0762
  156SAPE   HN317317   5.771   0.925   6.445  0.3686 -0.0282 -1.6504
  156SAPE   C1217318   5.851   0.720   6.431 -0.2603 -0.2494  0.7202
  156SAPE  H12A17319   5.870   0.699   6.324 -2.1673  0.4274  0.2395
  156SAPE  H12B17320   5.823   0.626   6.484  0.3397 -0.6070  0.4131
  156SAPE   C1117321   5.980   0.780   6.495  0.4999  0.3926 -0.2480
  156SAPE  H11A17322   6.060   0.703   6.484 -0.5111 -0.4864 -1.7410
  156SAPE  H11B17323   5.966   0.801   6.603  0.7932  0.1478 -0.1601
  156SAPE     P17324   6.012   1.038   6.437  0.1240 -0.0979  0.3202
  156SAPE   O1317325   6.083   1.112   6.335 -0.5139  0.7206  0.0775
  156SAPE   O1417326   5.868   1.065   6.463 -0.6462 -0.5552 -0.0375
  156SAPE   O1217327   6.023   0.882   6.405 -0.3103 -0.8410  0.4416
  156SAPE   O1117328   6.087   1.051   6.579 -0.4199 -0.4498  0.1737
  156SAPE    C117329   6.227   1.021   6.598  0.5415 -0.0249 -0.6434
  156SAPE    HA17330   6.281   0.980   6.509  1.6895  0.3582 -0.1386
  156SAPE    HB17331   6.279   1.116   6.623 -0.8789  1.7342 -4.0503
  156SAPE    C217332   6.241   0.929   6.720 -0.2441 -0.0340 -0.3247
  156SAPE    HS17333   6.203   0.827   6.697 -0.6070  0.3222 -1.3026
  156SAPE   O2117334   6.187   0.989   6.830  0.8865 -0.2498 -0.2151
  156SAPE   C2117335   6.064   0.960   6.871 -0.2868  0.0775  0.9716
  156SAPE   O2217336   5.991   0.876   6.824 -0.1790 -0.7458 -0.3530
  156SAPE   C2217337   6.017   1.042   6.990 -0.6211  0.1210  0.1435
  156SAPE   H2R17338   6.028   1.149   6.965  0.5731  0.0851  0.4905
  156SAPE   H2S17339   5.915   1.013   7.023 -1.8606  1.4578 -2.3681
  156SAPE    C317340   6.380   0.895   6.759  0.6099 -0.2199 -0.1172
  156SAPE    HX17341   6.441   0.980   6.798  1.9600 -1.0800 -0.3386
  156SAPE    HY17342   6.432   0.869   6.664  0.4655  3.0181 -1.1476
  156SAPE   O3117343   6.387   0.776   6.835  0.9414  0.2448  0.1070
  156SAPE   C3117344   6.405   0.794   6.968 -0.2241  0.1046  0.3156
  156SAPE   O3217345   6.422   0.901   7.026 -0.3965 -0.2249 -0.1635
  156SAPE   C3217346   6.404   0.656   7.027  0.4885  0.4037  0.0829
  156SAPE   H2X17347   6.465   0.585   6.967 -1.3283  0.0300 -1.3913
  156SAPE   H2Y17348   6.303   0.610   7.032  0.7517  0.0186  2.4830
  156SAPE   C2317349   6.111   1.023   7.105 -0.3675  0.2589 -0.4114
  156SAPE   H3R17350   6.104   1.104   7.181 -2.5250  0.0252 -0.3153
  156SAPE   H3S17351   6.220   1.029   7.085  0.4048 -1.9101  2.7829
  156SAPE   C2417352   6.077   0.892   7.186 -0.8307 -0.3853  0.2788
  156SAPE   H4R17353   6.175   0.875   7.237 -0.0647  0.9846 -0.6887
  156SAPE   H4S17354   6.064   0.809   7.114 -1.2010  0.2179 -0.3550
  156SAPE   C2517355   5.961   0.919   7.272  0.5592  0.0079  0.4972
  156SAPE   H5R17356   5.859   0.925   7.230  0.1795 -1.4836  1.1616
  156SAPE   C2617357   5.969   0.917   7.401  0.4109  0.3220  0.0081
  156SAPE   H6R17358   5.875   0.918   7.459  0.7099  1.3936  0.4957
  156SAPE   C2717359   6.096   0.910   7.477 -0.4060 -0.2433 -0.0829
  156SAPE   H7R17360   6.085   0.967   7.573 -1.0575  1.1276 -0.9517
  156SAPE   H7S17361   6.183   0.959   7.428 -0.6223  0.2049 -0.0280
  156SAPE   C2817362   6.149   0.770   7.509  0.2164  0.3680  0.6935
  156SAPE   H8R17363   6.160   0.715   7.415  2.3966 -0.4623  1.4075
  156SAPE   C2917364   6.212   0.727   7.618 -0.1402 -0.9032 -0.0196
  156SAPE   H9R17365   6.241   0.621   7.620  1.9119 -0.3502  2.9206
  156SAPE  C21017366   6.233   0.794   7.757 -0.0327  0.0205  0.1465
  156SAPE  H10R17367   6.203   0.901   7.762  1.2174  0.3115  1.7605
  156SAPE  H10S17368   6.342   0.789   7.778  0.0181  1.5385  0.3177
  156SAPE  C21117369   6.158   0.708   7.852  0.0098 -0.5453  0.3201
  156SAPE  H11R17370   6.067   0.662   7.811  0.1918 -0.7766  0.1792
  156SAPE  C21217371   6.186   0.675   7.976  0.1702  0.0940 -0.3593
  156SAPE  H12R17372   6.112   0.623   8.038 -0.1292  0.3550 -0.4964
  156SAPE  C21317373   6.313   0.695   8.050 -0.3348  0.1191 -0.6688
  156SAPE  H13R17374   6.403   0.708   7.986 -0.7418 -0.7823 -1.4434
  156SAPE  H13S17375   6.334   0.604   8.112 -2.8770 -0.0920 -0.0690
  156SAPE  C21417376   6.307   0.832   8.120  0.6893  0.6312 -0.0339
  156SAPE  H14R17377   6.271   0.916   8.059  0.3410  0.2848 -0.3107
  156SAPE  C21517378   6.327   0.852   8.249  0.2667 -0.0888  0.0555
  156SAPE  H15R17379   6.333   0.957   8.283 -1.6661 -1.0886  3.7947
  156SAPE  C21617380   6.364   0.761   8.360 -0.1542  0.5963 -0.1262
  156SAPE  H16R17381   6.460   0.797   8.403  0.4403 -1.6462  0.4763
  156SAPE  H16S17382   6.376   0.657   8.323  0.7112  0.9830 -0.9489
  156SAPE  C21717383   6.240   0.759   8.460 -0.9478  0.0401  0.6989
  156SAPE  H17R17384   6.229   0.865   8.490  1.8834  0.6419 -0.2037
  156SAPE  H17S17385   6.284   0.711   8.550 -0.7019  1.3236  1.2843
  156SAPE  C21817386   6.115   0.708   8.397 -0.2007  0.1073 -0.7610
  156SAPE  H18R17387   6.112   0.597   8.395 -1.7794  0.0565  1.4375
  156SAPE  H18S17388   6.093   0.742   8.294 -3.1449  0.4169 -0.0754
  156SAPE  C21917389   6.001   0.748   8.494  0.6404  0.6624 -0.2009
  156SAPE  H19R17390   6.007   0.857   8.511 -1.0868  0.9586 -1.2632
  156SAPE  H19S17391   6.012   0.706   8.596  0.3743 -1.6439 -1.0951
  156SAPE  C22017392   5.855   0.708   8.443 -0.7965  0.1506  0.5295
  156SAPE  H20R17393   5.830   0.758   8.347 -0.1342  0.1931  0.3742
  156SAPE  H20S17394   5.782   0.733   8.523  0.1571 -1.5411  1.9738
  156SAPE  H20T17395   5.855   0.598   8.428  0.8894  0.4807 -2.1985
  156SAPE   C3317396   6.461   0.646   7.171 -0.3395 -0.2401 -0.6190
  156SAPE   H3X17397   6.462   0.747   7.218 -1.2812 -0.1157 -0.8567
  156SAPE   H3Y17398   6.569   0.620   7.167  0.0317  0.9109  1.1900
  156SAPE   C3417399   6.385   0.545   7.262  0.9744 -0.3369 -0.6492
  156SAPE   H4X17400   6.408   0.446   7.217 -0.7576 -1.2762  0.4463
  156SAPE   H4Y17401   6.278   0.574   7.271  1.2724  0.8177 -0.7669
  156SAPE   C3517402   6.443   0.548   7.410  0.4615  0.3729  0.2399
  156SAPE   H5X17403   6.392   0.476   7.479  1.9073 -2.2599 -1.3401
  156SAPE   H5Y17404   6.439   0.654   7.442  0.9447  0.5408 -0.2543
  156SAPE   C3617405   6.591   0.513   7.424  0.1382 -0.1801  0.7171
  156SAPE   H6X17406   6.657   0.599   7.401  0.4958 -0.0142  2.3091
  156SAPE   H6Y17407   6.609   0.429   7.354  1.1198 -0.2644  1.0666
  156SAPE   C3717408   6.635   0.464   7.560 -0.6128  0.0806 -0.5589
  156SAPE   H7X17409   6.746   0.453   7.560 -0.7163 -0.9863 -0.4500
  156SAPE   H7Y17410   6.599   0.362   7.584 -0.7868  0.3722  0.4330
  156SAPE   C3817411   6.591   0.562   7.675 -0.5333 -0.3102  0.3731
  156SAPE   H8X17412   6.489   0.600   7.650 -0.6499 -0.6247  0.3661
  156SAPE   H8Y17413   6.657   0.651   7.666 -0.6626 -0.0499  1.9690
  156SAPE   C3917414   6.592   0.505   7.815  0.5878 -0.0282  0.5871
  156SAPE   H9X17415   6.520   0.420   7.821 -2.5267  2.4503 -0.4250
  156SAPE   H9Y17416   6.549   0.585   7.879 -1.3409  0.0960 -0.8138
  156SAPE  C31017417   6.731   0.465   7.867  0.9292 -0.3665  0.6582
  156SAPE  H10X17418   6.796   0.551   7.838  3.0977 -1.5157  1.9897
  156SAPE  H10Y17419   6.755   0.375   7.806 -1.7532 -0.0465 -0.9581
  156SAPE  C31117420   6.746   0.429   8.011 -1.0492 -0.0127  0.3937
  156SAPE  H11X17421   6.676   0.488   8.074 -1.5036  0.5220 -0.5980
  156SAPE  H11Y17422   6.850   0.453   8.043 -0.9085  0.9880 -0.7751
  156SAPE  C31217423   6.719   0.278   8.027  0.2246 -0.3665  0.0206
  156SAPE  H12X17424   6.782   0.227   7.951  0.5883 -0.4970  0.4075
  156SAPE  H12Y17425   6.618   0.248   7.993 -0.7849  1.2343  1.5198
  156SAPE  C31317426   6.745   0.228   8.171  0.2671 -0.4067  0.5759
  156SAPE  H13X17427   6.709   0.123   8.166 -0.5099 -0.1026 -0.2678
  156SAPE  H13Y17428   6.676   0.275   8.245 -0.9524 -0.7795 -0.3037
  156SAPE  C31417429   6.886   0.251   8.228  0.0732 -0.3387 -0.4887
  156SAPE  H14X17430   6.909   0.359   8.244  1.0080 -0.4198 -1.2660
  156SAPE  H14Y17431   6.965   0.220   8.157  1.1223  0.9553  0.0995
  156SAPE  C31517432   6.899   0.180   8.366 -0.4785 -0.2437 -1.0077
  156SAPE  H15X17433   6.839   0.088   8.351  0.2872 -0.8154 -0.6407
  156SAPE  H15Y17434   6.854   0.249   8.439  1.9256 -1.2605  1.5218
  156SAPE  C31617435   7.046   0.150   8.414  0.2763  0.9305 -0.7152
  156SAPE  H16X17436   7.091   0.251   8.420 -0.6364  1.4329 -2.0652
  156SAPE  H16Y17437   7.098   0.096   8.332 -0.5481 -1.4134  0.2753
  156SAPE  C31717438   7.050   0.075   8.550 -0.6526 -0.2112 -0.3867
  156SAPE  H17X17439   7.014  -0.029   8.532 -2.4581 -0.0411  2.0458
  156SAPE  H17Y17440   6.980   0.120   8.624 -0.1843  1.6771 -1.0587
  156SAPE  C31817441   7.186   0.077   8.617  0.7271 -0.2566  0.2884
  156SAPE  H18X17442   7.261   0.028   8.551 -1.2398 -0.0253 -2.2125
  156SAPE  H18Y17443   7.167   0.035   8.718 -1.4375  2.1262  0.9364
  156SAPE  H18Z17444   7.212   0.184   8.631  1.5930 -0.3333 -0.6260
  157SAPE     N17445   4.825   2.389   6.497 -0.3664  0.2518 -0.4835
  157SAPE   HN117446   4.887   2.356   6.573 -0.1448  1.6865 -0.0171
  157SAPE   HN217447   4.775   2.308   6.456  0.2650 -0.5455  0.3017
  157SAPE   HN317448   4.889   2.437   6.431  1.3302 -1.8061 -0.3907
  157SAPE   C1217449   4.722   2.482   6.561  0.5775  1.3110 -0.1240
  157SAPE  H12A17450   4.778   2.573   6.592  3.8871 -0.6460 -0.0826
  157SAPE  H12B17451   4.671   2.429   6.645 -0.4597 -1.4261 -2.4026
  157SAPE   C1117452   4.617   2.516   6.456 -0.0783  0.3543  0.6454
  157SAPE  H11A17453   4.651   2.596   6.387  0.2159  0.9704  1.5012
  157SAPE  H11B17454   4.531   2.557   6.514 -0.7424  0.8341 -0.6510
  157SAPE     P17455   4.482   2.417   6.256 -0.1811 -0.0338  0.1819
  157SAPE   O1317456   4.532   2.509   6.153 -0.0845  0.0642  0.1439
  157SAPE   O1417457   4.449   2.278   6.213  0.6527 -0.1399 -0.2347
  157SAPE   O1217458   4.577   2.401   6.382 -0.1133 -0.4484 -0.3970
  157SAPE   O1117459   4.351   2.472   6.320  0.5463 -0.1293 -0.2107
  157SAPE    C117460   4.296   2.434   6.444  0.5357  0.7177 -0.0378
  157SAPE    HA17461   4.245   2.337   6.432  0.6332  0.5978  0.4725
  157SAPE    HB17462   4.381   2.415   6.514  0.4955 -3.1515 -0.9210
  157SAPE    C217463   4.193   2.542   6.487 -0.4894  0.8533  0.6061
  157SAPE    HS17464   4.230   2.645   6.468  1.1305  0.0954 -0.5719
  157SAPE   O2117465   4.154   2.514   6.618 -0.2600  0.1080 -0.0869
  157SAPE   C2117466   4.237   2.560   6.710 -0.0770  0.9711 -0.2255
  157SAPE   O2217467   4.349   2.604   6.683 -0.5015  0.3515 -0.3168
  157SAPE   C2217468   4.175   2.538   6.846 -0.0570 -0.3994  0.1369
  157SAPE   H2R17469   4.093   2.613   6.858  0.5841 -0.0719  2.7267
  157SAPE   H2S17470   4.141   2.432   6.847 -1.4890  0.0345 -0.5538
  157SAPE    C317471   4.063   2.531   6.393  0.5677 -0.3159 -0.2185
  157SAPE    HX17472   4.024   2.427   6.400  0.8112 -0.3376  0.8417
  157SAPE    HY17473   4.094   2.555   6.289  1.0792  0.1136  0.0315
  157SAPE   O3117474   3.962   2.620   6.441 -0.8225 -0.1299  0.2537
  157SAPE   C3117475   3.979   2.742   6.395  0.1786 -0.6933 -0.0841
  157SAPE   O3217476   4.073   2.793   6.339 -0.1463 -0.0830 -0.6192
  157SAPE   C3217477   3.841   2.817   6.432 -0.1705  0.0964  0.1009
  157SAPE   H2X17478   3.791   2.759   6.512  1.2177  0.1247  1.0160
  157SAPE   H2Y17479   3.776   2.799   6.344 -0.4508 -1.5910  0.6323
  157SAPE   C2317480   4.270   2.543   6.966 -0.4931  0.7065 -0.0669
  157SAPE   H3R17481   4.347   2.623   6.959  0.6898 -0.4773 -0.9108
  157SAPE   H3S17482   4.326   2.447   6.962  0.4889  1.3357 -2.6831
  157SAPE   C2417483   4.204   2.566   7.099 -0.0715  0.8671 -0.2745
  157SAPE   H4R17484   4.162   2.669   7.105 -3.4216 -0.4883  0.5052
  157SAPE   H4S17485   4.288   2.575   7.171 -0.9567  1.2047  0.7217
  157SAPE   C2517486   4.108   2.457   7.126  0.9877 -0.3900 -1.0082
  157SAPE   H5R17487   4.051   2.407   7.045  1.7157  1.0283 -2.4235
  157SAPE   C2617488   4.079   2.423   7.250 -0.2227  0.2783  0.3797
  157SAPE   H6R17489   4.006   2.342   7.267  1.0213 -1.3209 -1.7123
  157SAPE   C2717490   4.135   2.476   7.384  0.3334  0.0110 -0.3073
  157SAPE   H7R17491   4.065   2.448   7.467  0.7477  2.4608  0.9054
  157SAPE   H7S17492   4.156   2.584   7.396 -0.0490  0.0868 -0.2919
  157SAPE   C2817493   4.267   2.416   7.428  0.6822 -0.0400  0.0154
  157SAPE   H8R17494   4.330   2.395   7.340 -0.3265  1.5152 -1.0992
  157SAPE   C2917495   4.316   2.391   7.551 -0.3691  0.0297  0.2019
  157SAPE   H9R17496   4.422   2.359   7.556 -0.0107  0.8042 -1.8460
  157SAPE  C21017497   4.238   2.425   7.673 -0.0757  0.2373 -0.1330
  157SAPE  H10R17498   4.142   2.371   7.660  0.7799 -1.0355 -1.2838
  157SAPE  H10S17499   4.214   2.533   7.668  0.1557  0.1889 -2.5320
  157SAPE  C21117500   4.314   2.400   7.803 -0.1463  0.3722  0.2710
  157SAPE  H11R17501   4.401   2.464   7.822 -0.5616  1.4320 -1.2885
  157SAPE  C21217502   4.295   2.305   7.898  0.0847  0.2832  0.5470
  157SAPE  H12R17503   4.351   2.311   7.992  0.5920 -0.7041  0.3140
  157SAPE  C21317504   4.195   2.192   7.897  0.1284  0.9049  0.1787
  157SAPE  H13R17505   4.155   2.168   7.796 -1.9612  1.2142  0.8980
  157SAPE  H13S17506   4.105   2.227   7.952  1.3591  1.4034  1.9096
  157SAPE  C21417507   4.255   2.071   7.972  0.3212 -0.0806 -0.2199
  157SAPE  H14R17508   4.278   1.990   7.901  1.2946  0.6326 -0.7441
  157SAPE  C21517509   4.276   2.064   8.104 -0.1898  0.2489  0.4856
  157SAPE  H15R17510   4.313   1.974   8.155  1.0269  0.9799  0.9151
  157SAPE  C21617511   4.242   2.167   8.206  0.4922 -0.2230 -0.8302
  157SAPE  H16R17512   4.221   2.259   8.147  1.8759  1.4615  1.2345
  157SAPE  H16S17513   4.335   2.192   8.262 -0.4144  0.4387  0.4181
  157SAPE  C21717514   4.115   2.121   8.287 -0.2363 -0.1443  0.1991
  157SAPE  H17R17515   4.138   2.026   8.341 -1.0747 -0.2252  0.4095
  157SAPE  H17S17516   4.030   2.095   8.220  0.6149  3.0656 -2.2671
  157SAPE  C21817517   4.072   2.223   8.385 -0.0522  0.3051 -1.1944
  157SAPE  H18R17518   4.054   2.322   8.336  1.5590  1.6757  0.8810
  157SAPE  H18S17519   4.147   2.253   8.461 -0.2416  1.4300 -1.4271
  157SAPE  C21917520   3.946   2.181   8.467 -0.0643 -0.2728  0.2794
  157SAPE  H19R17521   3.968   2.082   8.513 -0.4663 -0.5509 -0.1162
  157SAPE  H19S17522   3.852   2.169   8.410  0.5148  1.2922 -1.0456
  157SAPE  C22017523   3.917   2.273   8.589 -0.6165 -0.4224  0.5080
  157SAPE  H20R17524   3.832   2.219   8.637 -1.0635 -1.7731 -1.7365
  157SAPE  H20S17525   3.892   2.375   8.553  1.5855  0.2079  0.7104
  157SAPE  H20T17526   4.003   2.276   8.659 -0.7929  0.1962  0.7026
  157SAPE   C3317527   3.855   2.961   6.458  0.0047 -0.7110  0.1927
  157SAPE   H3X17528   3.770   3.024   6.425  1.6498 -0.0776 -3.0096
  157SAPE   H3Y17529   3.942   2.998   6.401  0.2306 -4.3202 -1.9744
  157SAPE   C3417530   3.871   2.991   6.607 -0.0718 -0.4718 -0.2305
  157SAPE   H4X17531   3.776   2.972   6.662 -0.2650 -1.1098 -0.7845
  157SAPE   H4Y17532   3.897   3.098   6.619 -0.2820 -0.4122 -0.2939
  157SAPE   C3517533   3.981   2.904   6.682  0.1202  0.0465 -0.5718
  157SAPE   H5X17534   4.079   2.925   6.635 -0.0668 -0.7195 -1.3117
  157SAPE   H5Y17535   3.960   2.798   6.659  0.0399  0.3402 -1.8983
  157SAPE   C3617536   4.005   2.925   6.830  1.2629  0.4026 -0.2163
  157SAPE   H6X17537   4.040   3.030   6.838 -0.3937  0.8767  1.0577
  157SAPE   H6Y17538   4.072   2.849   6.876  0.0362 -1.2100 -1.0637
  157SAPE   C3717539   3.874   2.916   6.906 -0.5407  0.1182 -0.1059
  157SAPE   H7X17540   3.804   2.840   6.867 -1.3548  0.3517  0.8845
  157SAPE   H7Y17541   3.821   3.012   6.884 -0.7095 -0.2497 -1.3172
  157SAPE   C3817542   3.900   2.892   7.052 -0.2731  0.0579  0.2390
  157SAPE   H8X17543   3.931   2.786   7.065  0.7161  0.5066  1.7082
  157SAPE   H8Y17544   3.804   2.912   7.104  0.1896  0.6864  0.8694
  157SAPE   C3917545   4.008   2.984   7.113 -0.0460  0.1805 -0.1812
  157SAPE   H9X17546   3.999   3.089   7.078 -1.1804 -0.8556 -3.2065
  157SAPE   H9Y17547   4.108   2.943   7.085 -0.4441  1.2802 -3.4374
  157SAPE  C31017548   3.970   2.993   7.261 -0.3908  0.8615 -0.0960
  157SAPE  H10X17549   3.860   3.011   7.268 -0.3850  0.4900  0.9924
  157SAPE  H10Y17550   4.024   3.071   7.319  1.4438  0.3126 -1.0286
  157SAPE  C31117551   3.999   2.869   7.348 -0.2994  0.2680 -0.9857
  157SAPE  H11X17552   4.106   2.840   7.362 -1.3851 -2.4724  2.2621
  157SAPE  H11Y17553   3.954   2.783   7.294  0.8293 -1.9353  1.4580
  157SAPE  C31217554   3.927   2.869   7.484  0.3858  0.0514 -0.4150
  157SAPE  H12X17555   3.821   2.855   7.454  1.2884 -1.0929 -3.1723
  157SAPE  H12Y17556   3.938   2.962   7.544 -2.5805 -0.4052  0.9362
  157SAPE  C31317557   3.970   2.753   7.577  0.1838  0.1595  0.9692
  157SAPE  H13X17558   4.081   2.756   7.568  0.2372 -1.4246  0.9085
  157SAPE  H13Y17559   3.937   2.659   7.528  0.6395  0.4442  0.0916
  157SAPE  C31417560   3.929   2.757   7.725 -0.5148 -0.1907  0.1216
  157SAPE  H14X17561   3.818   2.761   7.726 -0.4774  3.4261 -1.7414
  157SAPE  H14Y17562   3.962   2.852   7.772 -0.2374 -0.9851  1.5455
  157SAPE  C31517563   3.966   2.629   7.798 -0.9786  0.8053 -0.1838
  157SAPE  H15X17564   4.073   2.643   7.825 -1.6207  0.5561  2.6053
  157SAPE  H15Y17565   3.952   2.540   7.733  0.6717  1.3687 -1.3580
  157SAPE  C31617566   3.872   2.602   7.922  0.3993 -0.5915  0.4886
  157SAPE  H16X17567   3.771   2.575   7.884 -0.3133 -0.7524  2.4126
  157SAPE  H16Y17568   3.870   2.696   7.980 -1.3819 -0.9888  1.1325
  157SAPE  C31717569   3.931   2.495   8.017 -0.3986 -0.0900 -0.2121
  157SAPE  H17X17570   4.029   2.536   8.049  0.1273 -0.9079 -0.7725
  157SAPE  H17Y17571   3.954   2.396   7.971  0.6993 -0.4132  0.9761
  157SAPE  C31817572   3.841   2.470   8.132 -0.1193  0.2110 -0.3633
  157SAPE  H18X17573   3.815   2.562   8.189  0.8584 -1.8368  3.5794
  157SAPE  H18Y17574   3.890   2.402   8.205  1.5002  3.4257  1.6828
  157SAPE  H18Z17575   3.750   2.424   8.089  0.5711  0.0744 -1.6979
  158SAPE     N17576   5.417   0.599   5.875 -0.2518 -0.0614 -0.1672
  158SAPE   HN117577   5.315   0.620   5.877 -0.2417 -0.1959  2.3612
  158SAPE   HN217578   5.461   0.693   5.880 -0.0612 -0.1084 -0.8749
  158SAPE   HN317579   5.446   0.547   5.789 -2.7929 -1.5057 -0.2032
  158SAPE   C1217580   5.447   0.520   5.994 -0.4379  0.1223 -0.0053
  158SAPE  H12A17581   5.557   0.520   6.000 -0.3556  3.3420 -0.9925
  158SAPE  H12B17582   5.430   0.412   5.970 -0.1812  0.5682 -2.2928
  158SAPE   C1117583   5.364   0.557   6.112  0.7375  0.1536  0.2757
  158SAPE  H11A17584   5.408   0.514   6.205  2.9430 -1.1067 -1.3138
  158SAPE  H11B17585   5.267   0.505   6.100  0.4510  0.7351  0.0629
  158SAPE     P17586   5.217   0.775   6.166  0.2329 -0.0861 -0.3323
  158SAPE   O1317587   5.249   0.919   6.196  0.2755 -0.9540  0.2831
  158SAPE   O1417588   5.115   0.745   6.063 -0.7299 -0.0752 -0.0015
  158SAPE   O1217589   5.355   0.701   6.123 -0.2228 -0.1841  0.3998
  158SAPE   O1117590   5.185   0.696   6.297  0.1268  0.1676  0.1962
  158SAPE    C117591   5.175   0.758   6.425  0.2340 -0.0964 -0.0495
  158SAPE    HA17592   5.197   0.867   6.431 -1.0727  0.0347  3.3056
  158SAPE    HB17593   5.071   0.745   6.462 -0.1899  2.7373 -0.1325
  158SAPE    C217594   5.271   0.682   6.525 -0.3059  0.0562  0.5049
  158SAPE    HS17595   5.372   0.668   6.481 -0.3637 -0.1398  0.4330
  158SAPE   O2117596   5.202   0.555   6.557 -0.6414 -0.4652  0.1212
  158SAPE   C2117597   5.280   0.448   6.581 -0.7052  0.3802 -0.1685
  158SAPE   O2217598   5.401   0.454   6.579 -0.6068 -0.1157 -0.5469
  158SAPE   C2217599   5.191   0.322   6.608 -0.0943  0.0541 -0.9208
  158SAPE   H2R17600   5.107   0.345   6.678 -0.7881 -1.5861 -1.1841
  158SAPE   H2S17601   5.142   0.302   6.510  1.4705 -1.7067 -1.3722
  158SAPE    C317602   5.290   0.763   6.654 -1.2762 -0.4681 -0.3880
  158SAPE    HX17603   5.189   0.769   6.699 -0.0615 -0.6765  2.4703
  158SAPE    HY17604   5.328   0.863   6.626 -1.5124 -0.5021 -0.8397
  158SAPE   O3117605   5.382   0.705   6.743 -0.2721 -0.2648 -0.1427
  158SAPE   C3117606   5.513   0.716   6.713  0.5437  0.5551  0.3206
  158SAPE   O3217607   5.560   0.779   6.618 -0.1020  0.0805 -0.8188
  158SAPE   C3217608   5.588   0.627   6.817 -0.0326 -0.1960 -0.6388
  158SAPE   H2X17609   5.597   0.522   6.782 -1.0777 -1.3347  2.3483
  158SAPE   H2Y17610   5.534   0.626   6.914  2.6116 -0.1838  0.9034
  158SAPE   C2317611   5.268   0.196   6.656 -0.3747 -0.7059  1.0038
  158SAPE   H3R17612   5.361   0.212   6.598  0.0008 -0.4795  1.6623
  158SAPE   H3S17613   5.216   0.108   6.613 -0.0856  0.5184 -1.9775
  158SAPE   C2417614   5.280   0.180   6.809  0.8002 -0.0778  0.3147
  158SAPE   H4R17615   5.179   0.151   6.844  1.4645 -1.7165  0.9528
  158SAPE   H4S17616   5.312   0.272   6.861  0.8403  0.3422 -0.4537
  158SAPE   C2517617   5.376   0.075   6.843  0.1020  0.3606  0.5266
  158SAPE   H5R17618   5.417   0.011   6.764  0.4476 -0.5286  1.4149
  158SAPE   C2617619   5.436   0.059   6.967  0.6258 -0.1634  0.6474
  158SAPE   H6R17620   5.506  -0.026   6.967  0.7484 -0.0643 -0.3763
  158SAPE   C2717621   5.431   0.146   7.096 -0.2778  0.4564  0.4468
  158SAPE   H7R17622   5.471   0.247   7.074 -0.3627  0.4478  0.2557
  158SAPE   H7S17623   5.507   0.100   7.163 -0.6450 -1.1309 -0.2003
  158SAPE   C2817624   5.295   0.170   7.150  0.8613 -0.1829  0.1571
  158SAPE   H8R17625   5.212   0.159   7.080  1.0561  0.6167 -0.2030
  158SAPE   C2917626   5.264   0.210   7.273  1.0058  0.9972  0.0247
  158SAPE   H9R17627   5.158   0.231   7.293  0.3513 -0.1594 -2.0169
  158SAPE  C21017628   5.354   0.229   7.392  0.1242  0.0728  0.8228
  158SAPE  H10R17629   5.322   0.323   7.440 -0.2820  0.6358 -0.5182
  158SAPE  H10S17630   5.455   0.252   7.350  0.4265  2.1927  2.6469
  158SAPE  C21117631   5.337   0.103   7.476  0.3175 -0.1985  0.0534
  158SAPE  H11R17632   5.254   0.031   7.465  1.0970 -1.2157  0.7892
  158SAPE  C21217633   5.413   0.078   7.583  0.7583  0.0058  0.3745
  158SAPE  H12R17634   5.388  -0.019   7.629 -1.7873 -0.0413 -1.0013
  158SAPE  C21317635   5.525   0.168   7.640  0.5978 -0.1956  0.3016
  158SAPE  H13R17636   5.559   0.235   7.558  2.3967 -3.0909 -1.3967
  158SAPE  H13S17637   5.606   0.107   7.685  0.3866 -1.0899 -0.5304
  158SAPE  C21417638   5.470   0.257   7.754 -0.1059 -0.1981 -0.2868
  158SAPE  H14R17639   5.469   0.366   7.736  1.5616 -0.1508 -0.1558
  158SAPE  C21517640   5.427   0.209   7.876 -0.4540  0.2334 -0.1799
  158SAPE  H15R17641   5.405   0.280   7.957  1.5933 -1.5813  2.0142
  158SAPE  C21617642   5.434   0.064   7.914 -0.2129  0.3503  0.0227
  158SAPE  H16R17643   5.488   0.007   7.836 -2.2741  1.2426 -2.1279
  158SAPE  H16S17644   5.333   0.018   7.916 -0.4938  0.8602 -1.7512
  158SAPE  C21717645   5.492   0.038   8.051 -0.3636 -0.1144 -0.2896
  158SAPE  H17R17646   5.588   0.092   8.061 -0.2133 -0.3222 -0.6192
  158SAPE  H17S17647   5.521  -0.070   8.057 -0.9545 -0.2538  0.1107
  158SAPE  C21817648   5.399   0.080   8.166  0.4289  0.3402 -0.4046
  158SAPE  H18R17649   5.317   0.005   8.169  0.7469  0.0312  4.4062
  158SAPE  H18S17650   5.353   0.176   8.133  1.5739  0.6880 -1.0169
  158SAPE  C21917651   5.457   0.117   8.303  0.2172 -0.1809  0.3997
  158SAPE  H19R17652   5.540   0.188   8.283  1.5766 -2.0681 -0.8600
  158SAPE  H19S17653   5.517   0.043   8.361  0.0466 -0.8475 -0.2571
  158SAPE  C22017654   5.349   0.175   8.398  0.8542  0.6170 -0.3751
  158SAPE  H20R17655   5.276   0.092   8.412  1.6942  0.2422  2.0461
  158SAPE  H20S17656   5.302   0.266   8.357  0.6511  1.1411  1.0094
  158SAPE  H20T17657   5.392   0.204   8.497 -1.3260  0.8989  0.5006
  158SAPE   C3317658   5.725   0.679   6.840  0.0073 -0.2208  0.0673
  158SAPE   H3X17659   5.736   0.788   6.821  1.8160 -0.4145 -0.1132
  158SAPE   H3Y17660   5.787   0.627   6.763 -2.2842  0.1556 -2.0837
  158SAPE   C3417661   5.784   0.661   6.980 -0.0304  0.0750  0.7177
  158SAPE   H4X17662   5.748   0.726   7.063 -1.3226 -0.7774  0.8370
  158SAPE   H4Y17663   5.895   0.671   6.978 -0.1491  1.2221 -0.4445
  158SAPE   C3517664   5.747   0.520   7.038  0.0801  0.4639 -0.8488
  158SAPE   H5X17665   5.761   0.440   6.963  0.7893  1.4214 -1.7550
  158SAPE   H5Y17666   5.639   0.520   7.064  0.5717  2.2733  1.4062
  158SAPE   C3617667   5.819   0.482   7.170 -0.7151  0.1259  0.1115
  158SAPE   H6X17668   5.928   0.491   7.150  0.0984 -2.2854  3.0693
  158SAPE   H6Y17669   5.794   0.376   7.189  1.1180 -0.4252 -0.4631
  158SAPE   C3717670   5.772   0.566   7.289 -0.6870 -0.1934  0.1259
  158SAPE   H7X17671   5.821   0.666   7.284 -0.2115 -0.4131  0.3723
  158SAPE   H7Y17672   5.662   0.585   7.281 -0.5772 -0.0081 -0.9579
  158SAPE   C3817673   5.810   0.501   7.419  0.7339 -0.4749  0.0244
  158SAPE   H8X17674   5.921   0.507   7.422  0.6612  0.1240  1.8779
  158SAPE   H8Y17675   5.779   0.395   7.417  1.2432 -0.6098 -0.8144
  158SAPE   C3917676   5.758   0.570   7.550 -0.5114  0.6829  0.3010
  158SAPE   H9X17677   5.647   0.579   7.556 -0.5378  1.0992 -0.6584
  158SAPE   H9Y17678   5.797   0.673   7.564 -0.1422  0.9248 -2.3574
  158SAPE  C31017679   5.809   0.479   7.665  0.5904  0.0950  0.0259
  158SAPE  H10X17680   5.920   0.477   7.662  0.6376 -1.4182  1.9261
  158SAPE  H10Y17681   5.773   0.376   7.645 -0.8280  0.8737 -1.4984
  158SAPE  C31117682   5.769   0.524   7.801 -0.1443  0.4746 -0.9970
  158SAPE  H11X17683   5.660   0.540   7.818 -0.4662  0.3771 -2.8430
  158SAPE  H11Y17684   5.809   0.621   7.835 -0.2203  0.0638  0.2963
  158SAPE  C31217685   5.819   0.423   7.905  0.1011  0.6897 -0.3203
  158SAPE  H12X17686   5.925   0.407   7.876 -0.1361  0.2336 -0.9479
  158SAPE  H12Y17687   5.760   0.329   7.903  1.9454 -0.5423  1.3049
  158SAPE  C31317688   5.799   0.472   8.050  0.2115 -0.6097  0.5027
  158SAPE  H13X17689   5.689   0.483   8.055  0.1828  1.8970 -3.3692
  158SAPE  H13Y17690   5.851   0.569   8.065  1.3589 -1.2437  0.7041
  158SAPE  C31417691   5.858   0.371   8.156  0.1533  0.2680  0.2350
  158SAPE  H14X17692   5.810   0.274   8.129  0.1997  0.3739 -0.2362
  158SAPE  H14Y17693   5.835   0.396   8.261  1.8401 -1.9972  1.1937
  158SAPE  C31517694   6.001   0.347   8.137 -0.4657 -0.6406  0.4839
  158SAPE  H15X17695   6.062   0.440   8.135  0.1026 -1.0162 -0.0675
  158SAPE  H15Y17696   6.027   0.297   8.041 -2.4942 -0.7376 -0.0300
  158SAPE  C31617697   6.063   0.263   8.243  0.6490  0.4572 -0.0566
  158SAPE  H16X17698   6.002   0.171   8.258 -1.8763  1.9194 -0.9123
  158SAPE  H16Y17699   6.049   0.312   8.342  0.2652  0.5304 -0.1441
  158SAPE  C31717700   6.207   0.217   8.233 -0.1418 -0.3342 -0.2033
  158SAPE  H17X17701   6.203   0.151   8.145 -0.8572  0.9642 -1.1599
  158SAPE  H17Y17702   6.236   0.157   8.322  2.8798  1.6418  0.2213
  158SAPE  C31817703   6.304   0.332   8.202 -0.3022  0.7689  0.1769
  158SAPE  H18X17704   6.297   0.419   8.271  1.1488  1.0544 -0.0332
  158SAPE  H18Y17705   6.271   0.380   8.107  1.8281 -1.1319 -1.5762
  158SAPE  H18Z17706   6.412   0.306   8.199 -0.4635 -0.1830  1.8953
  159SAPE     N17707   5.049   2.964   6.375 -0.1788  0.2804 -0.0300
  159SAPE   HN117708   5.024   2.875   6.328  0.6315  0.7114 -1.2834
  159SAPE   HN217709   4.992   2.986   6.459 -2.4702  0.6253 -1.6412
  159SAPE   HN317710   5.013   3.030   6.304  0.4366 -0.8534 -1.4284
  159SAPE   C1217711   5.191   2.988   6.387  0.0176  0.1978 -0.0856
  159SAPE  H12A17712   5.241   3.014   6.292 -0.2945  1.0568 -0.0185
  159SAPE  H12B17713   5.242   2.892   6.407  0.7789  0.5467 -0.3430
  159SAPE   C1117714   5.217   3.091   6.498 -0.1897 -0.2977  1.0847
  159SAPE  H11A17715   5.323   3.089   6.532 -0.7417 -0.6756  2.8629
  159SAPE  H11B17716   5.150   3.068   6.583 -2.8200 -1.5150 -1.2629
  159SAPE     P17717   5.273   3.321   6.386 -0.0213  0.4294  0.3269
  159SAPE   O1317718   5.408   3.269   6.379 -0.0002 -0.1686  0.3789
  159SAPE   O1417719   5.214   3.351   6.254 -0.3290 -0.2718  0.4837
  159SAPE   O1217720   5.174   3.218   6.456 -0.5328 -0.3580  0.0194
  159SAPE   O1117721   5.259   3.445   6.475 -0.2221  0.0050  0.5840
  159SAPE    C117722   5.368   3.494   6.551  0.2197 -0.0063 -0.2380
  159SAPE    HA17723   5.454   3.492   6.482 -0.0068 -2.9751 -0.4652
  159SAPE    HB17724   5.350   3.598   6.586  1.4008 -0.0673  0.5964
  159SAPE    C217725   5.397   3.413   6.679 -0.9964  0.6748  0.2313
  159SAPE    HS17726   5.448   3.319   6.648 -1.9402 -0.0813  0.9565
  159SAPE   O2117727   5.277   3.385   6.743  0.0822 -0.1219  0.0755
  159SAPE   C2117728   5.267   3.262   6.798 -0.0170  0.5409  0.4794
  159SAPE   O2217729   5.346   3.173   6.779 -0.1990  0.4988 -0.7782
  159SAPE   C2217730   5.139   3.255   6.864 -0.4802 -0.1822 -1.0071
  159SAPE   H2R17731   5.129   3.350   6.921  4.1413 -1.1999  1.8062
  159SAPE   H2S17732   5.060   3.263   6.787 -0.7275  0.2410 -0.7085
  159SAPE    C317733   5.497   3.477   6.779 -0.3998  0.6139 -0.1699
  159SAPE    HX17734   5.440   3.562   6.821  0.3735  0.4772  1.2100
  159SAPE    HY17735   5.587   3.517   6.728 -1.7576  3.3140 -0.4832
  159SAPE   O3117736   5.522   3.389   6.889  0.5064 -0.6576  0.0477
  159SAPE   C3117737   5.635   3.311   6.879  0.1172  0.1128  0.8918
  159SAPE   O3217738   5.705   3.303   6.777  0.0326  0.2390  0.8449
  159SAPE   C3217739   5.658   3.242   7.008  0.2328 -0.1216  0.4258
  159SAPE   H2X17740   5.764   3.211   7.024  1.5039  2.8124 -1.9234
  159SAPE   H2Y17741   5.599   3.148   7.004 -0.1219  0.1230 -0.2149
  159SAPE   C2317742   5.098   3.132   6.941  0.0697  0.2948  0.6629
  159SAPE   H3R17743   5.128   3.042   6.884  1.5446 -0.5780  2.7400
  159SAPE   H3S17744   4.987   3.133   6.944  0.0268  0.3724 -0.7642
  159SAPE   C2417745   5.159   3.127   7.087 -0.4575 -0.0338  0.1171
  159SAPE   H4R17746   5.114   3.203   7.154  0.0469  0.6200 -0.2833
  159SAPE   H4S17747   5.267   3.143   7.068 -1.0158  0.0401 -3.2400
  159SAPE   C2517748   5.139   2.984   7.131  0.0508 -0.3113 -0.0317
  159SAPE   H5R17749   5.177   2.917   7.052  2.6859  0.5697  0.4397
  159SAPE   C2617750   5.087   2.941   7.242  1.4700  0.5361 -0.0907
  159SAPE   H6R17751   5.119   2.838   7.263 -0.0968 -0.1818 -1.1239
  159SAPE   C2717752   5.038   3.025   7.358  0.4215  0.6902 -0.6189
  159SAPE   H7R17753   4.934   2.999   7.385  0.5441  1.0797  0.2597
  159SAPE   H7S17754   5.037   3.134   7.336 -0.7764  0.6575 -0.7587
  159SAPE   C2817755   5.125   3.013   7.478  0.3916 -0.3712 -1.5725
  159SAPE   H8R17756   5.223   3.057   7.455 -0.0134  0.7387 -1.2095
  159SAPE   C2917757   5.092   2.956   7.594 -0.2543  0.1201  0.0945
  159SAPE   H9R17758   5.161   2.971   7.679  1.5141  2.0641 -1.6448
  159SAPE  C21017759   4.958   2.893   7.628  0.4388 -0.4012 -0.2208
  159SAPE  H10R17760   4.923   2.835   7.540 -1.2699 -2.3314  1.6625
  159SAPE  H10S17761   4.876   2.969   7.635 -0.4693 -1.6021  3.4696
  159SAPE  C21117762   4.958   2.821   7.762  0.5486 -0.6798  0.0776
  159SAPE  H11R17763   4.960   2.713   7.739  2.1671 -0.3057 -1.6356
  159SAPE  C21217764   4.927   2.866   7.886 -0.7258 -0.0068  0.0655
  159SAPE  H12R17765   4.936   2.797   7.972  3.0449 -0.8844 -0.9530
  159SAPE  C21317766   4.923   3.009   7.925  0.0443  0.5806 -0.2233
  159SAPE  H13R17767   4.986   3.072   7.859  0.1588  0.2004 -0.4770
  159SAPE  H13S17768   4.970   3.011   8.026  1.0578 -1.4085 -0.6287
  159SAPE  C21417769   4.780   3.054   7.923  0.1855  0.5277  0.0310
  159SAPE  H14R17770   4.739   3.039   7.822 -0.5668 -2.9970  0.7968
  159SAPE  C21517771   4.706   3.111   8.025 -0.4882  0.6281 -1.0078
  159SAPE  H15R17772   4.601   3.136   8.003 -1.2940 -1.9284 -0.2160
  159SAPE  C21617773   4.753   3.141   8.169  0.1320  0.5455 -0.4515
  159SAPE  H16R17774   4.761   3.251   8.178  0.7519  0.4898 -0.2845
  159SAPE  H16S17775   4.857   3.109   8.193  0.3033  1.4170 -0.0031
  159SAPE  C21717776   4.661   3.069   8.270 -0.8955  0.1839 -0.7402
  159SAPE  H17R17777   4.553   3.092   8.262 -1.6012 -2.6433 -0.0484
  159SAPE  H17S17778   4.687   3.091   8.376  0.9396  2.4643 -1.6275
  159SAPE  C21817779   4.676   2.909   8.271  0.8952  0.4376  0.1660
  159SAPE  H18R17780   4.626   2.866   8.181  1.2808  0.0812  0.1179
  159SAPE  H18S17781   4.611   2.878   8.356 -1.5022  1.2366 -1.3370
  159SAPE  C21917782   4.812   2.849   8.302 -0.8627  0.6370  0.0111
  159SAPE  H19R17783   4.843   2.888   8.402 -2.2749 -1.6021  1.3695
  159SAPE  H19S17784   4.881   2.880   8.221 -3.3854 -3.2758 -3.8320
  159SAPE  C22017785   4.818   2.695   8.322 -0.2339  0.3134  0.3146
  159SAPE  H20R17786   4.755   2.654   8.403 -1.1642 -0.4124 -0.7604
  159SAPE  H20S17787   4.925   2.667   8.336  1.1491  3.9441 -2.0893
  159SAPE  H20T17788   4.778   2.645   8.231  3.4586 -0.9784 -0.7021
  159SAPE   C3317789   5.612   3.325   7.129  0.1078 -0.5596 -0.5068
  159SAPE   H3X17790   5.506   3.358   7.132  1.0678  2.6015  0.6205
  159SAPE   H3Y17791   5.671   3.419   7.124 -1.0708  0.2423  0.2895
  159SAPE   C3417792   5.623   3.249   7.261 -0.1456  0.1376  0.1053
  159SAPE   H4X17793   5.576   3.313   7.338 -0.0545 -1.0405  1.1518
  159SAPE   H4Y17794   5.732   3.235   7.281  0.6155  1.7375 -2.6723
  159SAPE   C3517795   5.557   3.108   7.270 -0.3298  0.6250  0.0649
  159SAPE   H5X17796   5.590   3.038   7.190 -4.2611  0.7171 -1.7411
  159SAPE   H5Y17797   5.446   3.108   7.271 -0.4158 -1.5184 -2.9105
  159SAPE   C3617798   5.595   3.046   7.407 -0.1289 -0.1171  0.0117
  159SAPE   H6X17799   5.706   3.037   7.406  0.0430  1.9348 -0.2824
  159SAPE   H6Y17800   5.544   2.949   7.427  0.9592 -0.6439  0.2567
  159SAPE   C3717801   5.555   3.144   7.523 -0.1224  0.1018 -0.1391
  159SAPE   H7X17802   5.453   3.183   7.506  0.3028  0.8261 -1.0720
  159SAPE   H7Y17803   5.624   3.231   7.522  2.0645 -1.5647 -1.2344
  159SAPE   C3817804   5.553   3.067   7.651 -0.6821 -0.8187 -0.1014
  159SAPE   H8X17805   5.657   3.028   7.659  0.3674  1.7826 -0.4531
  159SAPE   H8Y17806   5.488   2.979   7.635  0.9948 -1.8037 -1.7031
  159SAPE   C3917807   5.512   3.136   7.784 -0.7454 -0.5560 -0.3520
  159SAPE   H9X17808   5.401   3.130   7.781 -0.8502  1.7409 -2.4456
  159SAPE   H9Y17809   5.548   3.241   7.784 -0.6354 -0.5673 -2.3559
  159SAPE  C31017810   5.552   3.045   7.904 -0.1780 -0.1429 -0.2034
  159SAPE  H10X17811   5.662   3.030   7.912 -0.2126 -1.7157 -2.2066
  159SAPE  H10Y17812   5.507   2.946   7.884 -0.5690  0.4853 -2.5184
  159SAPE  C31117813   5.493   3.104   8.033  0.2292  0.0032  0.0976
  159SAPE  H11X17814   5.388   3.140   8.023 -0.5860 -1.6900  2.2877
  159SAPE  H11Y17815   5.548   3.196   8.061  0.8112 -0.6233  1.0203
  159SAPE  C31217816   5.499   2.999   8.146  0.2959  1.2006 -0.1323
  159SAPE  H12X17817   5.446   2.907   8.114  0.6996  1.0011 -0.2287
  159SAPE  H12Y17818   5.434   3.041   8.225  1.1126 -0.7574  1.6421
  159SAPE  C31317819   5.629   2.987   8.211 -0.6014 -0.0025 -0.0898
  159SAPE  H13X17820   5.679   3.086   8.220 -1.6769  0.5218  0.2397
  159SAPE  H13Y17821   5.693   2.912   8.161 -0.1077 -0.4056  1.1250
  159SAPE  C31417822   5.596   2.912   8.341 -0.0381 -0.4764 -0.5784
  159SAPE  H14X17823   5.563   2.811   8.311  0.3259 -1.0019  0.7532
  159SAPE  H14Y17824   5.515   2.965   8.396  0.0819 -0.4839 -0.3949
  159SAPE  C31517825   5.718   2.901   8.434  0.1133  0.1270 -0.9918
  159SAPE  H15X17826   5.760   3.000   8.463 -0.9794 -0.3529  2.4144
  159SAPE  H15Y17827   5.806   2.861   8.379  1.8453  0.9617  1.1165
  159SAPE  C31617828   5.704   2.816   8.562  0.3457 -0.0271 -0.2050
  159SAPE  H16X17829   5.605   2.830   8.610 -1.4956 -0.5490 -3.6999
  159SAPE  H16Y17830   5.794   2.832   8.626  1.7069 -2.1582 -1.5331
  159SAPE  C31717831   5.729   2.669   8.534 -0.5391  1.0258 -0.0181
  159SAPE  H17X17832   5.835   2.652   8.504 -0.5624 -2.3147  1.6075
  159SAPE  H17Y17833   5.662   2.643   8.449 -0.5729 -0.3734  0.4213
  159SAPE  C31817834   5.701   2.572   8.648 -0.1312 -0.2547  0.3701
  159SAPE  H18X17835   5.594   2.544   8.643 -0.5045  1.0755  0.7352
  159SAPE  H18Y17836   5.724   2.605   8.752  1.2387  2.6231 -0.7907
  159SAPE  H18Z17837   5.764   2.483   8.625 -0.3370 -0.0669 -0.9681
  160SAPE     N17838   5.817   1.443   6.627  0.6928 -0.1559 -0.5380
  160SAPE   HN117839   5.823   1.446   6.523  2.0623 -1.6896 -0.5319
  160SAPE   HN217840   5.873   1.525   6.656 -1.1376  0.5132  1.1901
  160SAPE   HN317841   5.863   1.356   6.660  0.6420 -0.1496 -0.4517
  160SAPE   C1217842   5.677   1.470   6.680 -0.0348 -0.2163  0.2692
  160SAPE  H12A17843   5.685   1.502   6.786  0.7380  2.8128 -0.6693
  160SAPE  H12B17844   5.624   1.372   6.675 -1.9166  0.8653 -2.1510
  160SAPE   C1117845   5.601   1.563   6.587  0.0120 -0.1176 -0.5098
  160SAPE  H11A17846   5.491   1.563   6.605  0.2133  2.9333  1.0853
  160SAPE  H11B17847   5.607   1.522   6.484 -2.0422 -0.5713 -0.4789
  160SAPE     P17848   5.570   1.813   6.533 -0.5290  0.3387  0.1766
  160SAPE   O1317849   5.669   1.901   6.462 -0.1814  0.2830 -0.3467
  160SAPE   O1417850   5.450   1.769   6.452  0.5028  1.0460  0.2254
  160SAPE   O1217851   5.645   1.696   6.590 -0.8788  0.0470  0.2305
  160SAPE   O1117852   5.529   1.888   6.660 -0.0172  0.0860 -0.0843
  160SAPE    C117853   5.495   1.824   6.772  0.3609 -0.4754  0.5031
  160SAPE    HA17854   5.412   1.879   6.821  0.4998  1.6395 -1.5700
  160SAPE    HB17855   5.459   1.719   6.763 -0.7400 -0.1546  1.1023
  160SAPE    C217856   5.614   1.826   6.874  0.4179 -0.0712 -0.8512
  160SAPE    HS17857   5.680   1.742   6.843 -0.3326  0.1543 -3.1628
  160SAPE   O2117858   5.562   1.811   7.005 -0.0577 -0.9573 -0.4649
  160SAPE   C2117859   5.649   1.758   7.092 -0.4884 -0.0192  0.6098
  160SAPE   O2217860   5.761   1.716   7.067  0.1193 -0.8238 -0.4346
  160SAPE   C2217861   5.596   1.775   7.240  0.5823 -0.2989  0.3360
  160SAPE   H2R17862   5.670   1.848   7.280 -2.1801  2.7681  0.0931
  160SAPE   H2S17863   5.495   1.821   7.243  0.4293 -0.6997  1.5535
  160SAPE    C317864   5.700   1.956   6.858 -0.5317 -0.8381 -0.0434
  160SAPE    HX17865   5.630   2.042   6.856 -0.3676 -0.7126 -0.3835
  160SAPE    HY17866   5.753   1.955   6.761  0.7700 -2.2387  0.6488
  160SAPE   O3117867   5.790   1.979   6.967  0.3091 -0.9226 -0.0511
  160SAPE   C3117868   5.924   1.975   6.943  0.0095 -0.8550 -0.7057
  160SAPE   O3217869   5.974   1.928   6.846  0.1832 -0.8292  0.5542
  160SAPE   C3217870   5.989   2.054   7.062  0.7289 -0.3349 -0.1265
  160SAPE   H2X17871   5.914   2.053   7.143 -1.2693 -1.4720 -1.9441
  160SAPE   H2Y17872   5.995   2.157   7.020  1.7725  0.0657  0.9464
  160SAPE   C2317873   5.612   1.647   7.322 -0.1755  0.1035 -0.2929
  160SAPE   H3R17874   5.709   1.594   7.318 -0.5774 -0.5264 -1.7449
  160SAPE   H3S17875   5.531   1.578   7.290  1.2483 -0.9449 -1.6501
  160SAPE   C2417876   5.593   1.669   7.479 -0.1202  0.1445  0.2989
  160SAPE   H4R17877   5.671   1.733   7.527  0.2565 -1.5195  2.0074
  160SAPE   H4S17878   5.618   1.571   7.527 -2.4719 -0.3644  0.5459
  160SAPE   C2517879   5.453   1.705   7.511 -0.3570 -0.4256 -1.1240
  160SAPE   H5R17880   5.381   1.697   7.429 -2.5386 -1.7037  0.8662
  160SAPE   C2617881   5.413   1.749   7.630 -0.6015  0.6040 -0.1100
  160SAPE   H6R17882   5.311   1.789   7.641 -0.9177  0.0696 -1.1104
  160SAPE   C2717883   5.506   1.765   7.750  0.9464 -0.4260  0.0294
  160SAPE   H7R17884   5.529   1.872   7.771 -1.0824 -0.5672  3.4490
  160SAPE   H7S17885   5.608   1.726   7.729  0.7035 -0.8688 -0.3259
  160SAPE   C2817886   5.443   1.704   7.871  0.0219  0.5144  0.2314
  160SAPE   H8R17887   5.387   1.612   7.851  0.4265  0.5110 -0.9698
  160SAPE   C2917888   5.471   1.743   7.994  0.1458 -0.0417 -0.0074
  160SAPE   H9R17889   5.421   1.690   8.076 -1.7783 -0.4305 -1.4105
  160SAPE  C21017890   5.570   1.851   8.041 -0.4240 -0.0161  0.0523
  160SAPE  H10R17891   5.518   1.922   8.108  0.7995 -0.6006  1.6506
  160SAPE  H10S17892   5.606   1.913   7.955  0.4176 -0.4813  0.0597
  160SAPE  C21117893   5.689   1.781   8.118 -0.0605 -0.0726 -0.3898
  160SAPE  H11R17894   5.786   1.783   8.065 -1.3637 -0.5625 -2.8617
  160SAPE  C21217895   5.690   1.742   8.243 -0.2106 -0.0040  0.8697
  160SAPE  H12R17896   5.783   1.703   8.286 -2.1676 -1.9715  3.4784
  160SAPE  C21317897   5.583   1.760   8.347 -0.3611  0.7557  0.0464
  160SAPE  H13R17898   5.506   1.823   8.298 -1.2816  0.2810  0.8684
  160SAPE  H13S17899   5.626   1.826   8.426  1.5174  1.0871 -1.2117
  160SAPE  C21417900   5.506   1.637   8.404 -0.6675  0.4689 -0.1612
  160SAPE  H14R17901   5.484   1.546   8.346  0.4452  0.2259 -0.2076
  160SAPE  C21517902   5.463   1.637   8.530 -0.6551  0.6152 -0.0810
  160SAPE  H15R17903   5.410   1.550   8.572  0.2868  0.3749  0.6364
  160SAPE  C21617904   5.475   1.751   8.632  0.5061  0.3029 -0.2030
  160SAPE  H16R17905   5.433   1.846   8.594  1.4545  0.9359  0.3031
  160SAPE  H16S17906   5.582   1.779   8.646  0.7101 -0.3026 -0.5378
  160SAPE  C21717907   5.406   1.740   8.771  0.5819  0.2068  0.2131
  160SAPE  H17R17908   5.298   1.740   8.744 -0.0262  2.5106  2.5082
  160SAPE  H17S17909   5.420   1.831   8.832 -0.7170 -1.4973  3.1401
  160SAPE  C21817910   5.437   1.606   8.844  0.0141 -0.7330  0.7570
  160SAPE  H18R17911   5.399   1.521   8.783 -1.1759  0.6204 -0.4392
  160SAPE  H18S17912   5.381   1.618   8.939 -0.5835 -0.0393  0.3283
  160SAPE  C21917913   5.584   1.592   8.870  0.7399 -0.0843 -0.7893
  160SAPE  H19R17914   5.611   1.682   8.928  0.6230 -1.2005  1.0260
  160SAPE  H19S17915   5.629   1.578   8.770  0.9119 -0.2696 -0.6848
  160SAPE  C22017916   5.612   1.467   8.959  0.0484  0.0075  0.2636
  160SAPE  H20R17917   5.560   1.479   9.057  0.3121  2.0008  0.1836
  160SAPE  H20S17918   5.718   1.467   8.993 -0.0640 -0.5377  0.6216
  160SAPE  H20T17919   5.585   1.372   8.910  1.4849 -0.5752  0.5657
  160SAPE   C3317920   6.125   2.010   7.106 -0.5584  0.1097  0.0409
  160SAPE   H3X17921   6.164   2.079   7.184  1.1507 -2.3719  1.4411
  160SAPE   H3Y17922   6.202   2.024   7.026 -1.0572 -1.9700 -0.8459
  160SAPE   C3417923   6.136   1.862   7.166 -0.0850 -0.0678 -0.2247
  160SAPE   H4X17924   6.243   1.838   7.186  0.0054  1.4819  1.3254
  160SAPE   H4Y17925   6.112   1.788   7.087 -0.6212  0.7541 -0.8497
  160SAPE   C3517926   6.054   1.850   7.295 -0.3048  0.3339 -0.4579
  160SAPE   H5X17927   5.946   1.865   7.274 -0.3231  0.5121 -0.2279
  160SAPE   H5Y17928   6.082   1.935   7.360  0.2726 -0.3526  0.1998
  160SAPE   C3617929   6.064   1.705   7.347 -0.3509  0.0015  0.0085
  160SAPE   H6X17930   6.170   1.683   7.371 -0.9103 -3.2925 -0.3015
  160SAPE   H6Y17931   6.025   1.634   7.271 -1.9782  1.0138 -0.1305
  160SAPE   C3717932   5.979   1.692   7.473  0.0584 -0.7711 -0.2310
  160SAPE   H7X17933   5.897   1.618   7.461 -0.5808 -0.3864  1.5723
  160SAPE   H7Y17934   5.919   1.783   7.494  0.3365 -0.5301 -0.4735
  160SAPE   C3817935   6.060   1.642   7.600 -0.2627 -0.0386 -0.3737
  160SAPE   H8X17936   6.148   1.708   7.611  1.2984 -1.8974 -1.4451
  160SAPE   H8Y17937   6.095   1.542   7.567  0.0656 -0.5386  1.4251
  160SAPE   C3917938   5.975   1.627   7.728 -0.2228  0.1511 -0.5887
  160SAPE   H9X17939   5.881   1.585   7.688  0.1941  0.5556 -2.0096
  160SAPE   H9Y17940   5.954   1.729   7.766  0.7894  0.4743 -0.8735
  160SAPE  C31017941   6.028   1.524   7.833 -0.1602 -0.1168  0.0418
  160SAPE  H10X17942   6.125   1.563   7.871 -0.6878 -0.6062  1.9624
  160SAPE  H10Y17943   6.049   1.432   7.775  1.0784  1.5359 -2.2138
  160SAPE  C31117944   5.927   1.506   7.951 -0.0001 -0.2611 -0.2344
  160SAPE  H11X17945   5.912   1.610   7.987  0.6961  0.0913 -0.9417
  160SAPE  H11Y17946   5.988   1.453   8.028 -1.2669  0.2107  1.1301
  160SAPE  C31217947   5.797   1.446   7.916  0.0996  0.8083 -0.2831
  160SAPE  H12X17948   5.820   1.358   7.853 -0.2171  0.0604  0.6264
  160SAPE  H12Y17949   5.738   1.512   7.850  0.3331  1.3974  0.0932
  160SAPE  C31317950   5.715   1.394   8.036 -0.7894 -0.5223  0.7924
  160SAPE  H13X17951   5.687   1.473   8.109 -2.0975 -0.3706  0.1419
  160SAPE  H13Y17952   5.781   1.315   8.079 -0.2920 -0.8359 -0.5296
  160SAPE  C31417953   5.582   1.340   7.973 -0.3456  0.6263  0.0955
  160SAPE  H14X17954   5.619   1.253   7.914  0.0585 -0.5745  2.0422
  160SAPE  H14Y17955   5.547   1.426   7.913  2.0747  1.7157  0.1745
  160SAPE  C31517956   5.466   1.286   8.062 -0.2457 -0.9080  0.9225
  160SAPE  H15X17957   5.452   1.356   8.147  0.1068  0.1772  0.0958
  160SAPE  H15Y17958   5.500   1.189   8.104  0.9836 -1.2414 -0.7962
  160SAPE  C31617959   5.331   1.292   7.986 -0.6218 -0.4314  0.3129
  160SAPE  H16X17960   5.330   1.226   7.896 -0.5533  0.1235 -0.0937
  160SAPE  H16Y17961   5.326   1.397   7.950 -0.4763 -0.7161 -0.5460
  160SAPE  C31717962   5.212   1.262   8.084 -0.4234  0.0762  0.3830
  160SAPE  H17X17963   5.111   1.293   8.049 -0.6981  0.9375  1.9133
  160SAPE  H17Y17964   5.234   1.313   8.180 -0.0467  2.1755 -0.8020
  160SAPE  C31817965   5.191   1.106   8.118 -0.8589  0.2566  0.0472
  160SAPE  H18X17966   5.209   1.041   8.029 -0.7336  0.6597 -0.2248
  160SAPE  H18Y17967   5.088   1.076   8.149 -0.4156  0.3465  1.6190
  160SAPE  H18Z17968   5.262   1.071   8.196  0.6381  0.5396 -1.1594
  161SOPE     N17969   4.521   4.997  10.532 -0.2787 -0.3937  0.2951
  161SOPE   HN117970   4.591   5.073  10.539  0.2698 -0.7599 -1.1129
  161SOPE   HN217971   4.569   4.929  10.470 -2.0926 -1.0264 -0.4750
  161SOPE   HN317972   4.436   5.040  10.489 -0.1369 -2.2665 -1.9640
  161SOPE   C1217973   4.517   4.937  10.673  1.0990 -0.2026  0.1045
  161SOPE  H12A17974   4.470   5.020  10.730  1.9358  0.8263 -0.6706
  161SOPE  H12B17975   4.618   4.926  10.717  1.5027  0.5526 -0.6323
  161SOPE   C1117976   4.432   4.805  10.679  0.1003 -0.3558 -0.7146
  161SOPE  H11A17977   4.326   4.818  10.646  0.6023  2.6926 -1.2064
  161SOPE  H11B17978   4.428   4.784  10.788  0.0969  0.1609 -0.6161
  161SOPE     P17979   4.503   4.561  10.672  0.0825  0.5152 -0.2970
  161SOPE   O1317980   4.416   4.553  10.796 -0.1003 -0.4826  0.0046
  161SOPE   O1417981   4.640   4.508  10.679 -0.2191 -0.4687  0.1593
  161SOPE   O1217982   4.501   4.705  10.611 -0.4555  0.5666  0.2441
  161SOPE   O1117983   4.432   4.465  10.579  0.7916 -0.2277 -0.1688
  161SOPE    C117984   4.337   4.487  10.482 -0.2510 -0.1098 -0.0649
  161SOPE    HA17985   4.313   4.595  10.473  0.8246  0.3998  2.6492
  161SOPE    HB17986   4.243   4.431  10.506 -1.0517  1.0039 -0.5845
  161SOPE    C217987   4.380   4.429  10.343  0.8038  1.0152  0.4829
  161SOPE    HS17988   4.403   4.323  10.364 -3.1295 -0.5129 -2.1562
  161SOPE   O2117989   4.483   4.509  10.292 -0.2590  0.0488 -0.1221
  161SOPE   C2117990   4.593   4.443  10.244  1.2815 -0.5658  0.3788
  161SOPE   O2217991   4.600   4.320  10.235 -0.4125 -0.4772  0.1416
  161SOPE   C2217992   4.694   4.549  10.193 -0.4657 -0.4637 -0.2495
  161SOPE   H2R17993   4.793   4.501  10.180 -0.1341  0.2959 -0.5812
  161SOPE   H2S17994   4.702   4.621  10.277 -2.0682  1.0263 -1.3190
  161SOPE    C317995   4.252   4.431  10.250  1.1447  0.4112 -0.3091
  161SOPE    HX17996   4.215   4.535  10.238 -3.4072 -0.7366  2.5797
  161SOPE    HY17997   4.172   4.382  10.309  1.2809  0.9941  0.3566
  161SOPE   O3117998   4.279   4.355  10.128 -0.0597 -0.5843 -0.1407
  161SOPE   C3117999   4.294   4.226  10.148 -0.7069  0.9268 -0.0777
  161SOPE   O3218000   4.269   4.167  10.253  0.0081 -0.2578 -0.5490
  161SOPE   C3218001   4.357   4.167  10.022  0.2016  0.3505  0.0159
  161SOPE   H2X18002   4.428   4.241   9.979  0.7301  1.6895  3.0655
  161SOPE   H2Y18003   4.272   4.151   9.952 -0.1992  0.6210  0.4356
  161SOPE   C2318004   4.648   4.630  10.067 -0.2113 -0.7652 -0.5653
  161SOPE   H3R18005   4.714   4.718  10.058 -0.1797 -0.8241 -0.9413
  161SOPE   H3S18006   4.541   4.657  10.081 -0.2243 -1.2658  0.2973
  161SOPE   C2418007   4.659   4.542   9.943  0.3743  0.0977  0.7560
  161SOPE   H4R18008   4.719   4.590   9.863 -0.3275 -0.8128 -0.3375
  161SOPE   H4S18009   4.708   4.446   9.970 -0.7873 -1.4824 -2.4051
  161SOPE   C2518010   4.518   4.520   9.898  0.8769 -0.2406 -0.4337
  161SOPE   H5R18011   4.469   4.449   9.968  0.6760  0.0213 -0.3055
  161SOPE   H5S18012   4.458   4.613   9.901  1.5798  0.2086 -0.0220
  161SOPE   C2618013   4.512   4.457   9.757  0.0800  0.4932  0.7676
  161SOPE   H6R18014   4.577   4.525   9.698 -0.0694  0.0099  0.0406
  161SOPE   H6S18015   4.541   4.350   9.764 -0.0018  0.3689 -0.6814
  161SOPE   C2718016   4.373   4.468   9.705  0.0677 -0.4544 -0.3807
  161SOPE   H7R18017   4.297   4.438   9.781 -1.3252  0.0679 -1.5326
  161SOPE   H7S18018   4.353   4.576   9.685 -2.0170 -0.6492  0.5530
  161SOPE   C2818019   4.339   4.386   9.578 -0.6508 -0.0279  1.1309
  161SOPE   H8R18020   4.245   4.421   9.530  0.0043 -0.1360 -0.2587
  161SOPE   H8S18021   4.415   4.411   9.501 -1.5912  2.2664  0.8967
  161SOPE   C2918022   4.342   4.235   9.582  0.0543  0.1912  0.1260
  161SOPE   H9118023   4.391   4.203   9.675  1.1935  0.1348 -0.4853
  161SOPE  C21018024   4.315   4.148   9.482 -0.7719 -0.5967 -0.4522
  161SOPE  H10118025   4.307   4.042   9.509 -0.2539 -0.4282  0.3719
  161SOPE  C21118026   4.274   4.192   9.346 -0.1914  0.1408  0.3461
  161SOPE  H11R18027   4.361   4.231   9.288  0.6360 -2.9340 -0.5541
  161SOPE  H11S18028   4.189   4.264   9.353 -0.5009 -0.4565  3.3397
  161SOPE  C21218029   4.224   4.081   9.263  0.0256  0.4862 -0.0988
  161SOPE  H12R18030   4.126   4.037   9.291  1.4002 -2.7492 -0.1892
  161SOPE  H12S18031   4.288   3.991   9.264  0.0401  0.4696 -1.4130
  161SOPE  C21318032   4.220   4.127   9.111  0.3547 -0.4696 -0.1870
  161SOPE  H13R18033   4.198   4.032   9.058 -1.0440 -1.3954  1.9861
  161SOPE  H13S18034   4.315   4.178   9.081  1.1076 -1.7202  0.0368
  161SOPE  C21418035   4.100   4.218   9.069  0.2321  0.0303  0.2921
  161SOPE  H14R18036   4.130   4.321   9.099  1.3733 -1.5384  5.0264
  161SOPE  H14S18037   4.008   4.192   9.126  1.7718  0.5241  3.1000
  161SOPE  C21518038   4.076   4.216   8.920  0.6417  0.0181  0.9091
  161SOPE  H15R18039   4.057   4.115   8.876  1.8128  1.1796 -2.4323
  161SOPE  H15S18040   4.166   4.257   8.870  0.8669 -2.2634 -0.6586
  161SOPE  C21618041   3.951   4.294   8.878  0.3365  0.5964 -0.3560
  161SOPE  H16R18042   3.945   4.313   8.769  0.9850  0.0446 -0.4900
  161SOPE  H16S18043   3.977   4.393   8.923  2.1026 -0.4377  0.9642
  161SOPE  C21718044   3.813   4.234   8.924  0.7332 -0.8214 -0.5068
  161SOPE  H17R18045   3.742   4.318   8.937 -0.8121 -2.4133  1.7269
  161SOPE  H17S18046   3.822   4.180   9.021 -4.3360 -2.1121 -0.6542
  161SOPE  C21818047   3.765   4.133   8.818  0.1356  0.1897  0.6041
  161SOPE  H18R18048   3.670   4.084   8.849  0.4606  1.0263  3.0333
  161SOPE  H18S18049   3.836   4.048   8.806 -1.5852 -0.8959 -2.4156
  161SOPE  H18T18050   3.745   4.185   8.722 -2.0382 -0.6023  0.5942
  161SOPE   C3318051   4.443   4.030  10.031  0.1229  0.5553 -0.0911
  161SOPE   H3X18052   4.368   3.952  10.005  0.0716 -0.4236  2.7536
  161SOPE   H3Y18053   4.481   4.016  10.135  0.7572  0.4158 -0.3396
  161SOPE   C3418054   4.550   4.023   9.920 -0.0344 -0.4256 -0.1183
  161SOPE   H4X18055   4.637   4.089   9.940  0.4673 -0.7730 -1.0965
  161SOPE   H4Y18056   4.509   4.057   9.822 -2.1997 -0.2027  0.8528
  161SOPE   C3518057   4.612   3.887   9.908 -0.3899 -0.1904  0.7383
  161SOPE   H5X18058   4.645   3.862  10.012  1.5179  2.1185  0.7273
  161SOPE   H5Y18059   4.705   3.898   9.849  0.3328 -1.4066  1.6127
  161SOPE   C3618060   4.521   3.765   9.869 -0.3139  0.0532  0.4213
  161SOPE   H6X18061   4.453   3.741   9.953 -0.9844  0.2515 -0.0622
  161SOPE   H6Y18062   4.583   3.678   9.841 -0.2131  0.6265 -1.2067
  161SOPE   C3718063   4.426   3.807   9.758  0.0939  0.6826 -0.2785
  161SOPE   H7X18064   4.495   3.850   9.683 -0.9474  0.1004 -1.5911
  161SOPE   H7Y18065   4.361   3.891   9.789 -1.0027  0.5124 -2.0300
  161SOPE   C3818066   4.340   3.684   9.705  0.6269  0.6026  0.2392
  161SOPE   H8X18067   4.299   3.637   9.797  0.6482  0.9325  0.4155
  161SOPE   H8Y18068   4.401   3.602   9.661  0.8069 -0.0093  1.6305
  161SOPE   C3918069   4.222   3.732   9.620 -0.3373 -0.1954 -0.2718
  161SOPE   H9X18070   4.166   3.815   9.668  1.4651  0.5408  0.6273
  161SOPE   H9Y18071   4.139   3.659   9.612 -1.5275  0.9030  1.5586
  161SOPE  C31018072   4.259   3.784   9.477 -0.3198 -0.8695 -0.2274
  161SOPE  H10X18073   4.354   3.841   9.478 -1.1204  0.6660 -3.6465
  161SOPE  H10Y18074   4.185   3.856   9.437 -1.0304 -2.3628 -1.6635
  161SOPE  C31118075   4.271   3.663   9.381 -0.5066 -0.3439 -0.0151
  161SOPE  H11X18076   4.192   3.590   9.405 -0.0108 -0.4386  1.3985
  161SOPE  H11Y18077   4.364   3.607   9.405  0.5351  0.9459 -0.9553
  161SOPE  C31218078   4.267   3.699   9.235  0.2979 -0.8741  1.3191
  161SOPE  H12X18079   4.346   3.776   9.223  0.8565 -1.4705  1.0807
  161SOPE  H12Y18080   4.172   3.742   9.199  0.3481 -1.0294  0.9899
  161SOPE  C31318081   4.295   3.578   9.148 -0.9198 -0.4022 -0.3399
  161SOPE  H13X18082   4.204   3.517   9.132 -1.7245  0.5788  0.4671
  161SOPE  H13Y18083   4.376   3.510   9.183 -2.0159 -1.5883 -0.1005
  161SOPE  C31418084   4.339   3.614   9.003 -0.0462 -0.1553  0.1623
  161SOPE  H14X18085   4.324   3.522   8.943  1.8511  1.1474 -2.4306
  161SOPE  H14Y18086   4.447   3.642   8.996  0.2020 -0.7940  1.4034
  161SOPE  C31518087   4.268   3.737   8.928 -0.6387  0.2086 -0.3447
  161SOPE  H15X18088   4.305   3.823   8.987  1.3002  1.5644 -3.4367
  161SOPE  H15Y18089   4.161   3.706   8.939 -0.4058 -1.1547 -1.8656
  161SOPE  C31618090   4.304   3.757   8.779 -1.0634  0.0220  1.0024
  161SOPE  H16X18091   4.408   3.788   8.758 -0.4550 -1.8280  1.1944
  161SOPE  H16Y18092   4.230   3.834   8.746 -0.2541  1.0461  1.5341
  161SOPE  C31718093   4.282   3.630   8.699 -0.8934  0.3727 -0.3791
  161SOPE  H17X18094   4.182   3.591   8.725  0.0075 -1.0108  1.1201
  161SOPE  H17Y18095   4.350   3.552   8.739  0.1220  0.5098 -1.7735
  161SOPE  C31818096   4.294   3.650   8.549 -0.0486  0.2834  0.4296
  161SOPE  H18X18097   4.390   3.700   8.527  1.9755 -3.3006  0.7504
  161SOPE  H18Y18098   4.207   3.701   8.501 -0.6729 -1.4016 -0.2781
  161SOPE  H18Z18099   4.305   3.546   8.512 -0.4281 -0.6156  2.7292
  162SOPE     N18100   3.056   4.463  10.701 -0.5214 -0.1274  0.4882
  162SOPE   HN118101   2.980   4.425  10.761  0.6387 -0.4533  1.7893
  162SOPE   HN218102   3.078   4.556  10.743  0.0374  0.1516 -0.3953
  162SOPE   HN318103   3.040   4.498  10.605 -0.2640  2.2406  1.2793
  162SOPE   C1218104   3.169   4.371  10.694  0.9421  1.1246  0.0052
  162SOPE  H12A18105   3.197   4.341  10.797 -0.5531 -0.8460 -0.1365
  162SOPE  H12B18106   3.257   4.426  10.656  0.5199  0.7512 -1.5584
  162SOPE   C1118107   3.122   4.250  10.614  0.4198 -0.2186 -0.0941
  162SOPE  H11A18108   3.207   4.181  10.592  1.0354  0.6291 -0.4002
  162SOPE  H11B18109   3.098   4.284  10.511  2.8798  1.8501 -0.0314
  162SOPE     P18110   3.028   4.058  10.772  0.5719 -0.1034  0.2409
  162SOPE   O1318111   2.897   4.031  10.841 -0.2590 -0.1234  0.6147
  162SOPE   O1418112   3.138   4.086  10.867  0.1786  0.3576  0.1391
  162SOPE   O1218113   3.010   4.187  10.678  0.9904  0.2104 -0.4279
  162SOPE   O1118114   3.080   3.952  10.669  1.1824  0.1004  0.0228
  162SOPE    C118115   2.992   3.849  10.617 -0.1840  0.1053 -0.5241
  162SOPE    HA18116   2.943   3.801  10.705  0.3518  1.0157  0.2745
  162SOPE    HB18117   3.049   3.772  10.561  0.6337  1.1902 -1.1968
  162SOPE    C218118   2.889   3.895  10.513 -0.5563 -0.3683  0.5690
  162SOPE    HS18119   2.866   3.805  10.452  1.6341  0.2866 -1.3233
  162SOPE   O2118120   2.946   3.998  10.435  0.6857 -0.0559 -0.0672
  162SOPE   C2118121   3.042   3.950  10.353  0.0508 -0.9446 -0.1538
  162SOPE   O2218122   3.077   3.837  10.340 -0.0157 -0.2602  0.4032
  162SOPE   C2218123   3.101   4.064  10.272 -0.1459  0.6152 -0.5448
  162SOPE   H2R18124   3.176   4.014  10.207  1.1311  1.2440  0.4020
  162SOPE   H2S18125   3.167   4.129  10.334  1.7041 -0.4148 -1.3976
  162SOPE    C318126   2.754   3.942  10.566  0.8309 -0.0092  0.2482
  162SOPE    HX18127   2.760   4.035  10.627 -0.1388  1.0049 -1.1670
  162SOPE    HY18128   2.694   3.869  10.624 -0.9425  1.9272  0.9101
  162SOPE   O3118129   2.661   3.978  10.456  0.0527 -0.2420  0.2416
  162SOPE   C3118130   2.571   3.893  10.408  0.2821  0.5355  0.3793
  162SOPE   O3218131   2.578   3.774  10.421  0.0609  0.5169  0.2628
  162SOPE   C3218132   2.456   3.978  10.344  0.3628 -0.1682 -1.1114
  162SOPE   H2X18133   2.451   4.072  10.404  0.4672  1.3978 -3.4750
  162SOPE   H2Y18134   2.360   3.922  10.335 -1.1763  1.6593  2.7028
  162SOPE   C2318135   2.996   4.141  10.192  0.3914 -0.4577 -0.1278
  162SOPE   H3R18136   2.971   4.243  10.229 -1.9506 -0.9165 -0.3478
  162SOPE   H3S18137   2.901   4.086  10.176  0.8290 -0.8931 -1.2502
  162SOPE   C2418138   3.051   4.180  10.051 -0.6773  0.0574  0.6650
  162SOPE   H4R18139   2.979   4.247  10.000  0.7227  1.2035  0.1761
  162SOPE   H4S18140   3.145   4.237  10.064  0.0847 -0.4381 -2.1584
  162SOPE   C2518141   3.074   4.058   9.952  0.4220 -0.1350  0.0643
  162SOPE   H5R18142   3.159   4.085   9.887  0.9405 -0.4843  0.5949
  162SOPE   H5S18143   3.104   3.968  10.009 -1.2134 -1.5909 -1.3038
  162SOPE   C2618144   2.952   4.006   9.870 -0.2675  0.3010  0.0242
  162SOPE   H6R18145   2.874   4.001   9.949 -0.4510  0.1251 -0.1721
  162SOPE   H6S18146   2.919   4.083   9.798 -1.6094  0.8241  1.1732
  162SOPE   C2718147   2.974   3.874   9.800 -0.4437  0.1996  0.3428
  162SOPE   H7R18148   3.008   3.801   9.877  1.2131 -0.6210 -1.1286
  162SOPE   H7S18149   2.883   3.835   9.751 -0.1707  0.6270 -0.5215
  162SOPE   C2818150   3.079   3.884   9.681 -0.5193  0.4204 -0.2552
  162SOPE   H8R18151   3.182   3.896   9.719 -0.0044  0.6913 -1.6830
  162SOPE   H8S18152   3.087   3.785   9.631 -0.4852  1.0134 -1.4551
  162SOPE   C2918153   3.064   3.994   9.589 -0.2532  1.1075  0.9509
  162SOPE   H9118154   3.137   4.076   9.593  0.1026  1.0712 -3.0584
  162SOPE  C21018155   2.986   3.989   9.477  0.2754 -0.1685  0.2912
  162SOPE  H10118156   2.991   4.083   9.420  1.4026  0.4687  1.4152
  162SOPE  C21118157   2.885   3.883   9.438  0.6849  0.4580  0.0963
  162SOPE  H11R18158   2.799   3.951   9.421  0.0234 -0.1701  0.8943
  162SOPE  H11S18159   2.858   3.807   9.514 -0.5314 -1.2558 -1.9733
  162SOPE  C21218160   2.945   3.807   9.312  0.0009  0.1923 -0.0370
  162SOPE  H12R18161   2.888   3.712   9.304 -0.7679  0.5115  1.6038
  162SOPE  H12S18162   3.046   3.767   9.332  0.7771  1.4595 -1.3168
  162SOPE  C21318163   2.925   3.886   9.181  0.2970  0.9026 -0.5828
  162SOPE  H13R18164   3.004   3.964   9.191 -0.9103  1.7975  2.3062
  162SOPE  H13S18165   2.825   3.933   9.170 -1.1235 -1.8771 -0.0715
  162SOPE  C21418166   2.953   3.802   9.053  0.5707  0.6222  0.0151
  162SOPE  H14R18167   2.892   3.710   9.061 -0.2325  0.9781 -1.7840
  162SOPE  H14S18168   3.057   3.766   9.064 -0.0430 -0.7145  1.5614
  162SOPE  C21518169   2.939   3.879   8.923 -0.2216  0.5854  0.6706
  162SOPE  H15R18170   2.998   3.836   8.839 -1.0127 -3.3604  2.0598
  162SOPE  H15S18171   3.001   3.971   8.932 -1.3955  1.6058 -1.2511
  162SOPE  C21618172   2.794   3.907   8.883  0.1187  1.1104  0.0853
  162SOPE  H16R18173   2.748   3.994   8.935 -0.8364 -0.3164  1.6528
  162SOPE  H16S18174   2.728   3.820   8.904  1.3695  0.1429  0.0352
  162SOPE  C21718175   2.780   3.934   8.731  0.5099  0.1606 -0.1933
  162SOPE  H17R18176   2.832   3.848   8.684 -0.3321 -2.2121  3.0225
  162SOPE  H17S18177   2.837   4.024   8.699 -0.5289  1.1420  0.6619
  162SOPE  C21818178   2.640   3.939   8.670  0.0351  0.2376  0.3492
  162SOPE  H18R18179   2.594   4.031   8.713 -0.8989  1.6885 -3.5561
  162SOPE  H18S18180   2.581   3.846   8.688 -0.6495  0.7290  0.6625
  162SOPE  H18T18181   2.651   3.952   8.560  1.6319 -1.1084  0.3161
  162SOPE   C3318182   2.496   4.014  10.205  0.1558  0.0658  0.2756
  162SOPE   H3X18183   2.602   4.045  10.202 -0.0701  0.7450 -2.3583
  162SOPE   H3Y18184   2.427   4.095  10.172 -0.3903 -0.4326  0.1721
  162SOPE   C3418185   2.465   3.910  10.097  0.0535 -0.4962 -0.0909
  162SOPE   H4X18186   2.357   3.907  10.073 -0.0599 -1.4587  0.5142
  162SOPE   H4Y18187   2.503   3.814  10.139  0.6526  0.1785  0.9294
  162SOPE   C3518188   2.550   3.935   9.974 -0.1205 -0.4191  0.4012
  162SOPE   H5X18189   2.653   3.905  10.004 -0.5408 -0.1964  2.1001
  162SOPE   H5Y18190   2.545   4.038   9.933  0.4852 -0.1705  0.9225
  162SOPE   C3618191   2.508   3.846   9.852  0.0682  0.1089  0.0226
  162SOPE   H6X18192   2.447   3.760   9.886 -1.8037  1.6673  0.6750
  162SOPE   H6Y18193   2.603   3.817   9.802  0.0857  0.8621 -0.3946
  162SOPE   C3718194   2.436   3.934   9.745 -0.7784 -0.2870  0.1836
  162SOPE   H7X18195   2.507   4.018   9.724  0.5463 -1.1929  0.9796
  162SOPE   H7Y18196   2.351   3.975   9.804 -0.5669 -0.4546  0.6121
  162SOPE   C3818197   2.386   3.863   9.615 -0.0385 -0.4957 -0.2261
  162SOPE   H8X18198   2.335   3.945   9.560  1.7735 -0.2660 -1.5940
  162SOPE   H8Y18199   2.311   3.785   9.640  2.1083 -1.8748  2.2190
  162SOPE   C3918200   2.491   3.820   9.529 -0.4514 -0.6838  0.5013
  162SOPE   H9X18201   2.542   3.737   9.584  1.7274  0.2835 -0.0037
  162SOPE   H9Y18202   2.566   3.899   9.509 -1.4291 -1.1179 -5.8101
  162SOPE  C31018203   2.444   3.770   9.393  0.2616  0.2024  0.2549
  162SOPE  H10X18204   2.347   3.822   9.376  0.5458  1.2152  1.5518
  162SOPE  H10Y18205   2.417   3.665   9.414 -2.9603  1.0998  0.8907
  162SOPE  C31118206   2.549   3.798   9.277  0.4316 -1.0447  0.5686
  162SOPE  H11X18207   2.646   3.745   9.290 -0.3284 -2.9835 -1.3438
  162SOPE  H11Y18208   2.566   3.907   9.280 -2.5119 -0.5389  0.4863
  162SOPE  C31218209   2.499   3.756   9.133  0.5739  0.1617 -0.4330
  162SOPE  H12X18210   2.580   3.784   9.062  0.4525  0.3179 -0.5091
  162SOPE  H12Y18211   2.404   3.812   9.121  0.3199 -0.1393  0.1615
  162SOPE  C31318212   2.467   3.607   9.118 -0.4538  0.0974 -0.9673
  162SOPE  H13X18213   2.404   3.581   9.205 -2.2040  1.1768 -1.8768
  162SOPE  H13Y18214   2.558   3.545   9.130  0.5262  1.7931  0.6028
  162SOPE  C31418215   2.392   3.559   8.991  0.0061  0.7826  0.6301
  162SOPE  H14X18216   2.460   3.574   8.905 -0.9144 -1.0430 -0.4430
  162SOPE  H14Y18217   2.297   3.615   8.976 -0.8549 -0.5204  1.0867
  162SOPE  C31518218   2.358   3.412   8.985  0.3169  1.0148 -0.2157
  162SOPE  H15X18219   2.296   3.388   9.074 -0.3452  0.0736 -0.9176
  162SOPE  H15Y18220   2.451   3.353   8.980 -0.8615 -0.9868  0.9614
  162SOPE  C31618221   2.272   3.386   8.856  0.1737  0.6015  0.2104
  162SOPE  H16X18222   2.334   3.391   8.764  0.8996 -0.7907  0.6125
  162SOPE  H16Y18223   2.190   3.460   8.846  1.2578  1.4399 -2.8527
  162SOPE  C31718224   2.193   3.258   8.865 -0.1074 -0.1074 -0.0642
  162SOPE  H17X18225   2.134   3.235   8.774 -0.3420  0.2307 -0.0017
  162SOPE  H17Y18226   2.115   3.278   8.942 -0.8817 -2.5610 -0.1767
  162SOPE  C31818227   2.267   3.138   8.912 -0.2361  0.3650 -0.0916
  162SOPE  H18X18228   2.214   3.040   8.915 -0.3925  0.3964 -1.8110
  162SOPE  H18Y18229   2.328   3.151   9.004  0.8407  0.3223 -0.7855
  162SOPE  H18Z18230   2.351   3.121   8.841 -2.8815 -1.1966 -2.9921
  163SOPE     N18231   3.198   1.398  10.994  0.2908 -0.1856  0.1751
  163SOPE   HN118232   3.157   1.327  10.930 -0.9329  0.8828 -0.2588
  163SOPE   HN218233   3.159   1.391  11.090  1.4534 -0.6732  0.6136
  163SOPE   HN318234   3.171   1.489  10.951  0.8538 -0.3443 -0.5175
  163SOPE   C1218235   3.348   1.377  11.011 -0.1746  0.2719  0.0419
  163SOPE  H12A18236   3.356   1.276  11.057 -2.0127 -0.4624 -1.1967
  163SOPE  H12B18237   3.393   1.458  11.073  1.2716 -1.2276  0.9876
  163SOPE   C1118238   3.423   1.364  10.876 -0.1412  0.0847  0.2216
  163SOPE  H11A18239   3.523   1.329  10.909 -1.2852 -1.3056  2.3763
  163SOPE  H11B18240   3.441   1.466  10.836  0.6347  1.2367  3.3375
  163SOPE     P18241   3.389   1.122  10.763 -0.0452  0.2803 -0.3236
  163SOPE   O1318242   3.263   1.057  10.722  0.6319  0.4883  0.4085
  163SOPE   O1418243   3.461   1.061  10.878 -0.1595  0.4581 -0.1118
  163SOPE   O1218244   3.369   1.280  10.779  0.0403 -0.2105  0.0548
  163SOPE   O1118245   3.492   1.111  10.640  0.1369  0.2597 -0.0062
  163SOPE    C118246   3.561   1.217  10.580 -0.5840 -0.4068 -0.5759
  163SOPE    HA18247   3.651   1.180  10.527 -0.9808 -1.5191 -0.4886
  163SOPE    HB18248   3.607   1.273  10.664 -0.6281 -0.6296 -0.4019
  163SOPE    C218249   3.481   1.298  10.477 -0.2934 -0.0987  0.3239
  163SOPE    HS18250   3.403   1.357  10.531 -2.2551 -2.3918  0.0912
  163SOPE   O2118251   3.422   1.206  10.382  0.2543 -0.2190 -0.8129
  163SOPE   C2118252   3.311   1.245  10.327 -0.0167  0.7260  0.4134
  163SOPE   O2218253   3.234   1.332  10.363 -0.5125  0.3991  0.1197
  163SOPE   C2218254   3.264   1.137  10.221 -0.4119 -0.5995  0.2071
  163SOPE   H2R18255   3.160   1.163  10.196  0.8691  1.0138 -3.8171
  163SOPE   H2S18256   3.279   1.035  10.263  1.1779 -0.6732 -0.4837
  163SOPE    C318257   3.570   1.394  10.401  0.6362  0.5598  0.4057
  163SOPE    HX18258   3.654   1.330  10.366  0.0671  0.9860 -1.7836
  163SOPE    HY18259   3.615   1.462  10.476 -1.8175  0.1968  2.2773
  163SOPE   O3118260   3.502   1.460  10.295 -1.0307  0.0641  0.4843
  163SOPE   C3118261   3.512   1.592  10.289  0.4754 -0.4189  0.0016
  163SOPE   O3218262   3.586   1.658  10.358  0.0479 -0.6249 -0.0255
  163SOPE   C3218263   3.404   1.647  10.201 -0.7148 -0.1599 -0.0782
  163SOPE   H2X18264   3.384   1.748  10.244  2.4882 -0.6241  2.7176
  163SOPE   H2Y18265   3.317   1.579  10.189 -0.0323 -0.9818 -0.3647
  163SOPE   C2318266   3.348   1.142  10.089  0.3190  0.7767  0.2530
  163SOPE   H3R18267   3.308   1.057  10.029  0.9886 -1.9798  3.5285
  163SOPE   H3S18268   3.456   1.119  10.102 -0.0808  0.7599  4.0426
  163SOPE   C2418269   3.310   1.255  10.001  0.4251 -0.4626  0.4433
  163SOPE   H4R18270   3.200   1.251   9.988  0.1435 -3.4084  3.1774
  163SOPE   H4S18271   3.321   1.350  10.056 -1.3213 -0.1916  0.3409
  163SOPE   C2518272   3.381   1.272   9.862 -0.0685 -0.1402  0.0696
  163SOPE   H5R18273   3.491   1.273   9.876 -0.3060  2.5551  2.4971
  163SOPE   H5S18274   3.352   1.185   9.800 -1.0952  0.0519  0.2590
  163SOPE   C2618275   3.361   1.398   9.776  0.3588 -0.5570 -0.5298
  163SOPE   H6R18276   3.253   1.417   9.763  0.2126 -1.7751 -1.2036
  163SOPE   H6S18277   3.411   1.481   9.830 -0.0198 -1.1835  0.8110
  163SOPE   C2718278   3.430   1.377   9.641  0.1038  0.4636  0.1858
  163SOPE   H7R18279   3.532   1.341   9.662  0.0158  0.4236  0.5436
  163SOPE   H7S18280   3.377   1.298   9.584 -1.4843  1.0251  0.8332
  163SOPE   C2818281   3.437   1.501   9.547 -0.2103  0.0986  0.2698
  163SOPE   H8R18282   3.498   1.575   9.602  2.0192 -1.3954 -0.1435
  163SOPE   H8S18283   3.494   1.475   9.455 -0.3106  0.1576  0.1889
  163SOPE   C2918284   3.304   1.548   9.493 -0.3209 -0.2401 -0.4849
  163SOPE   H9118285   3.237   1.583   9.573  0.2042 -2.4509  0.9585
  163SOPE  C21018286   3.259   1.553   9.367 -0.9342 -0.0842 -0.1309
  163SOPE  H10118287   3.159   1.599   9.357 -1.6100 -1.7958 -1.3731
  163SOPE  C21118288   3.334   1.518   9.249 -0.1264 -0.0223 -0.1036
  163SOPE  H11R18289   3.442   1.545   9.247  0.0527 -0.6181 -4.9710
  163SOPE  H11S18290   3.294   1.568   9.159  0.5695 -1.5276 -1.2783
  163SOPE  C21218291   3.328   1.365   9.216 -0.1126 -0.5153 -0.0770
  163SOPE  H12R18292   3.227   1.318   9.224  0.2194 -0.9072  2.2517
  163SOPE  H12S18293   3.396   1.318   9.290  3.2933 -0.2284 -2.8943
  163SOPE  C21318294   3.386   1.330   9.074 -0.1152  0.1034 -0.2771
  163SOPE  H13R18295   3.491   1.358   9.052  0.0478  0.9481  1.4877
  163SOPE  H13S18296   3.331   1.393   9.001  1.4011  0.8697 -0.7831
  163SOPE  C21418297   3.387   1.181   9.032 -0.0921  0.4934  0.7858
  163SOPE  H14R18298   3.279   1.162   9.020 -0.5678  3.6795 -0.5395
  163SOPE  H14S18299   3.424   1.121   9.118 -0.2405  0.3754  0.7674
  163SOPE  C21518300   3.475   1.157   8.917 -0.1479 -0.3932  0.2820
  163SOPE  H15R18301   3.582   1.168   8.946 -0.3278 -1.9686  1.6517
  163SOPE  H15S18302   3.466   1.236   8.840 -0.4569 -0.8950 -0.2001
  163SOPE  C21618303   3.462   1.007   8.857  0.0878  0.0214  0.1911
  163SOPE  H16R18304   3.485   0.931   8.935  0.8837 -1.0891 -1.1040
  163SOPE  H16S18305   3.541   1.001   8.780  2.4134 -1.7996  2.6160
  163SOPE  C21718306   3.323   0.988   8.798 -0.2234  0.3086 -0.1709
  163SOPE  H17R18307   3.320   1.021   8.692 -1.6962  0.9058  0.0403
  163SOPE  H17S18308   3.235   1.037   8.846  1.2922  0.9278  2.0587
  163SOPE  C21818309   3.278   0.839   8.796  0.0750  0.0389 -0.0153
  163SOPE  H18R18310   3.317   0.779   8.711  1.5329 -0.1831  0.7999
  163SOPE  H18S18311   3.168   0.824   8.798 -0.0214  0.4408 -1.6249
  163SOPE  H18T18312   3.319   0.785   8.884 -1.7876 -1.9940 -0.3420
  163SOPE   C3318313   3.479   1.676  10.063 -0.5639 -0.9766 -0.1985
  163SOPE   H3X18314   3.401   1.691   9.985 -1.2984 -2.0534  0.3122
  163SOPE   H3Y18315   3.534   1.592  10.016 -1.9019 -0.4020 -2.8918
  163SOPE   C3418316   3.574   1.797  10.079 -0.1297  0.0747  0.1360
  163SOPE   H4X18317   3.652   1.768  10.154  0.6560  1.8226  0.0063
  163SOPE   H4Y18318   3.512   1.881  10.116  1.7091  1.8365 -0.7174
  163SOPE   C3518319   3.639   1.834   9.948  0.5283  0.2043 -0.0807
  163SOPE   H5X18320   3.686   1.934   9.951  2.2776 -0.5063 -2.4201
  163SOPE   H5Y18321   3.560   1.836   9.870 -0.2504  0.5687  0.7003
  163SOPE   C3618322   3.755   1.745   9.918 -0.5756 -0.6537 -0.0045
  163SOPE   H6X18323   3.743   1.651   9.860 -1.1327 -0.0349 -0.8949
  163SOPE   H6Y18324   3.799   1.710  10.014  1.2594  0.3682 -0.4530
  163SOPE   C3718325   3.867   1.819   9.840  0.7639 -0.5813 -0.5997
  163SOPE   H7X18326   3.951   1.747   9.824 -0.3280 -2.5910  2.2274
  163SOPE   H7Y18327   3.911   1.895   9.908  0.0160  1.4132 -2.3005
  163SOPE   C3818328   3.835   1.883   9.708 -0.4960  0.2736 -0.2295
  163SOPE   H8X18329   3.924   1.938   9.668 -0.4621  0.9536  0.7578
  163SOPE   H8Y18330   3.744   1.945   9.717  1.1204  3.1787 -2.7449
  163SOPE   C3918331   3.798   1.785   9.596  0.0291  0.2614  0.2262
  163SOPE   H9X18332   3.700   1.742   9.625  1.0524 -1.2251  1.5647
  163SOPE   H9Y18333   3.873   1.704   9.582  0.8995  1.4023 -1.7802
  163SOPE  C31018334   3.780   1.863   9.461  1.0916  0.2129 -0.6012
  163SOPE  H10X18335   3.876   1.918   9.448  1.1042 -0.5019 -3.8424
  163SOPE  H10Y18336   3.704   1.941   9.483 -0.5514 -1.4165 -0.4528
  163SOPE  C31118337   3.745   1.787   9.333  0.1824  0.2261 -0.0853
  163SOPE  H11X18338   3.676   1.705   9.364  0.1893  1.2692  2.7303
  163SOPE  H11Y18339   3.832   1.728   9.296 -2.8783 -3.3286 -2.0655
  163SOPE  C31218340   3.682   1.875   9.223 -0.2646  0.4802  0.7341
  163SOPE  H12X18341   3.756   1.951   9.190  0.3761 -0.2495  0.4519
  163SOPE  H12Y18342   3.596   1.928   9.267  2.0356  4.0867  1.0550
  163SOPE  C31318343   3.645   1.803   9.094 -1.1610  0.3107 -0.7689
  163SOPE  H13X18344   3.576   1.868   9.036 -2.5224 -1.8578 -1.6468
  163SOPE  H13Y18345   3.586   1.712   9.120 -0.7450  0.6429  1.4742
  163SOPE  C31418346   3.758   1.760   9.006 -0.1469  0.1540 -0.6777
  163SOPE  H14X18347   3.842   1.719   9.066 -1.1263 -1.3548 -0.3068
  163SOPE  H14Y18348   3.813   1.847   8.963  3.2794  0.1666  3.3531
  163SOPE  C31518349   3.711   1.656   8.903 -0.5163 -0.3953 -0.3801
  163SOPE  H15X18350   3.697   1.558   8.953  3.7504 -1.9833 -2.0998
  163SOPE  H15Y18351   3.797   1.652   8.833 -0.9879  0.9453 -1.0505
  163SOPE  C31618352   3.582   1.691   8.818 -1.3982 -0.2652  0.0023
  163SOPE  H16X18353   3.601   1.788   8.767 -2.3449 -1.1397 -2.0391
  163SOPE  H16Y18354   3.497   1.710   8.886 -0.6921 -1.6802  1.3026
  163SOPE  C31718355   3.549   1.573   8.721 -0.3997 -0.1276 -0.0445
  163SOPE  H17X18356   3.550   1.482   8.785  2.7408  0.1319  0.3664
  163SOPE  H17Y18357   3.627   1.562   8.642  0.5752 -0.1337  0.9001
  163SOPE  C31818358   3.408   1.587   8.656 -0.1252  0.3518  0.3811
  163SOPE  H18X18359   3.390   1.493   8.600  0.0128 -1.1109  2.7101
  163SOPE  H18Y18360   3.383   1.670   8.586  0.6807 -0.2954 -0.6946
  163SOPE  H18Z18361   3.330   1.581   8.735 -0.7062 -1.6006 -0.2997
  164SOPE     N18362   6.193   5.931  10.874  0.4410 -0.1411  0.0845
  164SOPE   HN118363   6.249   5.949  10.959  1.6626 -0.5290 -0.6239
  164SOPE   HN218364   6.095   5.915  10.905  0.3664 -1.3424 -0.7553
  164SOPE   HN318365   6.224   5.842  10.831  0.7749  0.5356 -1.1093
  164SOPE   C1218366   6.207   6.047  10.776 -0.6990  0.1463 -0.0574
  164SOPE  H12A18367   6.303   6.042  10.719 -0.3267 -0.5964  0.6298
  164SOPE  H12B18368   6.220   6.142  10.831  1.8558  0.1454 -0.5987
  164SOPE   C1118369   6.082   6.045  10.686 -0.0774 -0.0484  0.2496
  164SOPE  H11A18370   6.063   5.941  10.652 -2.5959  0.4980 -0.1449
  164SOPE  H11B18371   6.094   6.116  10.601 -1.3490  0.0607  0.1490
  164SOPE     P18372   5.921   6.246  10.749 -0.4311  0.0630 -0.0973
  164SOPE   O1318373   6.018   6.342  10.809  0.1323 -0.0308  0.4922
  164SOPE   O1418374   5.783   6.247  10.812 -0.4185  0.0991 -0.0691
  164SOPE   O1218375   5.977   6.099  10.762 -0.5181 -0.0632  0.4750
  164SOPE   O1118376   5.905   6.278  10.599  0.3864  0.3056 -0.1711
  164SOPE    C118377   5.802   6.235  10.516  0.1056  0.2844  0.0672
  164SOPE    HA18378   5.708   6.287  10.545  0.4326  0.2560  1.2106
  164SOPE    HB18379   5.788   6.128  10.542 -2.3767  0.6675  0.4077
  164SOPE    C218380   5.830   6.257  10.365  0.4965  0.4059 -0.2526
  164SOPE    HS18381   5.748   6.207  10.310  1.6298 -2.1167  0.2426
  164SOPE   O2118382   5.950   6.191  10.323  0.0140  0.3433 -0.4787
  164SOPE   C2118383   5.959   6.065  10.348 -0.6159 -0.6688  0.6576
  164SOPE   O2218384   5.885   5.988  10.404  0.7469 -0.2877 -0.5328
  164SOPE   C2218385   6.100   6.015  10.310 -0.2744 -0.1168  0.1349
  164SOPE   H2R18386   6.136   5.935  10.377  0.2165 -1.6626 -1.9332
  164SOPE   H2S18387   6.171   6.100  10.323 -0.9705  0.7765 -1.6128
  164SOPE    C318388   5.835   6.415  10.334  0.1287 -0.1886  0.1359
  164SOPE    HX18389   5.916   6.461  10.393  1.9579 -2.6959 -0.3359
  164SOPE    HY18390   5.745   6.471  10.366 -2.4000 -2.7481 -2.1739
  164SOPE   O3118391   5.840   6.445  10.192  0.8943  0.2531  0.3730
  164SOPE   C3118392   5.899   6.566  10.166  0.2090  0.2664 -0.7241
  164SOPE   O3218393   5.916   6.654  10.247 -0.7512  0.7219 -0.5218
  164SOPE   C3218394   5.949   6.569  10.020 -0.4314  0.1340 -0.5273
  164SOPE   H2X18395   5.872   6.517   9.959 -0.5852  0.4644 -0.6157
  164SOPE   H2Y18396   6.042   6.508  10.018 -0.8836 -0.5622 -0.5865
  164SOPE   C2318397   6.102   5.952  10.171  0.4254 -0.1469  0.8387
  164SOPE   H3R18398   6.009   5.892  10.158  0.2199  0.6668 -1.7722
  164SOPE   H3S18399   6.192   5.889  10.157  1.3009  1.0232  1.1211
  164SOPE   C2418400   6.090   6.065  10.057  0.4550  0.4098  0.2596
  164SOPE   H4R18401   6.034   6.025   9.970 -1.4846  0.0592  1.6208
  164SOPE   H4S18402   6.032   6.151  10.098 -0.6084  0.0597 -0.5000
  164SOPE   C2518403   6.230   6.107  10.032 -0.3243  0.0219 -0.2004
  164SOPE   H5R18404   6.259   6.157  10.127 -1.9850  0.6267 -0.0023
  164SOPE   H5S18405   6.299   6.020  10.018  0.6408  0.8764 -0.8483
  164SOPE   C2618406   6.248   6.214   9.917  0.9210  0.6447  0.5112
  164SOPE   H6R18407   6.163   6.286   9.923  1.9154  1.6365  3.7007
  164SOPE   H6S18408   6.340   6.271   9.941  2.1495 -1.5472  1.0577
  164SOPE   C2718409   6.257   6.173   9.772  0.3367 -0.5356  0.4145
  164SOPE   H7R18410   6.342   6.102   9.766  1.4559  0.7992  0.2704
  164SOPE   H7S18411   6.165   6.113   9.754 -0.0176  0.2664 -0.4611
  164SOPE   C2818412   6.270   6.285   9.667 -0.2840 -0.0417  0.4569
  164SOPE   H8R18413   6.283   6.242   9.566  1.1969  0.4619  0.4132
  164SOPE   H8S18414   6.171   6.334   9.662 -0.0194  0.2175 -3.3121
  164SOPE   C2918415   6.372   6.393   9.686 -0.3015  0.5600 -0.5690
  164SOPE   H9118416   6.423   6.380   9.783 -4.8014  0.5804  1.9523
  164SOPE  C21018417   6.412   6.482   9.596 -0.3083  0.4873 -0.0959
  164SOPE  H10118418   6.496   6.551   9.613 -1.4846  1.4862  1.9085
  164SOPE  C21118419   6.353   6.498   9.456  0.2614  0.0209  0.0583
  164SOPE  H11R18420   6.359   6.606   9.431 -2.7012 -0.0145 -0.9489
  164SOPE  H11S18421   6.246   6.469   9.458  0.9755 -2.8293 -0.4755
  164SOPE  C21218422   6.411   6.428   9.334  0.3385 -0.1320 -0.1396
  164SOPE  H12R18423   6.401   6.318   9.339 -1.9158  0.0723  0.1220
  164SOPE  H12S18424   6.522   6.439   9.332  0.4258 -0.0989  2.5944
  164SOPE  C21318425   6.356   6.480   9.197  0.0516  0.2597 -0.2443
  164SOPE  H13R18426   6.245   6.489   9.196  0.1333  1.7966  1.8669
  164SOPE  H13S18427   6.392   6.406   9.122 -0.0250  0.8195 -0.8410
  164SOPE  C21418428   6.416   6.608   9.158 -0.5742 -1.0790 -0.0292
  164SOPE  H14R18429   6.526   6.608   9.172 -0.6397  0.7394  0.6636
  164SOPE  H14S18430   6.372   6.695   9.211  1.3610 -0.3457  0.4121
  164SOPE  C21518431   6.392   6.636   9.005  0.2687 -0.4056 -0.2260
  164SOPE  H15R18432   6.286   6.630   8.974  0.4194 -2.4004 -0.3895
  164SOPE  H15S18433   6.442   6.556   8.946  3.7595  0.4416  1.4060
  164SOPE  C21618434   6.452   6.769   8.955  0.7098 -0.0481 -0.3418
  164SOPE  H16R18435   6.563   6.775   8.950  0.7672 -0.9842 -0.3953
  164SOPE  H16S18436   6.409   6.842   9.027 -0.3182 -1.9999  1.0725
  164SOPE  C21718437   6.406   6.788   8.813  0.1910 -0.2217  0.9037
  164SOPE  H17R18438   6.300   6.759   8.795 -0.1627  2.3422 -1.5083
  164SOPE  H17S18439   6.456   6.712   8.749  0.1734  0.1537  0.4440
  164SOPE  C21818440   6.425   6.932   8.767 -0.2912 -0.4435 -0.8434
  164SOPE  H18R18441   6.534   6.953   8.759  0.1174 -2.3946 -0.6160
  164SOPE  H18S18442   6.381   6.999   8.844 -0.7461 -2.2746  0.5157
  164SOPE  H18T18443   6.376   6.938   8.667 -2.6200  0.1312  0.2873
  164SOPE   C3318444   5.982   6.708   9.971 -0.5858 -0.3484  0.4324
  164SOPE   H3X18445   6.022   6.764  10.059 -0.0038 -0.4542  0.2385
  164SOPE   H3Y18446   5.890   6.758   9.935 -0.6207 -0.2629  0.6363
  164SOPE   C3418447   6.078   6.698   9.850 -0.9794  0.5033 -0.0913
  164SOPE   H4X18448   6.039   6.631   9.771 -0.7554 -0.1766  0.3670
  164SOPE   H4Y18449   6.175   6.654   9.883 -0.8039  1.3052  0.4887
  164SOPE   C3518450   6.093   6.840   9.792 -0.0996  0.4044 -0.1046
  164SOPE   H5X18451   6.147   6.910   9.858  1.8658 -1.3247  0.1829
  164SOPE   H5Y18452   5.989   6.880   9.787 -0.2470  0.1980  1.1532
  164SOPE   C3618453   6.155   6.826   9.656  0.2192  0.3723  0.4667
  164SOPE   H6X18454   6.253   6.774   9.664  0.3554  0.3020 -1.5527
  164SOPE   H6Y18455   6.192   6.926   9.627  1.3157 -0.0972  0.2338
  164SOPE   C3718456   6.068   6.750   9.545  0.1478 -0.1523 -0.4155
  164SOPE   H7X18457   5.969   6.779   9.586  1.0553 -0.8396  2.3766
  164SOPE   H7Y18458   6.085   6.641   9.557  0.8805  0.3199  3.3673
  164SOPE   C3818459   6.091   6.794   9.403 -0.3091 -0.1021 -0.1763
  164SOPE   H8X18460   6.199   6.802   9.376 -0.3067  0.0634 -0.1167
  164SOPE   H8Y18461   6.047   6.896   9.392  2.7075  1.0161 -2.9409
  164SOPE   C3918462   6.007   6.715   9.302 -0.5680  0.1746 -0.3531
  164SOPE   H9X18463   5.899   6.717   9.330 -0.9005 -1.2679 -1.4202
  164SOPE   H9Y18464   6.038   6.608   9.302 -0.7759  0.1111 -0.7229
  164SOPE  C31018465   6.036   6.766   9.158 -0.0166 -0.0171  0.3289
  164SOPE  H10X18466   6.143   6.792   9.150  0.4098 -1.6376  0.5854
  164SOPE  H10Y18467   5.986   6.865   9.146  0.5760  0.1156 -1.0836
  164SOPE  C31118468   5.976   6.670   9.049 -0.2155 -0.2565 -0.2592
  164SOPE  H11X18469   5.974   6.565   9.086  0.3199  0.2471  1.2387
  164SOPE  H11Y18470   6.041   6.664   8.959 -1.3516  0.1776 -1.1136
  164SOPE  C31218471   5.836   6.707   9.013 -0.5167  0.5666 -0.3443
  164SOPE  H12X18472   5.843   6.796   8.947 -0.7395 -0.1274 -1.3190
  164SOPE  H12Y18473   5.775   6.745   9.098  0.6322 -0.4726  0.9573
  164SOPE  C31318474   5.746   6.612   8.926 -0.5787  1.0340  0.4527
  164SOPE  H13X18475   5.799   6.610   8.828 -1.4310 -2.1112  0.0287
  164SOPE  H13Y18476   5.650   6.660   8.897 -0.3651  0.2016 -1.7020
  164SOPE  C31418477   5.730   6.473   8.988  0.8190  0.2134 -0.2710
  164SOPE  H14X18478   5.753   6.471   9.097  2.2136 -2.9361 -0.5776
  164SOPE  H14Y18479   5.802   6.400   8.946  0.8120 -0.0405  0.1638
  164SOPE  C31518480   5.595   6.415   8.961 -0.3644  0.6381  0.0079
  164SOPE  H15X18481   5.567   6.388   8.857 -3.1682  0.0335  0.8859
  164SOPE  H15Y18482   5.514   6.479   9.003 -0.1792  0.1101  1.1990
  164SOPE  C31618483   5.598   6.274   9.036 -1.4169 -0.2161 -0.3802
  164SOPE  H16X18484   5.631   6.297   9.139 -0.2802  2.8961 -1.3646
  164SOPE  H16Y18485   5.673   6.204   8.991  1.0513  0.6446  2.2467
  164SOPE  C31718486   5.464   6.204   9.037  0.0690 -0.7597  0.3459
  164SOPE  H17X18487   5.446   6.155   8.939  1.0955 -2.5012  1.0078
  164SOPE  H17Y18488   5.386   6.281   9.057  0.7471 -0.2837  1.1925
  164SOPE  C31818489   5.457   6.099   9.147  0.0394 -0.0786  0.2233
  164SOPE  H18X18490   5.355   6.059   9.169  0.3917 -1.3694 -0.4412
  164SOPE  H18Y18491   5.487   6.146   9.243  2.8542 -2.3118  0.5177
  164SOPE  H18Z18492   5.518   6.009   9.125 -1.4144 -1.4459  1.5964
  165SOPE     N18493   4.466   0.162  11.107 -0.0109 -0.2590  0.0014
  165SOPE   HN118494   4.567   0.165  11.085  0.0134 -0.1407  0.1233
  165SOPE   HN218495   4.432   0.195  11.200 -0.4071 -1.0574  0.1415
  165SOPE   HN318496   4.451   0.059  11.105  0.1417 -0.2873  0.2125
  165SOPE   C1218497   4.375   0.217  10.997 -0.1783 -0.1825  0.1660
  165SOPE  H12A18498   4.396   0.326  11.003 -2.3991  0.3783 -1.8610
  165SOPE  H12B18499   4.268   0.206  11.027 -0.1970 -2.0981 -0.4907
  165SOPE   C1118500   4.409   0.168  10.860 -0.4529  0.4734 -0.1939
  165SOPE  H11A18501   4.359   0.221  10.776 -0.9598  3.1859  1.7614
  165SOPE  H11B18502   4.372   0.063  10.869 -1.0040  0.7420  0.7419
  165SOPE     P18503   4.619   0.290  10.776  0.2952  0.0690 -0.0911
  165SOPE   O1318504   4.769   0.270  10.764 -0.4902  0.0832 -0.1822
  165SOPE   O1418505   4.571   0.410  10.847 -0.7233 -0.2206 -0.5701
  165SOPE   O1218506   4.552   0.172  10.838  0.5763 -0.1739  0.2223
  165SOPE   O1118507   4.562   0.291  10.626  0.8877 -0.1266 -0.4895
  165SOPE    C118508   4.637   0.345  10.516 -0.6181  0.1508 -0.0737
  165SOPE    HA18509   4.626   0.280  10.426  0.8620  1.3045 -1.0998
  165SOPE    HB18510   4.745   0.365  10.528 -0.2711 -1.7577  0.1714
  165SOPE    C218511   4.589   0.486  10.474 -0.0293  0.5251  0.0627
  165SOPE    HS18512   4.603   0.553  10.561  3.0876  1.2369 -0.8851
  165SOPE   O2118513   4.451   0.475  10.425 -1.2382 -0.2144  0.1646
  165SOPE   C2118514   4.384   0.587  10.410  0.0090 -0.4513 -0.3200
  165SOPE   O2218515   4.430   0.699  10.443 -0.1409 -0.0798 -0.0787
  165SOPE   C2218516   4.248   0.562  10.346  0.7232 -0.1407 -0.3402
  165SOPE   H2R18517   4.182   0.550  10.434 -4.8090  1.1925 -4.0533
  165SOPE   H2S18518   4.254   0.466  10.291  2.5548 -1.4656  2.1347
  165SOPE    C318519   4.684   0.540  10.366  0.7009  0.4779  0.4317
  165SOPE    HX18520   4.784   0.558  10.411  0.4101 -0.1920  1.3703
  165SOPE    HY18521   4.659   0.643  10.332 -1.4222  1.1392  3.6916
  165SOPE   O3118522   4.696   0.448  10.251  0.1020 -0.2731 -0.5121
  165SOPE   C3118523   4.623   0.478  10.150  0.1381  0.0510  0.1467
  165SOPE   O3218524   4.560   0.584  10.138 -0.2815 -1.1999 -0.5702
  165SOPE   C3218525   4.640   0.371  10.041 -0.1667 -0.0499  0.4183
  165SOPE   H2X18526   4.558   0.389   9.969  0.3294 -0.3984 -0.2352
  165SOPE   H2Y18527   4.624   0.271  10.087 -2.5847 -0.0920 -0.4464
  165SOPE   C2318528   4.193   0.678  10.250  0.1106  0.3414 -0.6294
  165SOPE   H3R18529   4.258   0.679  10.160 -0.9439  1.2709 -1.3848
  165SOPE   H3S18530   4.199   0.769  10.314  2.3609 -2.5518  3.5154
  165SOPE   C2418531   4.056   0.646  10.199  0.2811  0.7367 -0.0938
  165SOPE   H4R18532   4.047   0.536  10.188  1.5357  0.6166  0.0275
  165SOPE   H4S18533   3.976   0.671  10.273 -0.6069 -3.2927  0.4272
  165SOPE   C2518534   4.028   0.726  10.070 -0.7729  0.4710  0.8584
  165SOPE   H5R18535   3.920   0.748  10.062 -0.8478 -0.1843 -0.0108
  165SOPE   H5S18536   4.077   0.826  10.068 -0.4770  0.3264  0.8397
  165SOPE   C2618537   4.065   0.655   9.945  0.1318  0.1616  0.0247
  165SOPE   H6R18538   4.169   0.618   9.949 -0.1617 -0.7397 -0.4927
  165SOPE   H6S18539   3.998   0.569   9.921 -0.2879  0.5439 -0.1969
  165SOPE   C2718540   4.063   0.749   9.823  0.2764  0.0891  0.3605
  165SOPE   H7R18541   4.088   0.856   9.840 -0.0597  0.0653  1.0162
  165SOPE   H7S18542   4.139   0.708   9.752  0.5119 -0.5306  0.9723
  165SOPE   C2818543   3.914   0.763   9.776  0.1609  0.1426  0.4064
  165SOPE   H8R18544   3.876   0.661   9.753 -1.7888  0.7121  1.0083
  165SOPE   H8S18545   3.852   0.810   9.855 -0.2915  1.5461 -0.7549
  165SOPE   C2918546   3.898   0.852   9.657  0.6006  0.1363  0.2148
  165SOPE   H9118547   3.913   0.958   9.685 -1.6049  0.5477 -0.0951
  165SOPE  C21018548   3.873   0.808   9.532 -0.9830 -0.3916  0.1939
  165SOPE  H10118549   3.873   0.886   9.455  0.8230  0.1671  0.7330
  165SOPE  C21118550   3.834   0.669   9.495 -1.0506  0.0034 -0.3418
  165SOPE  H11R18551   3.745   0.639   9.554 -0.7770 -1.4350 -0.6641
  165SOPE  H11S18552   3.918   0.604   9.525 -0.1784  0.5653 -1.5302
  165SOPE  C21218553   3.799   0.645   9.343  0.2514  0.2732 -0.1337
  165SOPE  H12R18554   3.745   0.549   9.330  1.1519  0.2110 -4.1132
  165SOPE  H12S18555   3.891   0.641   9.280 -0.3753 -2.1228 -0.9492
  165SOPE  C21318556   3.690   0.747   9.300  0.2567  0.3805  0.1974
  165SOPE  H13R18557   3.734   0.839   9.258 -0.3245 -0.5402 -2.4917
  165SOPE  H13S18558   3.634   0.768   9.394 -0.7544  1.1528 -0.5621
  165SOPE  C21418559   3.617   0.693   9.181 -0.2447  0.3040 -0.2587
  165SOPE  H14R18560   3.517   0.739   9.195  0.3517  0.4996  3.8663
  165SOPE  H14S18561   3.599   0.584   9.185  0.3716  0.2464  1.3160
  165SOPE  C21518562   3.689   0.723   9.045 -0.1485 -0.3990  0.0978
  165SOPE  H15R18563   3.796   0.693   9.055 -0.5369 -1.6493  0.5142
  165SOPE  H15S18564   3.684   0.834   9.035  4.9752  0.0647  1.0767
  165SOPE  C21618565   3.626   0.651   8.927 -0.2925 -0.2102 -0.2417
  165SOPE  H16R18566   3.530   0.700   8.900  0.6484  1.6225 -0.3918
  165SOPE  H16S18567   3.598   0.545   8.942 -1.8575  0.0744 -1.0562
  165SOPE  C21718568   3.731   0.654   8.815  0.4169 -0.6335  0.3489
  165SOPE  H17R18569   3.818   0.609   8.866  1.0056  0.6767  0.5228
  165SOPE  H17S18570   3.747   0.760   8.786 -2.0057  0.3914  2.6023
  165SOPE  C21818571   3.688   0.565   8.694 -0.1567  0.6896 -0.0638
  165SOPE  H18R18572   3.672   0.459   8.723  1.2807  0.8072  1.2546
  165SOPE  H18S18573   3.770   0.571   8.619  1.4563  1.0531  1.6642
  165SOPE  H18T18574   3.607   0.617   8.640 -0.1954  0.3612 -0.3223
  165SOPE   C3318575   4.772   0.362   9.967 -0.0292 -0.4333  0.0054
  165SOPE   H3X18576   4.823   0.276  10.015  2.6096  1.1196  0.1184
  165SOPE   H3Y18577   4.852   0.438   9.983  2.7918 -3.3589  0.1541
  165SOPE   C3418578   4.771   0.330   9.816 -0.2804 -0.1930  0.1933
  165SOPE   H4X18579   4.706   0.241   9.802 -1.1148  0.1569  1.7828
  165SOPE   H4Y18580   4.870   0.292   9.781  0.3478 -0.0983  1.8026
  165SOPE   C3518581   4.729   0.441   9.721 -0.0077 -0.1928 -0.5736
  165SOPE   H5X18582   4.762   0.541   9.754 -1.0139 -0.3774  1.0667
  165SOPE   H5Y18583   4.618   0.446   9.725  0.0280  1.4536 -1.3299
  165SOPE   C3618584   4.766   0.418   9.568 -0.7927  0.6145  0.0466
  165SOPE   H6X18585   4.723   0.317   9.552 -0.4737 -0.1720  3.7118
  165SOPE   H6Y18586   4.875   0.409   9.545 -1.0636 -1.5137 -0.5123
  165SOPE   C3718587   4.711   0.520   9.468 -0.1138 -0.1065 -0.8321
  165SOPE   H7X18588   4.752   0.616   9.505  1.3903 -1.1027  0.1294
  165SOPE   H7Y18589   4.600   0.533   9.473 -0.2333 -1.4630  0.6398
  165SOPE   C3818590   4.745   0.499   9.324  0.0283 -0.2034  0.4185
  165SOPE   H8X18591   4.682   0.415   9.286 -3.1449  1.9662  0.7304
  165SOPE   H8Y18592   4.854   0.476   9.320 -0.1664 -0.8601 -2.5002
  165SOPE   C3918593   4.705   0.618   9.237 -0.0098  0.0991 -0.2563
  165SOPE   H9X18594   4.755   0.703   9.289 -0.1981 -0.4299  0.8025
  165SOPE   H9Y18595   4.594   0.618   9.246 -0.0771  0.1027 -1.0345
  165SOPE  C31018596   4.738   0.610   9.089 -0.6948  0.6383  0.1366
  165SOPE  H10X18597   4.849   0.600   9.080 -0.4803  0.3405  2.6629
  165SOPE  H10Y18598   4.716   0.709   9.044 -0.3882  0.5617 -0.1878
  165SOPE  C31118599   4.660   0.509   8.994  0.1166  0.0418  0.1512
  165SOPE  H11X18600   4.553   0.523   9.021  0.7625 -0.9190  3.4411
  165SOPE  H11Y18601   4.698   0.412   9.033  1.3586  0.9590  1.2502
  165SOPE  C31218602   4.683   0.518   8.846 -0.3981  0.6402 -0.3143
  165SOPE  H12X18603   4.791   0.516   8.822 -0.0672 -0.8124  1.1777
  165SOPE  H12Y18604   4.648   0.616   8.806 -3.0056 -0.2431 -0.3044
  165SOPE  C31318605   4.619   0.414   8.771 -0.2830 -0.1377 -0.2990
  165SOPE  H13X18606   4.511   0.429   8.795  0.4240  2.5463  1.4403
  165SOPE  H13Y18607   4.651   0.312   8.802 -1.3569  0.2372  2.1311
  165SOPE  C31418608   4.643   0.414   8.614  0.0713 -0.0006 -0.5326
  165SOPE  H14X18609   4.752   0.407   8.599  0.7061  1.5553  2.9745
  165SOPE  H14Y18610   4.624   0.521   8.590 -0.5848 -0.1061 -0.4905
  165SOPE  C31518611   4.559   0.302   8.551  0.7033  0.3007 -0.1739
  165SOPE  H15X18612   4.463   0.290   8.604  0.2010 -0.9538 -1.3484
  165SOPE  H15Y18613   4.602   0.204   8.583 -1.0591 -0.6934 -0.8035
  165SOPE  C31618614   4.560   0.302   8.397  0.3193  0.1237 -0.5294
  165SOPE  H16X18615   4.664   0.284   8.362  0.0505  0.3642 -1.4664
  165SOPE  H16Y18616   4.529   0.404   8.368 -1.0781 -0.1796 -0.1442
  165SOPE  C31718617   4.473   0.209   8.317 -0.2066 -0.0881  0.1080
  165SOPE  H17X18618   4.478   0.104   8.353 -0.6305  0.1453  0.8639
  165SOPE  H17Y18619   4.496   0.211   8.208  0.9301 -1.6649  0.3092
  165SOPE  C31818620   4.326   0.245   8.328 -0.2811 -0.6585 -0.0554
  165SOPE  H18X18621   4.314   0.339   8.270  1.5290 -1.1270 -1.2387
  165SOPE  H18Y18622   4.289   0.255   8.432  0.2319  5.3291 -0.2854
  165SOPE  H18Z18623   4.258   0.178   8.271  1.0601  0.0648 -2.5566
  166SOPE     N18624   1.114   6.661  10.777 -0.0280 -0.8627 -0.0299
  166SOPE   HN118625   1.210   6.697  10.796 -0.1535  0.5076 -1.8827
  166SOPE   HN218626   1.051   6.663  10.859  0.6813  1.8610  0.5135
  166SOPE   HN318627   1.119   6.563  10.742 -2.8219 -0.5890 -1.2606
  166SOPE   C1218628   1.057   6.752  10.665 -0.5231 -0.2213 -0.2159
  166SOPE  H12A18629   0.950   6.727  10.652 -0.4405 -0.0609 -1.2317
  166SOPE  H12B18630   1.111   6.726  10.572  1.5684  0.8182  0.6646
  166SOPE   C1118631   1.063   6.900  10.703 -0.0523  0.1204  0.2252
  166SOPE  H11A18632   0.993   6.924  10.786  2.9494 -0.2308  2.9364
  166SOPE  H11B18633   1.025   6.955  10.614 -1.4039 -1.5282 -0.2580
  166SOPE     P18634   1.224   7.105  10.761 -0.3462 -0.3026 -0.1101
  166SOPE   O1318635   1.355   7.147  10.708  0.3229 -0.0187 -0.0515
  166SOPE   O1418636   1.186   7.138  10.905 -0.6458  0.0292  0.1784
  166SOPE   O1218637   1.193   6.952  10.737 -0.4958  0.5687 -0.2412
  166SOPE   O1118638   1.122   7.185  10.674  0.2803  0.5779  0.2168
  166SOPE    C118639   1.171   7.250  10.555 -0.2785  0.2868 -0.3206
  166SOPE    HA18640   1.187   7.174  10.476 -2.0994  2.8740 -3.2746
  166SOPE    HB18641   1.258   7.318  10.569 -0.8006  1.9212 -4.2932
  166SOPE    C218642   1.054   7.350  10.507  0.1693  0.3639 -0.2303
  166SOPE    HS18643   0.972   7.284  10.471  0.0660  0.7397 -0.6953
  166SOPE   O2118644   1.111   7.428  10.405  0.7913  0.3025  0.0259
  166SOPE   C2118645   1.106   7.376  10.285 -0.5917 -0.2038 -0.2580
  166SOPE   O2218646   1.047   7.270  10.260  0.4864  0.3686 -0.7343
  166SOPE   C2218647   1.181   7.453  10.187 -0.2821  0.1001 -0.2507
  166SOPE   H2R18648   1.276   7.397  10.175 -1.3842 -2.3629  2.1177
  166SOPE   H2S18649   1.200   7.559  10.216 -1.4545  0.2478 -0.0265
  166SOPE    C318650   1.006   7.442  10.616 -0.5274  0.3193 -0.5016
  166SOPE    HX18651   1.096   7.465  10.677 -0.3028  0.8095 -1.0135
  166SOPE    HY18652   0.948   7.378  10.686  0.2658  1.8267  1.5747
  166SOPE   O3118653   0.926   7.555  10.564  0.0832  0.4976  0.0580
  166SOPE   C3118654   0.791   7.532  10.565 -0.3655  0.3785  0.3701
  166SOPE   O3218655   0.745   7.425  10.595 -0.0306 -0.4015  0.4594
  166SOPE   C3218656   0.718   7.653  10.510  0.1472 -0.1812 -0.8951
  166SOPE   H2X18657   0.748   7.746  10.561  0.5517 -1.7929  1.9230
  166SOPE   H2Y18658   0.609   7.643  10.533  0.4075 -0.0624  0.4008
  166SOPE   C2318659   1.113   7.456  10.048  0.3072 -0.4433 -0.2274
  166SOPE   H3R18660   1.074   7.360  10.008 -2.4579  0.2366  0.7503
  166SOPE   H3S18661   1.192   7.488   9.976  1.0478 -0.0847  0.7364
  166SOPE   C2418662   0.987   7.544  10.051 -0.0942 -0.1485  0.1628
  166SOPE   H4R18663   0.906   7.482  10.095  1.6378 -2.1662  0.5729
  166SOPE   H4S18664   1.006   7.632  10.116 -1.2390  1.5092 -1.6936
  166SOPE   C2518665   0.936   7.595   9.918  0.2789  0.6501  0.1283
  166SOPE   H5R18666   0.892   7.515   9.855 -0.0845 -0.1935  1.4343
  166SOPE   H5S18667   0.851   7.661   9.945  0.0211  0.8522 -1.1321
  166SOPE   C2618668   1.039   7.673   9.841  0.4810  0.0515 -0.1584
  166SOPE   H6R18669   1.091   7.741   9.912  0.1490 -2.4558  2.6206
  166SOPE   H6S18670   1.121   7.606   9.808 -1.0681 -1.5145 -0.9670
  166SOPE   C2718671   0.988   7.764   9.728  0.6148 -0.2640 -0.0069
  166SOPE   H7R18672   0.941   7.695   9.655  0.2886 -2.5323  2.3070
  166SOPE   H7S18673   0.915   7.834   9.774  0.0576 -0.0929 -1.1361
  166SOPE   C2818674   1.098   7.842   9.659 -0.3247  0.2157 -0.0665
  166SOPE   H8R18675   1.159   7.892   9.737  2.1739 -0.5872 -1.4891
  166SOPE   H8S18676   1.165   7.764   9.617 -1.2968 -1.1496  0.8386
  166SOPE   C2918677   1.054   7.932   9.548 -0.7439  0.2118  0.0309
  166SOPE   H9118678   1.006   8.021   9.589 -1.7188  0.8209 -2.3428
  166SOPE  C21018679   1.052   7.898   9.417 -0.0604 -0.4008 -0.2138
  166SOPE  H10118680   1.016   7.970   9.342 -0.7267  0.7123  1.1584
  166SOPE  C21118681   1.075   7.758   9.375 -0.1903 -0.2385  0.5588
  166SOPE  H11R18682   1.018   7.691   9.442 -0.2098 -1.8543 -1.0293
  166SOPE  H11S18683   1.184   7.742   9.393 -0.1384 -0.9767 -0.3506
  166SOPE  C21218684   1.021   7.735   9.236 -0.5573  0.2034  0.2636
  166SOPE  H12R18685   1.084   7.801   9.173 -1.4001 -0.2659 -1.0924
  166SOPE  H12S18686   0.916   7.770   9.235  0.4426  3.4418  1.8704
  166SOPE  C21318687   1.050   7.591   9.196  0.8517 -0.5790 -0.1566
  166SOPE  H13R18688   1.012   7.515   9.268  1.3980  0.4834  1.2953
  166SOPE  H13S18689   1.161   7.583   9.207  0.8856  1.8060  1.6610
  166SOPE  C21418690   1.005   7.564   9.050 -0.2242  0.0533  0.9010
  166SOPE  H14R18691   1.029   7.641   8.974 -0.9224 -0.8017 -0.2122
  166SOPE  H14S18692   0.901   7.525   9.046 -0.1978 -0.3190  3.2914
  166SOPE  C21518693   1.080   7.435   9.006  0.1858  0.1196  0.6784
  166SOPE  H15R18694   1.071   7.354   9.081  1.4481 -0.1398  0.5584
  166SOPE  H15S18695   1.186   7.453   8.977 -0.4496  3.2715  0.1163
  166SOPE  C21618696   1.019   7.365   8.877  0.1386 -0.1210 -0.2670
  166SOPE  H16R18697   1.059   7.422   8.791 -3.1864  0.2713 -1.6444
  166SOPE  H16S18698   0.908   7.357   8.887  0.1673 -0.0511  0.1294
  166SOPE  C21718699   1.071   7.221   8.858 -0.1393  0.2371 -0.8508
  166SOPE  H17R18700   1.038   7.175   8.953 -1.3505  0.5405 -1.1243
  166SOPE  H17S18701   1.179   7.198   8.845  0.0661  0.6282  0.1581
  166SOPE  C21818702   0.996   7.148   8.746 -0.6469  1.2948  1.0297
  166SOPE  H18R18703   0.888   7.173   8.755 -1.3311 -1.3245  0.3033
  166SOPE  H18S18704   1.006   7.038   8.752 -2.0227  1.1144  0.1992
  166SOPE  H18T18705   1.023   7.187   8.645 -1.8640  1.7994  0.8863
  166SOPE   C3318706   0.721   7.659  10.355  0.1896  0.0624  0.0391
  166SOPE   H3X18707   0.664   7.577  10.306 -2.9112  1.0931  1.7939
  166SOPE   H3Y18708   0.829   7.650  10.328 -0.0103  0.2811 -0.8370
  166SOPE   C3418709   0.654   7.788  10.310 -0.1720  0.2387  1.0960
  166SOPE   H4X18710   0.696   7.871  10.370  0.2406 -0.0652  1.2270
  166SOPE   H4Y18711   0.545   7.777  10.331 -0.7752 -3.2411 -3.2205
  166SOPE   C3518712   0.665   7.826  10.161 -0.5796 -0.1273  0.1122
  166SOPE   H5X18713   0.673   7.734  10.100  0.0143 -1.0504  1.5610
  166SOPE   H5Y18714   0.762   7.878  10.146 -0.1410 -0.7730  0.6638
  166SOPE   C3618715   0.563   7.924  10.109  0.4182 -0.4422 -0.1630
  166SOPE   H6X18716   0.541   8.009  10.178 -1.6066  0.2444 -1.5808
  166SOPE   H6Y18717   0.469   7.866  10.094 -1.3328  2.2826 -0.1089
  166SOPE   C3718718   0.605   7.969   9.968  0.2718 -0.1887  0.2625
  166SOPE   H7X18719   0.636   7.884   9.904  1.1790  1.9295 -2.1784
  166SOPE   H7Y18720   0.691   8.039   9.973 -1.9610  2.5446  1.7543
  166SOPE   C3818721   0.504   8.058   9.882  0.4710  0.1195  0.7226
  166SOPE   H8X18722   0.463   8.136   9.950 -0.9453 -1.4560  1.7152
  166SOPE   H8Y18723   0.414   7.999   9.853  0.1472  1.6133 -1.4508
  166SOPE   C3918724   0.570   8.116   9.755  0.2775  0.6716  0.1495
  166SOPE   H9X18725   0.668   8.157   9.785 -0.0494  1.3888  0.2365
  166SOPE   H9Y18726   0.503   8.195   9.716  0.0838  1.4411  2.0051
  166SOPE  C31018727   0.606   8.005   9.639 -0.5332 -0.0857  0.7124
  166SOPE  H10X18728   0.510   7.964   9.603 -1.8174  1.8528  1.8245
  166SOPE  H10Y18729   0.658   7.928   9.699 -0.2526  1.2362  2.2111
  166SOPE  C31118730   0.693   8.065   9.531 -0.2846  0.3875  0.1959
  166SOPE  H11X18731   0.797   8.085   9.565  0.6261 -0.7965 -1.8321
  166SOPE  H11Y18732   0.642   8.156   9.493 -0.8829  0.8862  2.1141
  166SOPE  C31218733   0.709   7.963   9.418  0.0892  0.5070 -0.3695
  166SOPE  H12X18734   0.751   7.870   9.463 -0.8162  1.6750  3.0093
  166SOPE  H12Y18735   0.787   8.004   9.350  0.5442  1.6126  0.8220
  166SOPE  C31318736   0.587   7.934   9.334 -0.2352  0.0633 -0.3257
  166SOPE  H13X18737   0.542   8.027   9.292  2.3660  1.2991 -0.4390
  166SOPE  H13Y18738   0.513   7.878   9.395  0.8051 -0.9130  0.0569
  166SOPE  C31418739   0.626   7.854   9.212 -0.1406 -0.5922  0.1247
  166SOPE  H14X18740   0.533   7.813   9.168  1.1828 -4.1662  0.4039
  166SOPE  H14Y18741   0.686   7.766   9.245  0.5182 -0.6888 -1.2631
  166SOPE  C31518742   0.721   7.928   9.112  0.4227 -0.0820  0.0242
  166SOPE  H15X18743   0.817   7.954   9.161 -0.8957  0.6519  2.3252
  166SOPE  H15Y18744   0.672   8.017   9.067  0.4815 -0.2601 -0.3897
  166SOPE  C31618745   0.748   7.844   8.985  0.0261  0.1304 -0.2661
  166SOPE  H16X18746   0.666   7.869   8.915 -1.9637 -3.4197  0.6829
  166SOPE  H16Y18747   0.724   7.739   9.013 -2.2754  0.2851 -1.5094
  166SOPE  C31718748   0.886   7.879   8.926 -0.3517  0.5812 -0.2811
  166SOPE  H17X18749   0.910   7.811   8.842 -0.2350  0.0943  0.1453
  166SOPE  H17Y18750   0.954   7.839   9.005 -2.0691 -1.8739 -0.0008
  166SOPE  C31818751   0.923   8.014   8.876 -0.1212 -0.5390  0.5722
  166SOPE  H18X18752   0.885   8.090   8.948 -0.1103 -0.7056  0.7518
  166SOPE  H18Y18753   0.879   8.031   8.775 -2.5318 -0.0582  1.6588
  166SOPE  H18Z18754   1.034   8.011   8.868 -0.2005 -0.8017 -0.5062
  167SOPE     N18755   3.098   4.127   6.279  0.4421 -0.3086  0.4678
  167SOPE   HN118756   3.114   4.103   6.179  1.4752 -2.0155  1.0222
  167SOPE   HN218757   3.184   4.135   6.337 -0.1343  1.9284  1.0710
  167SOPE   HN318758   3.049   4.043   6.315 -0.8902 -1.0514 -2.9235
  167SOPE   C1218759   3.022   4.255   6.294 -0.2332 -0.2124 -0.5387
  167SOPE  H12A18760   2.988   4.266   6.399 -1.4284 -1.4773 -0.7770
  167SOPE  H12B18761   2.944   4.255   6.215 -1.5631  0.1075  0.7690
  167SOPE   C1118762   3.126   4.379   6.275  0.1315  0.1789  0.3326
  167SOPE  H11A18763   3.077   4.476   6.301 -1.9320 -0.6594 -0.3272
  167SOPE  H11B18764   3.154   4.376   6.167  2.1222  1.5195  0.7870
  167SOPE     P18765   3.374   4.420   6.308 -0.3260 -0.0156 -0.0326
  167SOPE   O1318766   3.387   4.415   6.161  0.8425 -0.6952  0.3521
  167SOPE   O1418767   3.473   4.338   6.374 -0.6776 -0.4319  0.5444
  167SOPE   O1218768   3.235   4.367   6.356 -0.2468  0.3966  0.1603
  167SOPE   O1118769   3.383   4.562   6.360  0.3184  0.1257  0.3688
  167SOPE    C118770   3.344   4.608   6.496 -0.1811 -0.0212  0.3113
  167SOPE    HA18771   3.272   4.542   6.548 -0.9590  1.3042  0.9386
  167SOPE    HB18772   3.277   4.696   6.485  0.1880  0.1552 -0.6573
  167SOPE    C218773   3.462   4.633   6.599  0.4510 -0.2408 -0.0863
  167SOPE    HS18774   3.493   4.533   6.634 -2.9045 -1.0613  0.7352
  167SOPE   O2118775   3.399   4.717   6.699 -0.3793 -0.3431 -0.0316
  167SOPE   C2118776   3.335   4.646   6.794 -0.3401 -0.0048  0.5266
  167SOPE   O2218777   3.325   4.526   6.805  0.1962  0.1186  0.1980
  167SOPE   C2218778   3.292   4.751   6.902 -0.2971 -0.5820  0.4253
  167SOPE   H2R18779   3.218   4.822   6.858 -0.8533 -0.4011  1.6295
  167SOPE   H2S18780   3.383   4.813   6.916 -0.6514  0.6353 -2.2087
  167SOPE    C318781   3.588   4.692   6.529 -0.4302 -0.4791 -0.2301
  167SOPE    HX18782   3.574   4.781   6.465  1.0649  1.4536  2.0453
  167SOPE    HY18783   3.629   4.630   6.446  0.8268 -1.5457  1.1700
  167SOPE   O3118784   3.679   4.732   6.633  0.5758  0.4865 -0.9344
  167SOPE   C3118785   3.777   4.650   6.663  0.3248  0.1430  0.7131
  167SOPE   O3218786   3.786   4.536   6.607  0.2824 -0.4992  0.5722
  167SOPE   C3218787   3.874   4.706   6.770  0.5008 -0.6874  0.2861
  167SOPE   H2X18788   3.906   4.807   6.736  2.0055 -1.0656  0.5222
  167SOPE   H2Y18789   3.963   4.639   6.771  0.4679 -0.7345  0.1608
  167SOPE   C2318790   3.251   4.698   7.043 -0.4611 -0.4207 -0.5511
  167SOPE   H3R18791   3.333   4.627   7.067 -0.4574  0.0352  0.8335
  167SOPE   H3S18792   3.160   4.633   7.044 -1.2104  0.5800  1.9779
  167SOPE   C2418793   3.244   4.806   7.153  0.3868  0.2014 -0.9005
  167SOPE   H4R18794   3.334   4.870   7.167  1.5951 -1.8704  1.2435
  167SOPE   H4S18795   3.149   4.861   7.141 -0.0029  0.1783  1.7089
  167SOPE   C2518796   3.234   4.744   7.291 -0.4053  1.0585 -0.3436
  167SOPE   H5R18797   3.234   4.827   7.365 -3.1210  0.2712  0.6039
  167SOPE   H5S18798   3.142   4.683   7.303 -0.3850  0.2962 -3.5405
  167SOPE   C2618799   3.356   4.657   7.333  1.1435 -0.4968  0.7253
  167SOPE   H6R18800   3.355   4.559   7.280 -1.6332 -0.3940  0.4997
  167SOPE   H6S18801   3.456   4.701   7.317  1.1901 -0.0442  2.2347
  167SOPE   C2718802   3.337   4.631   7.484 -0.4476  0.2351 -0.9917
  167SOPE   H7R18803   3.227   4.628   7.503 -0.3998 -2.4858 -0.9346
  167SOPE   H7S18804   3.363   4.531   7.523 -0.6372 -0.0423 -1.5744
  167SOPE   C2818805   3.398   4.739   7.579  0.0572 -0.1367 -0.5452
  167SOPE   H8R18806   3.507   4.734   7.559 -0.0119 -2.2476 -0.5853
  167SOPE   H8S18807   3.362   4.839   7.548 -0.7379 -0.4431 -0.6283
  167SOPE   C2918808   3.373   4.706   7.722  0.3006 -0.3629 -0.4619
  167SOPE   H9118809   3.375   4.601   7.756  2.1352 -0.0892  0.3358
  167SOPE  C21018810   3.312   4.797   7.809  0.2334  0.2133  0.0010
  167SOPE  H10118811   3.290   4.768   7.913 -1.6719  0.0949 -0.4108
  167SOPE  C21118812   3.267   4.942   7.782 -0.8781 -0.0509 -1.0795
  167SOPE  H11R18813   3.156   4.942   7.791 -0.8794  0.1956 -1.0994
  167SOPE  H11S18814   3.298   4.973   7.680 -1.4590  0.4375 -1.1074
  167SOPE  C21218815   3.334   5.037   7.882 -0.0682 -0.0557  0.8799
  167SOPE  H12R18816   3.312   5.144   7.862  1.1504  0.1601  0.6344
  167SOPE  H12S18817   3.445   5.031   7.876  0.1748  2.1243  2.5814
  167SOPE  C21318818   3.310   5.014   8.030  0.4171  0.0599 -0.3784
  167SOPE  H13R18819   3.391   4.944   8.058  0.0733  0.3647  1.4364
  167SOPE  H13S18820   3.216   4.957   8.046 -0.2198  1.0320 -0.5827
  167SOPE  C21418821   3.322   5.138   8.119 -0.2093 -0.0056 -0.2267
  167SOPE  H14R18822   3.361   5.227   8.064 -3.2639  1.2369 -0.4469
  167SOPE  H14S18823   3.380   5.119   8.212 -1.2125 -0.0250  0.4064
  167SOPE  C21518824   3.182   5.174   8.169  0.1120 -0.3527 -0.2661
  167SOPE  H15R18825   3.129   5.087   8.212  1.4203 -0.3710  1.3515
  167SOPE  H15S18826   3.109   5.202   8.090 -1.0373  1.2944  1.3325
  167SOPE  C21618827   3.180   5.290   8.271  0.1238  0.4721  0.1462
  167SOPE  H16R18828   3.122   5.372   8.223  1.5819  1.1130 -0.5648
  167SOPE  H16S18829   3.279   5.340   8.282 -0.1517  1.2259 -0.7572
  167SOPE  C21718830   3.121   5.259   8.401  0.0979  0.0527 -0.4270
  167SOPE  H17R18831   3.016   5.226   8.390 -0.7609  2.2519  1.0199
  167SOPE  H17S18832   3.119   5.345   8.470  2.8176  0.2868 -0.5857
  167SOPE  C21818833   3.187   5.146   8.482 -0.7115  0.0581 -0.6291
  167SOPE  H18R18834   3.184   5.061   8.410 -0.7666  0.1041 -0.6809
  167SOPE  H18S18835   3.135   5.128   8.579  1.6988  0.6862  0.8167
  167SOPE  H18T18836   3.296   5.166   8.493 -0.2979 -2.6923  0.7852
  167SOPE   C3318837   3.823   4.722   6.911  1.1162  0.1617 -0.9395
  167SOPE   H3X18838   3.721   4.763   6.926  2.6663  3.7755  0.3391
  167SOPE   H3Y18839   3.884   4.801   6.960  0.4552 -1.4753  2.6663
  167SOPE   C3418840   3.831   4.596   7.002  0.1577  0.2882  0.0453
  167SOPE   H4X18841   3.937   4.587   7.034 -0.3028 -1.7609  1.0213
  167SOPE   H4Y18842   3.808   4.502   6.947 -1.5771 -0.3525  1.8424
  167SOPE   C3518843   3.740   4.602   7.122 -0.5384 -0.4017 -0.8178
  167SOPE   H5X18844   3.645   4.545   7.108 -0.3481 -1.8389  3.2521
  167SOPE   H5Y18845   3.721   4.706   7.157  2.2063  0.4923 -1.8605
  167SOPE   C3618846   3.806   4.542   7.249  0.2581 -0.4648  0.4002
  167SOPE   H6X18847   3.894   4.604   7.279 -0.5132  0.3484  1.0427
  167SOPE   H6Y18848   3.840   4.440   7.222 -1.0500 -0.2836 -2.0619
  167SOPE   C3718849   3.717   4.536   7.375 -0.1649  0.2673  0.0047
  167SOPE   H7X18850   3.629   4.476   7.344  0.9280 -1.2742 -0.1429
  167SOPE   H7Y18851   3.682   4.639   7.399  1.0078  0.7200 -0.2177
  167SOPE   C3818852   3.773   4.465   7.498 -0.2283  0.1621 -0.3517
  167SOPE   H8X18853   3.863   4.521   7.532 -0.5368  0.5587 -0.1936
  167SOPE   H8Y18854   3.810   4.363   7.473  0.2439  1.3968 -5.2101
  167SOPE   C3918855   3.680   4.442   7.622  0.6667  0.2271 -0.4052
  167SOPE   H9X18856   3.584   4.394   7.592  0.0033  0.1491  1.7577
  167SOPE   H9Y18857   3.660   4.543   7.662 -0.4491 -0.5429  1.0359
  167SOPE  C31018858   3.752   4.355   7.726  0.1436  0.0536 -0.9704
  167SOPE  H10X18859   3.844   4.407   7.761  0.3936 -0.6631 -0.5476
  167SOPE  H10Y18860   3.777   4.260   7.675 -0.5750 -1.2598  1.0856
  167SOPE  C31118861   3.664   4.315   7.850  0.2479 -0.1106  0.4403
  167SOPE  H11X18862   3.716   4.236   7.909 -1.2252 -0.3540  1.4443
  167SOPE  H11Y18863   3.565   4.283   7.809  0.9607 -0.7200 -0.8386
  167SOPE  C31218864   3.659   4.438   7.947  0.3612  0.0073  0.3805
  167SOPE  H12X18865   3.579   4.503   7.907 -0.3681 -0.2794  1.3615
  167SOPE  H12Y18866   3.752   4.497   7.935 -0.5972  1.8822  1.9063
  167SOPE  C31318867   3.634   4.396   8.094 -0.1420 -0.2745  0.3388
  167SOPE  H13X18868   3.538   4.342   8.100 -1.3582  1.6135 -1.3225
  167SOPE  H13Y18869   3.615   4.491   8.148  1.0176 -0.0975  0.4486
  167SOPE  C31418870   3.749   4.329   8.166  1.2691 -0.1324 -0.4736
  167SOPE  H14X18871   3.753   4.226   8.123 -0.9629 -0.9694  1.1988
  167SOPE  H14Y18872   3.719   4.304   8.270 -0.1443 -3.1854 -1.5562
  167SOPE  C31518873   3.879   4.401   8.154 -0.1610 -0.1690  0.3534
  167SOPE  H15X18874   3.862   4.511   8.158 -0.9725 -0.3198  1.2576
  167SOPE  H15Y18875   3.925   4.377   8.056 -0.4051  0.7586  0.0052
  167SOPE  C31618876   3.986   4.361   8.257  0.4037  1.0087  0.7472
  167SOPE  H16X18877   4.082   4.347   8.202 -0.2890 -0.4317 -0.1269
  167SOPE  H16Y18878   3.955   4.260   8.290  0.0557  0.6544 -0.6495
  167SOPE  C31718879   4.012   4.461   8.366 -0.5160  0.0417 -0.6362
  167SOPE  H17X18880   3.915   4.492   8.408 -0.6795 -1.1293 -0.1299
  167SOPE  H17Y18881   4.071   4.547   8.327 -0.7032  0.3554 -0.2226
  167SOPE  C31818882   4.074   4.391   8.495 -0.0193 -0.2334 -0.3735
  167SOPE  H18X18883   4.077   4.456   8.586  0.9151 -1.1755  0.2794
  167SOPE  H18Y18884   4.181   4.364   8.481  0.0229 -0.5637  0.5254
  167SOPE  H18Z18885   4.022   4.297   8.521  1.8476 -1.0642  0.4759
  168SOPE     N18886   1.822   2.687   6.155 -0.4214 -0.2972 -0.3124
  168SOPE   HN118887   1.761   2.709   6.074  0.9336  0.6816 -1.0968
  168SOPE   HN218888   1.908   2.640   6.119  1.0189  1.8535  0.2334
  168SOPE   HN318889   1.779   2.612   6.213  0.2700  0.0419  0.6561
  168SOPE   C1218890   1.849   2.796   6.245  0.6364 -0.3644 -0.0247
  168SOPE  H12A18891   1.752   2.826   6.291  1.0838  0.7732  0.1893
  168SOPE  H12B18892   1.888   2.881   6.186 -2.6973 -0.0442 -1.8832
  168SOPE   C1118893   1.953   2.756   6.346 -0.7954 -0.4154 -0.6195
  168SOPE  H11A18894   1.915   2.667   6.400 -2.2744 -0.1641 -1.2272
  168SOPE  H11B18895   1.964   2.840   6.418  1.1585 -1.3886  0.2647
  168SOPE     P18896   2.212   2.738   6.367  0.1858  0.0055 -0.0521
  168SOPE   O1318897   2.261   2.877   6.349 -0.1241 -0.1541  0.4561
  168SOPE   O1418898   2.298   2.632   6.324  0.1240 -0.3508 -0.7639
  168SOPE   O1218899   2.076   2.725   6.279  0.0382  0.1012  0.1456
  168SOPE   O1118900   2.172   2.726   6.520 -1.0576  0.3098 -0.3909
  168SOPE    C118901   2.167   2.595   6.584 -0.4093 -0.6247 -0.1009
  168SOPE    HA18902   2.169   2.509   6.513 -0.6036  0.5126 -1.5051
  168SOPE    HB18903   2.075   2.582   6.644 -1.9694  1.3607 -1.9800
  168SOPE    C218904   2.297   2.566   6.676  0.1689  1.0484 -0.6797
  168SOPE    HS18905   2.385   2.543   6.613  0.4031  1.0118 -0.3443
  168SOPE   O2118906   2.266   2.466   6.778  0.2696 -0.1931 -0.5320
  168SOPE   C2118907   2.268   2.347   6.740 -0.0577 -0.0106  0.5143
  168SOPE   O2218908   2.299   2.304   6.627 -0.6010  0.1092 -0.7311
  168SOPE   C2218909   2.207   2.267   6.852 -0.3063 -0.2792  1.2032
  168SOPE   H2R18910   2.112   2.218   6.821 -0.0420  0.6506 -1.1785
  168SOPE   H2S18911   2.190   2.334   6.939  0.7743  1.9407 -0.2542
  168SOPE    C318912   2.341   2.705   6.740 -0.4499 -0.1731  0.1972
  168SOPE    HX18913   2.261   2.774   6.776 -1.3786  0.1076 -2.2734
  168SOPE    HY18914   2.378   2.762   6.653  1.0654 -0.1383  0.8486
  168SOPE   O3118915   2.451   2.673   6.833 -0.2654  0.1724 -0.1794
  168SOPE   C3118916   2.420   2.711   6.963 -0.1745 -0.3730  0.1987
  168SOPE   O3218917   2.314   2.756   6.995  0.4446 -0.5103  0.4226
  168SOPE   C3218918   2.526   2.665   7.056 -0.4625  0.4108 -0.6152
  168SOPE   H2X18919   2.554   2.755   7.115  2.1107  0.3795 -1.7548
  168SOPE   H2Y18920   2.608   2.621   6.996 -1.2444 -1.2119 -0.5182
  168SOPE   C2318921   2.301   2.157   6.911  0.3165  0.5348 -0.1754
  168SOPE   H3R18922   2.407   2.182   6.934  0.9639 -1.1864 -1.1392
  168SOPE   H3S18923   2.303   2.075   6.836 -1.4269  0.5298 -0.2363
  168SOPE   C2418924   2.250   2.096   7.038  0.0561 -0.1829 -0.8572
  168SOPE   H4R18925   2.143   2.123   7.049  0.4755  0.7906  0.9924
  168SOPE   H4S18926   2.272   1.987   7.048  0.7148  0.0943  0.9943
  168SOPE   C2518927   2.333   2.153   7.154  0.4231 -0.0935 -0.6264
  168SOPE   H5R18928   2.438   2.118   7.142  1.4404  2.6929 -0.2368
  168SOPE   H5S18929   2.331   2.264   7.153 -1.8551 -0.0645  2.0336
  168SOPE   C2618930   2.282   2.112   7.289  0.0481  0.1220 -0.3471
  168SOPE   H6R18931   2.184   2.161   7.305  0.7091  0.8961  1.5345
  168SOPE   H6S18932   2.269   2.001   7.286  1.3032 -0.0012 -1.8857
  168SOPE   C2718933   2.374   2.153   7.403  0.3218 -0.0562 -0.0464
  168SOPE   H7R18934   2.477   2.110   7.398  0.6093  0.7588 -1.3182
  168SOPE   H7S18935   2.364   2.263   7.414 -0.4153 -0.0773 -0.4764
  168SOPE   C2818936   2.324   2.097   7.538 -0.6346 -0.2637 -0.2327
  168SOPE   H8R18937   2.344   1.988   7.534  0.0818 -0.1107 -0.9925
  168SOPE   H8S18938   2.388   2.140   7.618  0.7264 -2.0779 -0.3160
  168SOPE   C2918939   2.184   2.133   7.582  0.2907 -0.0274  0.2830
  168SOPE   H9118940   2.141   2.220   7.529  0.0142 -0.2483  0.1429
  168SOPE  C21018941   2.103   2.055   7.655  0.6311  0.5657  0.2670
  168SOPE  H10118942   2.017   2.107   7.700  0.4491 -1.1077  1.9208
  168SOPE  C21118943   2.143   1.921   7.716 -0.0807 -0.0917  0.5927
  168SOPE  H11R18944   2.240   1.886   7.677  0.0423  0.7541  0.1245
  168SOPE  H11S18945   2.073   1.845   7.678 -0.5385 -0.9617  3.0637
  168SOPE  C21218946   2.140   1.928   7.869 -0.2490 -1.0878  0.0538
  168SOPE  H12R18947   2.128   1.829   7.918 -0.5268  0.2758  2.7838
  168SOPE  H12S18948   2.053   1.990   7.899 -0.0496 -0.1234 -1.3255
  168SOPE  C21318949   2.275   1.988   7.926  0.1947 -0.5694  0.6512
  168SOPE  H13R18950   2.290   2.090   7.883  1.1133  0.6834  3.7919
  168SOPE  H13S18951   2.367   1.938   7.889 -1.2193 -0.8417 -2.6779
  168SOPE  C21418952   2.286   1.990   8.082 -0.7135  0.3698 -0.5455
  168SOPE  H14R18953   2.391   2.008   8.113 -0.3750 -1.6019 -0.4787
  168SOPE  H14S18954   2.250   1.889   8.109 -0.1131  0.2428 -0.2136
  168SOPE  C21518955   2.188   2.100   8.145 -0.8422  0.3920  0.0130
  168SOPE  H15R18956   2.084   2.060   8.145 -0.6426 -0.1534  1.2903
  168SOPE  H15S18957   2.194   2.190   8.080 -2.6164 -0.2309 -1.0401
  168SOPE  C21618958   2.217   2.121   8.295  0.0804  0.6170  0.0601
  168SOPE  H16R18959   2.148   2.197   8.339  0.1691  0.8205 -0.1542
  168SOPE  H16S18960   2.321   2.158   8.309  1.4346 -3.0950  0.4478
  168SOPE  C21718961   2.198   1.988   8.371  0.6245  0.6226 -0.1324
  168SOPE  H17R18962   2.291   1.928   8.356 -0.8341 -1.9433  0.8348
  168SOPE  H17S18963   2.115   1.939   8.317 -0.4433  2.0551  0.1853
  168SOPE  C21818964   2.186   2.007   8.521 -0.3965 -0.2980 -0.4554
  168SOPE  H18R18965   2.284   2.047   8.554 -0.0072 -0.2471 -1.6507
  168SOPE  H18S18966   2.183   1.906   8.568  0.5993  0.3225  0.9928
  168SOPE  H18T18967   2.106   2.072   8.563 -0.2805 -1.0373  0.9674
  168SOPE   C3318968   2.485   2.556   7.158 -0.0402  0.0209  0.5392
  168SOPE   H3X18969   2.434   2.467   7.117 -0.5115 -0.2320  1.6750
  168SOPE   H3Y18970   2.416   2.605   7.229 -0.2715  2.2580 -1.1810
  168SOPE   C3418971   2.607   2.506   7.239 -0.0443 -0.2331  0.2257
  168SOPE   H4X18972   2.695   2.482   7.176 -1.0681  1.5433 -1.9495
  168SOPE   H4Y18973   2.578   2.403   7.270  1.0092 -0.7153 -0.3819
  168SOPE   C3518974   2.643   2.590   7.360 -0.2113 -0.1116  0.2947
  168SOPE   H5X18975   2.557   2.604   7.429  1.1691  1.5902  1.7376
  168SOPE   H5Y18976   2.677   2.691   7.327  2.5598 -1.7395 -2.0818
  168SOPE   C3618977   2.745   2.535   7.455 -0.1678 -0.6709 -0.4169
  168SOPE   H6X18978   2.744   2.601   7.545  0.2099 -0.4903 -0.5424
  168SOPE   H6Y18979   2.850   2.554   7.424 -0.3867 -1.1177 -1.4272
  168SOPE   C3718980   2.741   2.389   7.499 -0.0199  0.6106  0.1462
  168SOPE   H7X18981   2.772   2.318   7.420  1.0788  0.1912  0.9431
  168SOPE   H7Y18982   2.633   2.370   7.515  0.4426  0.4682  3.4881
  168SOPE   C3818983   2.823   2.352   7.619 -0.1050 -0.6290 -0.2695
  168SOPE   H8X18984   2.822   2.242   7.638  0.8631 -0.4368  0.9846
  168SOPE   H8Y18985   2.774   2.400   7.706  2.0024 -0.3596  0.8137
  168SOPE   C3918986   2.973   2.394   7.619  0.0025  0.0755  1.3562
  168SOPE   H9X18987   2.991   2.454   7.527 -1.3026 -0.9872  0.3834
  168SOPE   H9Y18988   3.030   2.305   7.585  0.7152  0.6977  0.8877
  168SOPE  C31018989   3.036   2.475   7.726  0.5889  0.3166 -0.0379
  168SOPE  H10X18990   2.980   2.569   7.741 -0.6695 -0.2749 -0.9685
  168SOPE  H10Y18991   3.137   2.490   7.682 -0.1135  1.3299 -1.3504
  168SOPE  C31118992   3.061   2.402   7.862 -0.1113 -0.8365  0.0320
  168SOPE  H11X18993   3.117   2.307   7.853 -1.2759 -1.5067 -0.2045
  168SOPE  H11Y18994   2.962   2.386   7.908 -1.1415  1.8291 -1.1347
  168SOPE  C31218995   3.158   2.469   7.964  0.2616 -0.1005 -0.1911
  168SOPE  H12X18996   3.242   2.500   7.898  0.8042  0.9373  0.9718
  168SOPE  H12Y18997   3.197   2.396   8.037  0.5591  1.4247  1.2035
  168SOPE  C31318998   3.104   2.589   8.046 -0.2168  0.0276 -0.2365
  168SOPE  H13X18999   3.040   2.654   7.983  0.3233  0.7654 -0.0343
  168SOPE  H13Y19000   3.197   2.646   8.070  1.5631 -2.1552 -1.7496
  168SOPE  C31419001   3.023   2.557   8.168  0.5073  0.0163  1.0778
  168SOPE  H14X19002   2.944   2.491   8.127 -0.7224  1.6811  0.7030
  168SOPE  H14Y19003   2.978   2.650   8.208 -0.6214 -0.6042  1.2696
  168SOPE  C31519004   3.103   2.491   8.282 -0.4182 -0.2867  0.0529
  168SOPE  H15X19005   3.180   2.553   8.333 -0.5202  1.0929 -1.4240
  168SOPE  H15Y19006   3.154   2.400   8.243  0.4073  1.2065 -2.5001
  168SOPE  C31619007   2.994   2.446   8.379  0.3196  0.4429 -0.2610
  168SOPE  H16X19008   2.912   2.398   8.321 -0.1844  1.3090 -0.2799
  168SOPE  H16Y19009   2.954   2.539   8.426 -1.2348  0.7037 -2.0270
  168SOPE  C31719010   3.031   2.358   8.494  0.5952 -0.7143 -0.1567
  168SOPE  H17X19011   2.940   2.326   8.550 -1.3493  0.3818 -2.5944
  168SOPE  H17Y19012   3.088   2.411   8.572  0.6798  0.1869 -0.8294
  168SOPE  C31819013   3.117   2.230   8.463  0.7195  0.0441 -0.2386
  168SOPE  H18X19014   3.220   2.255   8.432  1.0531 -1.2411 -0.1757
  168SOPE  H18Y19015   3.067   2.171   8.383 -1.6474  1.1029  0.4136
  168SOPE  H18Z19016   3.102   2.168   8.554 -2.5528  0.7134 -0.2369
  169SOPE     N19017   5.357   3.714   6.056  0.1040  0.5842 -0.4806
  169SOPE   HN119018   5.273   3.775   6.050 -0.8849 -0.7187  0.0133
  169SOPE   HN219019   5.432   3.785   6.046  0.8625 -0.3055 -1.1819
  169SOPE   HN319020   5.355   3.641   5.982  0.1563  0.1721 -0.0765
  169SOPE   C1219021   5.340   3.665   6.196 -0.8653  0.2302  0.3835
  169SOPE  H12A19022   5.444   3.655   6.234 -0.1243  0.8579 -1.4616
  169SOPE  H12B19023   5.283   3.570   6.195  0.2188 -0.4193  0.0827
  169SOPE   C1119024   5.269   3.767   6.285  0.5351  0.3190 -0.6281
  169SOPE  H11A19025   5.337   3.855   6.288  1.9427 -0.7091 -1.3896
  169SOPE  H11B19026   5.265   3.729   6.389 -2.4305 -0.5819 -1.0368
  169SOPE     P19027   5.058   3.913   6.320 -0.5185  0.1710 -0.2151
  169SOPE   O1319028   4.936   3.963   6.249 -0.1779 -0.7680  0.0501
  169SOPE   O1419029   5.148   4.016   6.371  0.1506 -0.4210 -0.1060
  169SOPE   O1219030   5.136   3.800   6.234 -0.6712 -0.0982 -0.0929
  169SOPE   O1119031   5.014   3.829   6.453 -0.0941  0.2040 -0.3379
  169SOPE    C119032   4.886   3.870   6.507  0.5586  0.6322 -0.0500
  169SOPE    HA19033   4.826   3.781   6.538  0.1778  1.0724  0.5002
  169SOPE    HB19034   4.814   3.920   6.439 -0.0067 -0.3322 -0.1671
  169SOPE    C219035   4.891   3.957   6.634 -0.3425  0.5634 -0.3019
  169SOPE    HS19036   4.976   4.028   6.640  0.5269 -0.5396  0.6807
  169SOPE   O2119037   4.895   3.876   6.754 -0.1091 -0.2803 -0.1531
  169SOPE   C2119038   5.013   3.826   6.790  0.3139  0.2749  0.5510
  169SOPE   O2219039   5.118   3.832   6.725 -0.1983 -0.4831  0.0186
  169SOPE   C2219040   5.003   3.752   6.925  0.7416 -0.0877  0.4214
  169SOPE   H2R19041   4.932   3.668   6.909 -0.7915  1.6191 -2.2332
  169SOPE   H2S19042   4.947   3.816   6.997  1.5981 -2.6479  3.4618
  169SOPE    C319043   4.760   4.049   6.626 -0.8799 -0.2175  0.2327
  169SOPE    HX19044   4.678   3.974   6.623 -0.5559 -0.5662 -0.0695
  169SOPE    HY19045   4.747   4.113   6.536 -0.8429 -0.3902  0.1051
  169SOPE   O3119046   4.744   4.119   6.749 -0.3330  0.6039  0.0126
  169SOPE   C3119047   4.795   4.239   6.752 -0.5238  0.4957 -0.4765
  169SOPE   O3219048   4.863   4.293   6.665  0.2866 -0.3664 -0.6750
  169SOPE   C3219049   4.734   4.301   6.876 -0.5738 -0.2979  0.5104
  169SOPE   H2X19050   4.742   4.224   6.956 -0.0257 -1.1550 -0.3617
  169SOPE   H2Y19051   4.624   4.307   6.856 -0.2972  0.8975 -0.7273
  169SOPE   C2319052   5.136   3.718   7.000  0.4055 -0.4791 -0.2408
  169SOPE   H3R19053   5.183   3.812   7.037  1.1049 -1.2624  0.9066
  169SOPE   H3S19054   5.205   3.659   6.935  0.7362 -1.1199  0.6746
  169SOPE   C2419055   5.109   3.636   7.125 -0.2427 -0.4470 -1.1498
  169SOPE   H4R19056   5.028   3.682   7.186  0.2683 -2.0614  0.7944
  169SOPE   H4S19057   5.070   3.538   7.089  0.2576 -1.6940  1.5486
  169SOPE   C2519058   5.231   3.621   7.223  0.0318 -0.1877  0.4354
  169SOPE   H5R19059   5.312   3.564   7.171  1.0900 -0.4876  2.3645
  169SOPE   H5S19060   5.269   3.718   7.261 -1.3178  1.0016 -1.1746
  169SOPE   C2619061   5.202   3.542   7.351  0.1593  0.0075  0.3173
  169SOPE   H6R19062   5.143   3.608   7.419  0.2019  0.8838 -0.4763
  169SOPE   H6S19063   5.146   3.448   7.334  1.0905 -0.3139 -1.0252
  169SOPE   C2719064   5.315   3.486   7.431 -0.1238  0.1615 -0.1044
  169SOPE   H7R19065   5.359   3.393   7.390  0.3847 -0.8096  2.5532
  169SOPE   H7S19066   5.396   3.563   7.432 -1.4456  1.5874  0.3172
  169SOPE   C2819067   5.272   3.454   7.584 -0.5002 -0.2600 -0.4190
  169SOPE   H8R19068   5.188   3.384   7.564  1.8269 -2.3916 -3.0650
  169SOPE   H8S19069   5.359   3.409   7.638 -0.4413  1.6620  1.1568
  169SOPE   C2919070   5.215   3.575   7.649  0.2275  0.3298  0.4934
  169SOPE   H9119071   5.106   3.592   7.643  0.0939 -0.5553  0.4470
  169SOPE  C21019072   5.287   3.664   7.714  0.3085  0.2990  0.0195
  169SOPE  H10119073   5.234   3.746   7.764  2.2158  0.8272  1.2278
  169SOPE  C21119074   5.440   3.655   7.750 -0.5868  0.0094 -0.3516
  169SOPE  H11R19075   5.477   3.760   7.747  0.0843 -0.2490 -1.7683
  169SOPE  H11S19076   5.507   3.618   7.669 -0.2802  1.1517 -0.6257
  169SOPE  C21219077   5.490   3.590   7.881  0.8889 -0.4994 -0.2623
  169SOPE  H12R19078   5.597   3.571   7.856  0.7741 -0.6862 -0.6135
  169SOPE  H12S19079   5.444   3.491   7.900 -1.2236  0.3328 -0.8253
  169SOPE  C21319080   5.470   3.674   8.013 -0.6194 -0.0841 -0.1842
  169SOPE  H13R19081   5.360   3.685   8.023 -0.8109 -0.1790 -2.0197
  169SOPE  H13S19082   5.504   3.772   7.973 -1.9363 -0.1363 -1.4457
  169SOPE  C21419083   5.538   3.622   8.142 -0.0471  0.4244 -0.0393
  169SOPE  H14R19084   5.493   3.522   8.162 -0.3709  0.8220  1.2841
  169SOPE  H14S19085   5.520   3.694   8.225  3.5923  2.8289 -1.2130
  169SOPE  C21519086   5.689   3.598   8.128 -1.0027  0.0458  0.0529
  169SOPE  H15R19087   5.731   3.664   8.049 -1.9931  1.0407  0.3299
  169SOPE  H15S19088   5.706   3.492   8.101  2.4927  0.3312  0.8961
  169SOPE  C21619089   5.777   3.631   8.257 -0.2828 -0.0600  0.7693
  169SOPE  H16R19090   5.725   3.571   8.335 -0.5153 -1.1331 -0.2019
  169SOPE  H16S19091   5.758   3.736   8.287 -0.0261  0.1913  0.0527
  169SOPE  C21719092   5.926   3.604   8.242 -0.8058  0.3908 -0.1648
  169SOPE  H17R19093   5.951   3.630   8.137  0.2849 -1.2619 -0.3271
  169SOPE  H17S19094   5.948   3.495   8.238  0.1342  0.6315 -1.8571
  169SOPE  C21819095   6.015   3.679   8.337 -0.3302  0.2811 -0.2118
  169SOPE  H18R19096   6.025   3.620   8.430  1.2057  0.9792  0.0923
  169SOPE  H18S19097   5.972   3.776   8.369 -1.2313  0.4405 -1.8300
  169SOPE  H18T19098   6.116   3.700   8.294 -0.0447  0.0289  0.3396
  169SOPE   C3319099   4.794   4.435   6.930  0.1970 -0.2042 -0.6924
  169SOPE   H3X19100   4.780   4.522   6.862 -0.0175  0.7758  0.5669
  169SOPE   H3Y19101   4.902   4.425   6.955  0.0009 -2.6445 -0.7383
  169SOPE   C3419102   4.740   4.471   7.068  0.2349  0.0516 -0.5150
  169SOPE   H4X19103   4.782   4.394   7.137  1.4134 -0.0437 -1.3112
  169SOPE   H4Y19104   4.630   4.468   7.054  0.0113 -0.0578  1.1408
  169SOPE   C3519105   4.768   4.614   7.120 -0.5822  0.2423 -0.5001
  169SOPE   H5X19106   4.754   4.682   7.034  1.9713  0.0544 -1.0970
  169SOPE   H5Y19107   4.870   4.624   7.164 -0.4749  0.7105 -0.8596
  169SOPE   C3619108   4.667   4.667   7.222 -0.1563  0.4895  0.2580
  169SOPE   H6X19109   4.562   4.649   7.189 -0.0066  0.4937 -0.2248
  169SOPE   H6Y19110   4.680   4.777   7.226  1.4380  0.2643  1.6105
  169SOPE   C3719111   4.680   4.600   7.358  0.2014 -0.2728  0.2880
  169SOPE   H7X19112   4.669   4.489   7.352 -0.7094 -0.1163 -1.2662
  169SOPE   H7Y19113   4.610   4.633   7.437 -0.4450 -0.3171 -0.2597
  169SOPE   C3819114   4.816   4.632   7.430  1.0025 -0.3107  0.4544
  169SOPE   H8X19115   4.907   4.608   7.371  0.9630  0.4139  0.0918
  169SOPE   H8Y19116   4.819   4.742   7.445 -0.1713 -0.4073  1.4567
  169SOPE   C3919117   4.815   4.575   7.575 -0.4783  0.3854 -0.1840
  169SOPE   H9X19118   4.925   4.571   7.591 -0.2022  0.4608 -1.8868
  169SOPE   H9Y19119   4.778   4.470   7.582  2.9851 -0.9726 -1.1255
  169SOPE  C31019120   4.734   4.661   7.674 -0.4480 -0.6682 -0.2852
  169SOPE  H10X19121   4.631   4.661   7.632  0.1615  3.3935 -1.9695
  169SOPE  H10Y19122   4.770   4.765   7.685 -0.0335 -0.5951 -2.2120
  169SOPE  C31119123   4.742   4.588   7.810  0.4228 -0.3017  0.0346
  169SOPE  H11X19124   4.696   4.487   7.805  0.2323 -0.1674 -1.0532
  169SOPE  H11Y19125   4.684   4.641   7.890 -0.8832 -0.5681 -0.7104
  169SOPE  C31219126   4.881   4.567   7.871  0.8862  0.4329 -0.1114
  169SOPE  H12X19127   4.920   4.660   7.918  2.3232 -0.4654  0.5229
  169SOPE  H12Y19128   4.957   4.533   7.796 -0.7162 -3.9820  0.1832
  169SOPE  C31319129   4.871   4.479   7.996 -0.0726 -0.2117  0.8088
  169SOPE  H13X19130   4.873   4.375   7.959  1.1510 -0.0663  0.4275
  169SOPE  H13Y19131   4.772   4.487   8.046 -0.1423 -0.6418  0.7363
  169SOPE  C31419132   4.985   4.486   8.094 -0.5596 -0.1164 -0.4353
  169SOPE  H14X19133   4.998   4.583   8.147 -1.4442 -0.4733  0.4687
  169SOPE  H14Y19134   5.079   4.471   8.037  1.3621  0.2538  2.5362
  169SOPE  C31519135   4.969   4.383   8.206  0.6365 -0.2857  0.3416
  169SOPE  H15X19136   4.956   4.281   8.163  0.4834  1.3228 -3.6157
  169SOPE  H15Y19137   4.872   4.408   8.252  0.3012 -1.6750  0.4302
  169SOPE  C31619138   5.080   4.388   8.305  0.0321  0.0672 -0.0680
  169SOPE  H16X19139   5.091   4.493   8.340 -0.2739  0.5611 -1.4652
  169SOPE  H16Y19140   5.177   4.365   8.256 -0.1527  1.2867 -1.0318
  169SOPE  C31719141   5.052   4.305   8.432 -0.3693  0.0022  0.4032
  169SOPE  H17X19142   5.153   4.291   8.478 -0.2893 -2.8036 -0.5468
  169SOPE  H17Y19143   5.028   4.201   8.402  2.0591 -0.8601  1.2854
  169SOPE  C31819144   4.965   4.361   8.543 -0.6821  0.2223  0.1759
  169SOPE  H18X19145   4.977   4.472   8.545 -2.3148  0.3943  1.9204
  169SOPE  H18Y19146   4.994   4.317   8.641  1.7213  0.3514 -0.4262
  169SOPE  H18Z19147   4.862   4.328   8.521 -0.4995 -1.4653  1.6988
  170SOPE     N19148   5.918   1.861   6.387  0.2161 -0.6017  0.4371
  170SOPE   HN119149   5.822   1.877   6.424  0.6416  0.1457  1.2508
  170SOPE   HN219150   5.929   1.899   6.291  3.1188 -2.7316 -0.1244
  170SOPE   HN319151   5.921   1.757   6.385 -0.2645 -0.6115  0.2948
  170SOPE   C1219152   6.021   1.912   6.488  0.4147  0.6823 -0.0299
  170SOPE  H12A19153   6.117   1.857   6.490 -1.2502 -2.3122  1.2895
  170SOPE  H12B19154   5.968   1.889   6.583 -1.0265 -1.7960 -1.3949
  170SOPE   C1119155   6.033   2.064   6.476  0.1790  0.2617 -0.8063
  170SOPE  H11A19156   6.109   2.093   6.552 -0.9692  2.8069 -0.5781
  170SOPE  H11B19157   5.942   2.115   6.515  0.9150  1.5144 -0.6899
  170SOPE     P19158   5.978   2.173   6.241  0.0844 -0.2681  0.1183
  170SOPE   O1319159   5.873   2.077   6.202 -0.1045 -0.3722  0.6682
  170SOPE   O1419160   6.069   2.219   6.131 -0.3099  0.2402  0.5098
  170SOPE   O1219161   6.072   2.103   6.345 -0.2759 -0.2959  0.4009
  170SOPE   O1119162   5.930   2.301   6.314 -0.0879  0.4283 -0.6348
  170SOPE    C119163   6.019   2.406   6.353  0.5926  0.6089  0.9139
  170SOPE    HA19164   6.003   2.500   6.296  1.0382 -0.4122 -0.9303
  170SOPE    HB19165   6.126   2.380   6.341  0.2177 -1.2439  1.3737
  170SOPE    C219166   6.005   2.435   6.510  0.1717 -0.2273  0.4958
  170SOPE    HS19167   6.040   2.538   6.534 -1.2226  0.7060 -1.3489
  170SOPE   O2119168   6.082   2.343   6.587 -0.4256 -0.0682 -0.2316
  170SOPE   C2119169   6.212   2.364   6.611 -0.1855  0.0702  1.3677
  170SOPE   O2219170   6.274   2.452   6.554  0.6364 -0.4870  0.3253
  170SOPE   C2219171   6.271   2.272   6.711  0.2518  0.5513 -0.1278
  170SOPE   H2R19172   6.380   2.277   6.693  0.4993 -3.6786 -0.2806
  170SOPE   H2S19173   6.237   2.168   6.691  1.8816 -0.0289  0.1126
  170SOPE    C319174   5.860   2.430   6.543 -0.2852 -0.3490  0.0740
  170SOPE    HX19175   5.820   2.328   6.523 -1.1880  0.0464 -0.1903
  170SOPE    HY19176   5.802   2.503   6.482  1.5732 -0.4421 -1.8625
  170SOPE   O3119177   5.846   2.466   6.678  0.2553  0.1308 -0.4397
  170SOPE   C3119178   5.826   2.368   6.768 -0.0981 -0.7633 -0.2491
  170SOPE   O3219179   5.808   2.252   6.747 -0.0714  0.0392 -0.1949
  170SOPE   C3219180   5.827   2.432   6.907 -0.7197 -0.3447 -0.6192
  170SOPE   H2X19181   5.772   2.529   6.912  0.7574  0.5085 -0.7039
  170SOPE   H2Y19182   5.935   2.440   6.932 -1.8840  0.4843  4.8808
  170SOPE   C2319183   6.238   2.306   6.859  0.1285 -0.0096 -0.2199
  170SOPE   H3R19184   6.290   2.238   6.929 -0.8538  1.6586  2.2122
  170SOPE   H3S19185   6.129   2.292   6.878 -0.2534  2.0177 -0.7813
  170SOPE   C2419186   6.276   2.448   6.904 -0.2434  0.3658  0.1551
  170SOPE   H4R19187   6.386   2.457   6.889 -0.4613  0.8757 -1.2193
  170SOPE   H4S19188   6.236   2.513   6.823  1.4729  0.5824 -0.5418
  170SOPE   C2519189   6.235   2.489   7.046 -0.6656 -0.2751 -0.2025
  170SOPE   H5R19190   6.250   2.599   7.047 -1.4099 -0.1742  1.8280
  170SOPE   H5S19191   6.124   2.484   7.052 -0.4833 -2.7503  2.1215
  170SOPE   C2619192   6.303   2.401   7.147  0.2732 -0.1517 -0.5524
  170SOPE   H6R19193   6.296   2.293   7.123 -0.8257 -0.5201  1.2874
  170SOPE   H6S19194   6.414   2.405   7.147  0.3033 -0.3945  1.2177
  170SOPE   C2719195   6.246   2.425   7.292 -0.4827  0.3793  0.1902
  170SOPE   H7R19196   6.284   2.523   7.327 -1.4409  1.1145 -0.7957
  170SOPE   H7S19197   6.135   2.430   7.288 -0.7528 -3.7064  0.3217
  170SOPE   C2819198   6.278   2.319   7.401 -0.3528  0.1031 -0.2968
  170SOPE   H8R19199   6.217   2.350   7.489  1.0453 -2.6977  1.7407
  170SOPE   H8S19200   6.217   2.234   7.363 -3.5573  2.0054  0.4336
  170SOPE   C2919201   6.425   2.303   7.424  0.2883 -0.7191  0.2854
  170SOPE   H9119202   6.490   2.299   7.335  0.3469 -1.5280  0.3591
  170SOPE  C21019203   6.482   2.301   7.547 -0.2969 -0.1910 -0.0901
  170SOPE  H10119204   6.590   2.291   7.562  0.0854  1.6545 -1.3801
  170SOPE  C21119205   6.404   2.328   7.675 -0.7821  0.0085  0.3969
  170SOPE  H11R19206   6.297   2.300   7.663 -0.8285 -0.2728  1.3552
  170SOPE  H11S19207   6.422   2.434   7.702  1.5817  0.2626 -1.9896
  170SOPE  C21219208   6.452   2.239   7.788 -0.4886 -0.1983  0.0311
  170SOPE  H12R19209   6.562   2.247   7.799 -0.3397  0.1844 -1.6015
  170SOPE  H12S19210   6.430   2.135   7.759  0.0818 -0.1855 -0.4621
  170SOPE  C21319211   6.376   2.257   7.925  1.2694  0.1259 -0.8151
  170SOPE  H13R19212   6.269   2.240   7.900  0.2499  2.4671  1.6689
  170SOPE  H13S19213   6.398   2.355   7.973  0.8988 -0.2126  0.0729
  170SOPE  C21419214   6.413   2.151   8.027  0.6542 -0.0689 -0.3907
  170SOPE  H14R19215   6.452   2.057   7.982 -1.0560 -0.9699 -0.0521
  170SOPE  H14S19216   6.328   2.129   8.095  0.6356 -2.1230 -1.0555
  170SOPE  C21519217   6.519   2.180   8.136  0.2745  0.7037  0.3988
  170SOPE  H15R19218   6.606   2.207   8.072  0.1483  2.4683  0.9452
  170SOPE  H15S19219   6.544   2.088   8.193 -0.6523  0.9553  1.2256
  170SOPE  C21619220   6.482   2.285   8.236 -0.2431 -0.3914  0.2759
  170SOPE  H16R19221   6.429   2.244   8.325 -2.1023 -0.2801 -0.7371
  170SOPE  H16S19222   6.406   2.351   8.188 -1.1576 -0.6293  1.3723
  170SOPE  C21719223   6.608   2.362   8.288 -0.1721  0.1840  0.2101
  170SOPE  H17R19224   6.663   2.388   8.196  0.7073  0.9746  0.9464
  170SOPE  H17S19225   6.677   2.300   8.348 -1.2553 -0.6778  0.5884
  170SOPE  C21819226   6.561   2.478   8.365  0.4847 -0.1643 -0.1160
  170SOPE  H18R19227   6.647   2.534   8.408 -1.1983  1.0987  1.7192
  170SOPE  H18S19228   6.498   2.443   8.449  0.7636 -0.3703  0.0091
  170SOPE  H18T19229   6.509   2.554   8.303 -1.0808 -1.9357 -1.0017
  170SOPE   C3319230   5.765   2.336   7.007  0.3147  0.6998  0.5612
  170SOPE   H3X19231   5.779   2.230   6.976 -0.1583 -0.5068  4.1811
  170SOPE   H3Y19232   5.654   2.343   7.015  0.1846 -1.2079  0.6419
  170SOPE   C3419233   5.813   2.348   7.159  0.3588 -0.2318 -0.0826
  170SOPE   H4X19234   5.801   2.455   7.188 -2.7946  0.3766 -3.2871
  170SOPE   H4Y19235   5.920   2.318   7.165  0.7153  0.6779 -1.4857
  170SOPE   C3519236   5.721   2.256   7.249  0.1791 -0.1001 -0.0591
  170SOPE   H5X19237   5.722   2.154   7.204  1.7295 -0.0222 -0.2392
  170SOPE   H5Y19238   5.617   2.292   7.235  0.0140 -0.9912 -1.1517
  170SOPE   C3619239   5.756   2.252   7.398  0.0861  0.3906 -0.5086
  170SOPE   H6X19240   5.669   2.217   7.458 -0.5323  0.5609 -1.3040
  170SOPE   H6Y19241   5.787   2.349   7.443  1.0962 -0.2621  0.2397
  170SOPE   C3719242   5.876   2.159   7.425  0.0084 -0.1240 -0.7517
  170SOPE   H7X19243   5.961   2.194   7.362 -0.4569  2.2331 -0.1202
  170SOPE   H7Y19244   5.841   2.056   7.400 -1.0154 -0.0293  0.2620
  170SOPE   C3819245   5.905   2.167   7.574  0.3176  0.2743 -0.6611
  170SOPE   H8X19246   5.808   2.137   7.620  1.5819 -1.9138  0.6723
  170SOPE   H8Y19247   5.928   2.274   7.596 -1.0699  0.8272 -1.8095
  170SOPE   C3919248   6.017   2.069   7.623 -0.1818  0.1013  1.0274
  170SOPE   H9X19249   6.097   2.089   7.549 -0.5935 -0.9689  0.2886
  170SOPE   H9Y19250   5.983   1.963   7.629 -0.4057  0.1699  0.9519
  170SOPE  C31019251   6.075   2.113   7.760 -0.8810 -0.0690  0.1769
  170SOPE  H10X19252   6.078   2.224   7.768 -0.9437  0.1037 -1.8814
  170SOPE  H10Y19253   6.176   2.069   7.756 -0.8310 -0.0995  1.6201
  170SOPE  C31119254   5.988   2.056   7.873  0.5337 -0.1103  0.1418
  170SOPE  H11X19255   5.976   1.946   7.861 -2.5043 -0.1089  2.4713
  170SOPE  H11Y19256   5.887   2.102   7.880 -0.1330 -1.1547 -2.1447
  170SOPE  C31219257   6.067   2.071   8.012  0.6318 -0.2361 -0.3024
  170SOPE  H12X19258   6.054   2.179   8.037 -0.8825 -0.7452  1.1720
  170SOPE  H12Y19259   6.176   2.054   7.999  1.0053  1.0244  0.9827
  170SOPE  C31319260   6.011   1.984   8.125 -0.3749  0.2145  0.4656
  170SOPE  H13X19261   6.015   1.880   8.087 -1.3217  0.3093  0.0792
  170SOPE  H13Y19262   5.905   2.009   8.150 -1.0728 -0.1179 -1.9627
  170SOPE  C31419263   6.080   2.013   8.261  0.5586 -0.5628  0.4151
  170SOPE  H14X19264   6.074   2.121   8.282  0.4352 -0.1985 -1.4033
  170SOPE  H14Y19265   6.186   1.980   8.256  1.0762  1.3182 -1.3971
  170SOPE  C31519266   6.027   1.928   8.372  0.0556  0.2056 -0.4382
  170SOPE  H15X19267   6.012   1.829   8.323  0.0691  0.1480 -0.3269
  170SOPE  H15Y19268   5.932   1.967   8.411 -0.6754  1.5120 -3.3514
  170SOPE  C31619269   6.135   1.927   8.484  0.3749  0.2776 -0.2578
  170SOPE  H16X19270   6.222   1.864   8.454 -0.4901 -0.1920 -1.8166
  170SOPE  H16Y19271   6.098   1.877   8.576  1.0687 -0.4163 -0.3486
  170SOPE  C31719272   6.154   2.068   8.542  0.1010 -0.3189 -0.0557
  170SOPE  H17X19273   6.056   2.108   8.572  0.5972 -1.3801  3.2133
  170SOPE  H17Y19274   6.198   2.144   8.474  1.0199  1.4322  2.4196
  170SOPE  C31819275   6.252   2.065   8.663  0.6247 -0.1713  0.5740
  170SOPE  H18X19276   6.348   2.028   8.622  0.8506  1.4272 -0.3921
  170SOPE  H18Y19277   6.213   2.001   8.745  1.7204  0.0135  1.2512
  170SOPE  H18Z19278   6.269   2.168   8.701  1.3446  0.8707 -2.4768
  171SOPE     N19279   5.969   6.200   6.319 -0.4262  0.2196 -0.2798
  171SOPE   HN119280   5.960   6.265   6.239 -0.6883 -0.1443 -0.5481
  171SOPE   HN219281   5.886   6.154   6.361 -0.5523  0.1726 -0.5811
  171SOPE   HN319282   6.005   6.259   6.396  0.3221  0.0825 -0.5128
  171SOPE   C1219283   6.084   6.107   6.289  0.5486  0.9567 -0.1175
  171SOPE  H12A19284   6.050   6.037   6.209 -2.1223  0.3993  1.4372
  171SOPE  H12B19285   6.080   6.045   6.381  0.9656 -2.6575 -2.4135
  171SOPE   C1119286   6.222   6.171   6.282 -0.3081 -0.0051 -0.0607
  171SOPE  H11A19287   6.213   6.231   6.189 -0.7438 -0.6903 -0.4626
  171SOPE  H11B19288   6.296   6.090   6.266  2.1515  2.0444  0.5273
  171SOPE     P19289   6.385   6.310   6.436  0.0931  0.5821 -0.2814
  171SOPE   O1319290   6.388   6.454   6.455  0.2514  0.2812  0.2887
  171SOPE   O1419291   6.483   6.251   6.340  0.0129  0.3791 -0.6343
  171SOPE   O1219292   6.245   6.254   6.401 -0.5462 -0.2192 -0.2991
  171SOPE   O1119293   6.425   6.242   6.577 -0.0423 -0.2349  0.2422
  171SOPE    C119294   6.361   6.119   6.611 -0.0765  0.4153 -0.3457
  171SOPE    HA19295   6.434   6.042   6.647 -0.3647  0.7262  0.9326
  171SOPE    HB19296   6.318   6.064   6.525 -0.8917  3.4970 -1.9806
  171SOPE    C219297   6.254   6.145   6.719 -0.3488  0.5065 -0.9960
  171SOPE    HS19298   6.203   6.239   6.688  0.5650  0.4759 -2.6555
  171SOPE   O2119299   6.311   6.152   6.852 -0.4654  0.5129 -0.1332
  171SOPE   C2119300   6.264   6.235   6.939 -0.5246 -0.4844 -0.4194
  171SOPE   O2219301   6.173   6.310   6.920  0.0435 -0.5248 -0.0455
  171SOPE   C2219302   6.351   6.241   7.064 -0.4873 -0.6669  0.3170
  171SOPE   H2R19303   6.437   6.311   7.057 -0.4542 -0.6788  0.5870
  171SOPE   H2S19304   6.408   6.147   7.081  1.1154  0.2787  0.1985
  171SOPE    C319305   6.144   6.025   6.722  0.0207 -0.1905  0.1215
  171SOPE    HX19306   6.199   5.930   6.732 -5.0905 -3.0965  2.5875
  171SOPE    HY19307   6.101   6.027   6.620 -0.0843  0.2571  0.1720
  171SOPE   O3119308   6.049   6.028   6.827  0.9010 -0.3275 -0.2473
  171SOPE   C3119309   5.921   6.039   6.797 -0.2443 -0.1595  0.0073
  171SOPE   O3219310   5.869   6.045   6.692  0.4088 -0.2272 -0.4181
  171SOPE   C3219311   5.853   6.059   6.934  0.2678 -0.1362 -0.0268
  171SOPE   H2X19312   5.794   5.965   6.945  0.6356 -0.1538  1.8265
  171SOPE   H2Y19313   5.778   6.140   6.920  1.8176  1.3334  0.0300
  171SOPE   C2319314   6.258   6.277   7.185 -0.8617  0.9118  0.2511
  171SOPE   H3R19315   6.180   6.202   7.211  1.1505 -1.1981  0.3944
  171SOPE   H3S19316   6.200   6.372   7.175  1.2676  2.2502  0.2589
  171SOPE   C2419317   6.339   6.287   7.315  0.4909  0.5491 -0.6724
  171SOPE   H4R19318   6.385   6.186   7.324 -0.0589  0.4812  1.6430
  171SOPE   H4S19319   6.425   6.357   7.310  1.5410 -0.6416  0.1896
  171SOPE   C2519320   6.262   6.307   7.447 -0.3041  0.5412  0.1571
  171SOPE   H5R19321   6.237   6.415   7.454 -0.4419  0.5708 -0.7725
  171SOPE   H5S19322   6.169   6.245   7.446  0.8908 -1.3186 -2.5185
  171SOPE   C2619323   6.353   6.266   7.567  0.0278  1.0678  0.0144
  171SOPE   H6R19324   6.389   6.164   7.544 -3.5536  0.0632 -1.5540
  171SOPE   H6S19325   6.440   6.335   7.568 -1.0831  2.4684  1.1430
  171SOPE   C2719326   6.279   6.256   7.699  0.0134  0.0546  0.2119
  171SOPE   H7R19327   6.230   6.353   7.719 -1.1142  0.2812 -3.2389
  171SOPE   H7S19328   6.201   6.180   7.676 -0.2972 -0.4095  2.7515
  171SOPE   C2819329   6.363   6.201   7.820 -0.5526 -0.2597  0.3833
  171SOPE   H8R19330   6.392   6.099   7.788 -0.9147  0.3469 -1.9289
  171SOPE   H8S19331   6.460   6.255   7.830  1.4669 -3.9497  2.0193
  171SOPE   C2919332   6.303   6.189   7.955  0.3672  0.1447  0.1564
  171SOPE   H9119333   6.205   6.138   7.956  0.6637 -0.5082 -1.8210
  171SOPE  C21019334   6.342   6.236   8.075  0.0918 -0.6752  0.0255
  171SOPE  H10119335   6.278   6.209   8.160  1.4125 -0.4100  1.1165
  171SOPE  C21119336   6.470   6.307   8.117 -0.0741 -0.3435 -0.7519
  171SOPE  H11R19337   6.459   6.415   8.140  0.0962 -0.6438  0.7739
  171SOPE  H11S19338   6.545   6.293   8.037  0.3426 -1.5885 -0.1598
  171SOPE  C21219339   6.509   6.238   8.246  0.2665  0.2161  0.0076
  171SOPE  H12R19340   6.426   6.228   8.320  1.8110  1.6169  1.9625
  171SOPE  H12S19341   6.590   6.298   8.293 -0.4531  0.9562  0.3078
  171SOPE  C21319342   6.568   6.099   8.202 -0.2656  0.0936 -0.7094
  171SOPE  H13R19343   6.628   6.109   8.110  1.7016  0.7808  0.6142
  171SOPE  H13S19344   6.479   6.033   8.191 -0.3750  0.1137  0.0212
  171SOPE  C21419345   6.661   6.035   8.308 -0.7594 -0.0865  0.7216
  171SOPE  H14R19346   6.623   6.023   8.411 -0.9916  1.7983  0.8643
  171SOPE  H14S19347   6.755   6.094   8.315 -1.4155  0.9820  0.5945
  171SOPE  C21519348   6.695   5.890   8.262  0.0267  0.1084 -0.0050
  171SOPE  H15R19349   6.801   5.890   8.295 -0.4440 -1.5385  1.5797
  171SOPE  H15S19350   6.700   5.878   8.152  1.6775 -2.0392  0.2698
  171SOPE  C21619351   6.610   5.788   8.337  0.2272 -0.0972 -0.5248
  171SOPE  H16R19352   6.505   5.793   8.300  0.2166  0.4337 -0.4170
  171SOPE  H16S19353   6.601   5.814   8.444 -1.3978 -1.1303 -0.4001
  171SOPE  C21719354   6.636   5.642   8.306 -0.1934  0.3104 -0.2424
  171SOPE  H17R19355   6.739   5.605   8.320 -0.5833 -0.2705  1.1670
  171SOPE  H17S19356   6.618   5.617   8.199  0.1119 -0.6588 -0.0731
  171SOPE  C21819357   6.562   5.544   8.397 -0.3917 -0.6243  0.4752
  171SOPE  H18R19358   6.459   5.576   8.422 -0.5456 -0.7289 -0.0126
  171SOPE  H18S19359   6.604   5.540   8.500 -1.7009 -0.5427  1.0206
  171SOPE  H18T19360   6.561   5.435   8.374 -1.3286 -1.3618  3.7798
  171SOPE   C3319361   5.943   6.080   7.059  0.3531  0.3099  0.4388
  171SOPE   H3X19362   5.996   6.178   7.055  0.8803  0.0775  1.5235
  171SOPE   H3Y19363   6.019   5.999   7.066 -0.8316 -1.0070 -1.5534
  171SOPE   C3419364   5.845   6.074   7.185 -0.1695  0.4847 -0.0788
  171SOPE   H4X19365   5.804   5.971   7.190 -0.3914  0.4917 -1.5981
  171SOPE   H4Y19366   5.760   6.144   7.172  0.1808  1.0835  0.8541
  171SOPE   C3519367   5.927   6.105   7.311 -0.3507 -0.9477 -0.3331
  171SOPE   H5X19368   5.955   6.212   7.322 -4.6304  0.1848  0.7881
  171SOPE   H5Y19369   6.021   6.046   7.319 -0.3601 -1.0187 -0.7557
  171SOPE   C3619370   5.839   6.074   7.431 -0.4728 -0.2252  0.8817
  171SOPE   H6X19371   5.831   5.966   7.456 -0.0829 -0.3287  0.5671
  171SOPE   H6Y19372   5.737   6.119   7.429 -0.1565  0.5002 -3.1685
  171SOPE   C3719373   5.900   6.113   7.566  0.6990  0.2702  0.1805
  171SOPE   H7X19374   5.926   6.221   7.561  1.8775 -0.0826 -2.0915
  171SOPE   H7Y19375   5.991   6.052   7.586 -1.5833 -2.6809  2.1030
  171SOPE   C3819376   5.812   6.101   7.693 -0.4031  0.2814 -0.7327
  171SOPE   H8X19377   5.798   5.991   7.705 -0.5348  0.6452  3.0474
  171SOPE   H8Y19378   5.720   6.163   7.686 -0.8397 -0.4003 -1.1229
  171SOPE   C3919379   5.887   6.130   7.821 -0.7584  1.0279 -0.4526
  171SOPE   H9X19380   5.928   6.232   7.803  0.6687  0.1327 -2.3858
  171SOPE   H9Y19381   5.971   6.059   7.833 -1.0943  0.5122 -1.0991
  171SOPE  C31019382   5.803   6.133   7.951 -0.3205 -0.6639 -0.1362
  171SOPE  H10X19383   5.771   6.028   7.966 -1.8326 -0.2231 -0.1958
  171SOPE  H10Y19384   5.713   6.198   7.955  0.7348  0.7864  0.9075
  171SOPE  C31119385   5.887   6.176   8.076 -0.0736 -1.3983  0.0601
  171SOPE  H11X19386   5.867   6.285   8.085  0.1775 -1.4753  1.6696
  171SOPE  H11Y19387   5.997   6.160   8.068  0.2544 -0.0136  1.6603
  171SOPE  C31219388   5.835   6.104   8.199  0.2638 -0.2676  0.4081
  171SOPE  H12X19389   5.879   6.002   8.195  1.3395  0.2342 -1.0384
  171SOPE  H12Y19390   5.724   6.103   8.201  0.2472  0.8903  0.4275
  171SOPE  C31319391   5.879   6.180   8.324  0.2740  0.6076 -0.4273
  171SOPE  H13X19392   5.958   6.256   8.305 -0.0058  0.9007 -0.4080
  171SOPE  H13Y19393   5.919   6.112   8.403 -0.5060 -1.0657 -1.4398
  171SOPE  C31419394   5.766   6.264   8.384 -0.3020 -0.2254  0.4155
  171SOPE  H14X19395   5.695   6.191   8.428 -1.3047 -0.3084 -1.2662
  171SOPE  H14Y19396   5.708   6.314   8.304  0.8811  1.5848  0.6680
  171SOPE  C31519397   5.801   6.363   8.498  0.2590  0.6454 -0.4569
  171SOPE  H15X19398   5.876   6.430   8.451  2.1060  0.4347  2.0922
  171SOPE  H15Y19399   5.846   6.300   8.578  3.6545 -1.4754 -3.8938
  171SOPE  C31619400   5.682   6.452   8.550  0.1635  0.0229 -0.2399
  171SOPE  H16X19401   5.720   6.511   8.637 -0.7189  1.7715 -1.0224
  171SOPE  H16Y19402   5.611   6.381   8.598 -0.6037  0.5567 -0.5800
  171SOPE  C31719403   5.625   6.548   8.448 -0.1953 -0.6312  0.1266
  171SOPE  H17X19404   5.604   6.480   8.363  1.9417 -0.3355 -0.6724
  171SOPE  H17Y19405   5.703   6.622   8.421 -0.3310 -0.2904  0.6622
  171SOPE  C31819406   5.493   6.613   8.498  0.6440 -0.1931 -0.3492
  171SOPE  H18X19407   5.447   6.689   8.431  0.0778  1.5441  1.9357
  171SOPE  H18Y19408   5.512   6.672   8.590 -2.1484  0.7611 -0.3220
  171SOPE  H18Z19409   5.417   6.536   8.524  1.5316 -1.0669 -0.3291
  172SOPE     N19410   6.806   1.204   6.472  0.4912 -0.1305  0.1212
  172SOPE   HN119411   6.861   1.276   6.422 -0.9409  0.6618 -0.3528
  172SOPE   HN219412   6.788   1.213   6.574 -1.4925 -1.8611 -0.0364
  172SOPE   HN319413   6.849   1.114   6.444 -0.5234 -1.1624  1.8006
  172SOPE   C1219414   6.673   1.201   6.398  0.2415  0.2030  0.8962
  172SOPE  H12A19415   6.679   1.170   6.291 -0.2868  1.8591  0.3665
  172SOPE  H12B19416   6.641   1.306   6.412 -0.1138 -0.2961  4.1975
  172SOPE   C1119417   6.572   1.109   6.481  0.4465 -0.2513 -0.1548
  172SOPE  H11A19418   6.474   1.104   6.429  0.5272 -0.5263 -0.2797
  172SOPE  H11B19419   6.551   1.153   6.581  1.1576 -1.7432  0.6752
  172SOPE     P19420   6.625   0.868   6.400  0.0667  0.0396  0.1452
  172SOPE   O1319421   6.709   0.922   6.294 -0.8610  0.1413  0.0843
  172SOPE   O1419422   6.485   0.832   6.367  0.5416 -0.4379 -0.3830
  172SOPE   O1219423   6.614   0.981   6.509  0.5649 -0.1813 -0.2379
  172SOPE   O1119424   6.696   0.747   6.482 -0.1168  0.1929 -0.0599
  172SOPE    C119425   6.819   0.757   6.556 -0.0577 -0.8089 -0.3285
  172SOPE    HA19426   6.861   0.858   6.540  1.3467 -1.5017 -1.1961
  172SOPE    HB19427   6.898   0.687   6.520  1.2327  0.6433 -0.3797
  172SOPE    C219428   6.803   0.718   6.705 -1.0481  0.6037 -0.0289
  172SOPE    HS19429   6.909   0.717   6.739 -1.5868  1.4213  1.7089
  172SOPE   O2119430   6.733   0.593   6.729 -0.1219 -0.0915  0.5029
  172SOPE   C2119431   6.802   0.478   6.726 -0.3781 -0.2499  0.5840
  172SOPE   O2219432   6.925   0.472   6.725  0.7339  0.0723 -0.0891
  172SOPE   C2219433   6.702   0.365   6.743  0.3650  0.7341  0.4049
  172SOPE   H2R19434   6.754   0.272   6.713 -1.6049 -0.0963 -0.5459
  172SOPE   H2S19435   6.618   0.383   6.671 -0.3937  0.7112  1.2796
  172SOPE    C319436   6.730   0.841   6.778 -0.4173  0.1177  0.3075
  172SOPE    HX19437   6.632   0.853   6.729 -0.8750 -1.4881  0.8004
  172SOPE    HY19438   6.776   0.940   6.755 -0.6930 -0.2645 -2.0084
  172SOPE   O3119439   6.721   0.811   6.921  0.2512  0.6464  0.3453
  172SOPE   C3119440   6.813   0.874   7.000  0.5432 -0.3439  0.5124
  172SOPE   O3219441   6.911   0.927   6.957  0.3972  0.4427  0.0211
  172SOPE   C3219442   6.766   0.869   7.144  0.1001 -0.5612  0.2313
  172SOPE   H2X19443   6.785   0.771   7.192  0.0461 -0.9589 -0.5467
  172SOPE   H2Y19444   6.658   0.894   7.150  0.3806  1.0084 -0.9090
  172SOPE   C2319445   6.652   0.331   6.886  0.0584 -0.4633  0.2961
  172SOPE   H3R19446   6.594   0.238   6.868  0.0027 -0.8840  2.5096
  172SOPE   H3S19447   6.578   0.405   6.921 -0.6768 -1.6104  1.1913
  172SOPE   C2419448   6.757   0.298   6.986  0.3956 -0.6629 -0.1127
  172SOPE   H4R19449   6.706   0.241   7.067  1.2281 -0.2672  0.7037
  172SOPE   H4S19450   6.837   0.234   6.943  0.1595 -0.6413 -0.5865
  172SOPE   C2519451   6.813   0.414   7.068  0.0303 -0.0551 -0.5059
  172SOPE   H5R19452   6.843   0.494   6.996 -0.0278 -0.4656 -0.9910
  172SOPE   H5S19453   6.746   0.468   7.138  1.6568 -0.7454  1.6187
  172SOPE   C2619454   6.922   0.365   7.155 -0.0363  0.4267  0.0235
  172SOPE   H6R19455   6.894   0.264   7.192 -0.3794  1.0066  1.3507
  172SOPE   H6S19456   7.013   0.352   7.093  0.7687 -0.4872  1.3836
  172SOPE   C2719457   6.957   0.471   7.270 -0.6662  0.2911 -0.4511
  172SOPE   H7R19458   7.014   0.557   7.228  1.5622 -1.7488 -1.7442
  172SOPE   H7S19459   6.861   0.505   7.313 -1.1043  1.2849 -2.1814
  172SOPE   C2819460   7.036   0.398   7.376  0.0745  0.5680 -0.2277
  172SOPE   H8R19461   6.972   0.318   7.420  1.0184 -0.0466  0.0563
  172SOPE   H8S19462   7.122   0.353   7.323  0.6070 -0.4945  1.5037
  172SOPE   C2919463   7.078   0.496   7.486  0.0521  0.3685  0.3371
  172SOPE   H9119464   7.116   0.594   7.455 -0.7749  1.7865  3.5533
  172SOPE  C21019465   7.077   0.474   7.613  0.1360 -0.3125 -0.2479
  172SOPE  H10119466   7.108   0.559   7.675  0.3478  1.1876 -2.3364
  172SOPE  C21119467   7.041   0.341   7.669 -0.0553 -0.1210 -0.7886
  172SOPE  H11R19468   7.040   0.264   7.589 -1.8571  0.5546 -1.4396
  172SOPE  H11S19469   6.941   0.352   7.716 -0.1575 -0.0252 -1.0276
  172SOPE  C21219470   7.140   0.284   7.782 -0.2190 -0.3548  0.6065
  172SOPE  H12R19471   7.246   0.273   7.750 -0.4418  0.6363 -0.5442
  172SOPE  H12S19472   7.108   0.181   7.808  0.4746 -0.1479  2.3308
  172SOPE  C21319473   7.133   0.372   7.912 -0.9761 -0.0573 -0.3394
  172SOPE  H13R19474   7.027   0.371   7.944 -0.6171 -1.0035  0.8336
  172SOPE  H13S19475   7.167   0.475   7.885  0.1322 -0.4721 -0.5706
  172SOPE  C21419476   7.239   0.310   8.009 -0.0836  0.5606  0.0095
  172SOPE  H14R19477   7.337   0.312   7.957 -1.0281  1.2892 -1.8053
  172SOPE  H14S19478   7.218   0.204   8.033  0.3092  0.3912 -0.4001
  172SOPE  C21519479   7.258   0.381   8.150 -0.4269  0.4894 -0.7534
  172SOPE  H15R19480   7.167   0.368   8.212  0.5899  0.4617  0.7511
  172SOPE  H15S19481   7.276   0.490   8.136 -0.6742  0.8346  1.4542
  172SOPE  C21619482   7.387   0.313   8.212  0.1853 -0.0970  0.1759
  172SOPE  H16R19483   7.451   0.292   8.123  0.3702  0.3040  0.2122
  172SOPE  H16S19484   7.365   0.212   8.252  2.2554 -1.8041 -2.7340
  172SOPE  C21719485   7.463   0.394   8.317 -0.3937 -0.7590  0.0931
  172SOPE  H17R19486   7.478   0.499   8.284  2.3483 -1.1056  0.1321
  172SOPE  H17S19487   7.568   0.359   8.323  0.4325  1.5508 -0.2473
  172SOPE  C21819488   7.395   0.387   8.450 -0.3451  0.0948 -0.2427
  172SOPE  H18R19489   7.375   0.280   8.473  0.5049 -0.1333 -0.5557
  172SOPE  H18S19490   7.302   0.447   8.451 -0.1541  0.4033 -0.6999
  172SOPE  H18T19491   7.474   0.419   8.522  0.6146 -0.7087 -0.9338
  172SOPE   C3319492   6.840   0.968   7.240 -0.1835 -0.2766  0.0318
  172SOPE   H3X19493   6.802   1.071   7.224 -0.4979 -0.1568  1.4217
  172SOPE   H3Y19494   6.951   0.966   7.241 -0.0841  2.9366  1.5643
  172SOPE   C3419495   6.795   0.927   7.387  0.4325 -1.0639  0.4266
  172SOPE   H4X19496   6.875   0.953   7.459  0.2240 -1.0664  0.6637
  172SOPE   H4Y19497   6.786   0.816   7.392 -2.9239 -0.8069  1.4493
  172SOPE   C3519498   6.660   0.980   7.430 -0.2018 -0.1436  0.0550
  172SOPE   H5X19499   6.596   0.938   7.350 -1.7170  0.3014  1.0229
  172SOPE   H5Y19500   6.661   1.091   7.423  0.7416 -0.1543 -0.1363
  172SOPE   C3619501   6.608   0.932   7.569 -0.0856 -0.4420  0.1051
  172SOPE   H6X19502   6.587   0.826   7.541 -1.7130  0.0602 -0.5880
  172SOPE   H6Y19503   6.520   0.996   7.591  0.7244  0.6882  0.1090
  172SOPE   C3719504   6.721   0.928   7.672  0.6861  0.7880  0.2619
  172SOPE   H7X19505   6.766   1.029   7.675  0.7750  0.7343  1.0731
  172SOPE   H7Y19506   6.804   0.857   7.654 -0.5983 -1.3232  2.2497
  172SOPE   C3819507   6.670   0.888   7.808 -0.4262 -0.6817 -0.2777
  172SOPE   H8X19508   6.629   0.784   7.811 -0.5698 -0.6149  0.0446
  172SOPE   H8Y19509   6.580   0.944   7.842 -1.1725 -0.6873 -2.1492
  172SOPE   C3919510   6.785   0.885   7.911  0.0311  0.8759 -0.2822
  172SOPE   H9X19511   6.814   0.988   7.939 -0.3604  0.3474  2.1571
  172SOPE   H9Y19512   6.874   0.838   7.863  0.7081  0.9544  0.8725
  172SOPE  C31019513   6.757   0.809   8.034  0.1820 -0.3586  0.3256
  172SOPE  H10X19514   6.749   0.700   8.020 -0.6292 -0.0658 -1.6195
  172SOPE  H10Y19515   6.656   0.842   8.065 -0.3508 -0.6843 -1.0301
  172SOPE  C31119516   6.868   0.820   8.140  0.3660  0.0199 -0.2247
  172SOPE  H11X19517   6.898   0.926   8.156 -1.6299  0.4230  1.1730
  172SOPE  H11Y19518   6.951   0.766   8.089 -0.5257 -0.3838 -1.2593
  172SOPE  C31219519   6.837   0.760   8.276 -0.0845  0.0936 -0.2805
  172SOPE  H12X19520   6.834   0.649   8.268 -0.0751  0.1301 -0.7765
  172SOPE  H12Y19521   6.749   0.806   8.327 -0.5766  0.2002 -1.2216
  172SOPE  C31319522   6.963   0.786   8.368 -0.3174 -0.1463  0.1179
  172SOPE  H13X19523   6.963   0.894   8.396  0.5765 -0.2649  0.5792
  172SOPE  H13Y19524   7.057   0.759   8.315  0.1155 -0.9308  1.2612
  172SOPE  C31419525   6.949   0.711   8.502 -0.5299 -0.0420  0.0046
  172SOPE  H14X19526   6.845   0.715   8.540 -0.1079 -2.7517  1.6079
  172SOPE  H14Y19527   7.023   0.751   8.574 -0.0349 -2.4803  0.9292
  172SOPE  C31519528   6.987   0.569   8.498  0.1408  0.0923  0.4601
  172SOPE  H15X19529   7.093   0.572   8.463 -0.5269  0.0287 -1.6324
  172SOPE  H15Y19530   6.930   0.508   8.425 -0.6531  0.9415  0.3618
  172SOPE  C31619531   6.972   0.488   8.630  0.0834  0.5024  0.0654
  172SOPE  H16X19532   7.051   0.529   8.697  0.6219 -0.0169 -0.2513
  172SOPE  H16Y19533   6.999   0.383   8.607  1.6410  1.6073 -3.4082
  172SOPE  C31719534   6.847   0.505   8.715  0.2862 -0.0086  0.4618
  172SOPE  H17X19535   6.812   0.607   8.740 -3.2559 -0.7452 -1.1502
  172SOPE  H17Y19536   6.873   0.449   8.808 -2.5208 -1.3566  0.4864
  172SOPE  C31819537   6.718   0.443   8.657  0.8526  0.3806  0.6883
  172SOPE  H18X19538   6.693   0.508   8.570  0.4210 -1.7098 -0.7657
  172SOPE  H18Y19539   6.632   0.436   8.727  1.2859 -0.2643  1.1579
  172SOPE  H18Z19540   6.744   0.339   8.627  1.9061 -0.0328  2.9506
  173SAPI   C1219541   1.506   5.330  10.907  0.3871  0.0619  0.8732
  173SAPI    H219542   1.425   5.255  10.917  1.4814 -1.3473 -0.5858
  173SAPI    O219543   1.491   5.394  11.035  0.0918  0.3516  0.0564
  173SAPI   HO219544   1.404   5.432  11.042 -0.0656  0.3616 -1.8322
  173SAPI   C1319545   1.635   5.249  10.901  1.0357  0.3959 -0.0765
  173SAPI    H319546   1.627   5.193  10.805  0.7785  0.0614  0.1428
  173SAPI    O319547   1.640   5.146  11.004  0.0423 -0.0374  0.1324
  173SAPI   HO319548   1.642   5.059  10.963 -0.7376  0.3616 -0.7971
  173SAPI   C1419549   1.752   5.338  10.907  0.0486  0.2636 -0.1984
  173SAPI    H419550   1.741   5.406  10.995  0.6524  0.9923 -0.6761
  173SAPI    O419551   1.876   5.264  10.918 -0.2632  0.1836 -0.0667
  173SAPI   HO419552   1.885   5.214  11.000  0.1340  0.6969  0.2066
  173SAPI   C1519553   1.752   5.423  10.784 -0.2838 -0.1992 -0.7295
  173SAPI    H519554   1.744   5.353  10.698  0.2220 -0.9762 -0.1550
  173SAPI    O519555   1.873   5.490  10.748 -0.6016  0.2007  0.0979
  173SAPI   HO519556   1.893   5.554  10.817 -1.5246 -0.1453  0.6888
  173SAPI   C1619557   1.625   5.511  10.788 -0.2918  0.7847  0.5269
  173SAPI    H619558   1.640   5.561  10.886 -1.4159  1.0808  0.5569
  173SAPI    O619559   1.634   5.592  10.672 -0.8407  0.1811 -0.2962
  173SAPI   HO619560   1.567   5.659  10.686 -0.1314  1.0632 -1.0813
  173SAPI   C1119561   1.494   5.429  10.792  0.3472 -0.3807  0.0203
  173SAPI    H119562   1.479   5.371  10.698 -1.5337  1.3831 -0.7944
  173SAPI     P19563   1.232   5.460  10.826  0.3122 -0.3471 -0.5087
  173SAPI   O1319564   1.132   5.550  10.768  0.2956 -0.7114 -0.0910
  173SAPI   O1419565   1.221   5.434  10.975  0.2563  0.6305 -0.2267
  173SAPI   O1219566   1.380   5.522  10.795 -0.3548 -0.2301  0.5623
  173SAPI   O1119567   1.237   5.322  10.749 -0.5839  0.0226  0.1287
  173SAPI    C119568   1.166   5.278  10.635  0.2144  0.4916  0.2930
  173SAPI    HA19569   1.122   5.176  10.640  0.6955  0.3312  1.2981
  173SAPI    HB19570   1.084   5.349  10.610  0.9389  0.9145 -0.9324
  173SAPI    C219571   1.274   5.270  10.518 -0.1585  0.2602 -0.4940
  173SAPI    HS19572   1.364   5.220  10.559  0.1147 -1.6759 -3.3427
  173SAPI   O2119573   1.310   5.400  10.464  0.0155  0.1426 -0.3672
  173SAPI   C2119574   1.431   5.403  10.399  0.6725  0.3029 -0.1567
  173SAPI   O2219575   1.521   5.321  10.418  0.0771  0.5538  0.7403
  173SAPI   C2219576   1.439   5.514  10.306  0.5644  0.2048  0.3288
  173SAPI   H2R19577   1.362   5.585  10.343 -0.4357 -1.6017  1.7838
  173SAPI   H2S19578   1.537   5.567  10.309  0.9722 -0.2736 -3.1060
  173SAPI    C319579   1.222   5.179  10.401  0.8450 -0.2264 -0.6611
  173SAPI    HX19580   1.150   5.244  10.346  0.8305  1.7439  1.5609
  173SAPI    HY19581   1.173   5.092  10.448 -1.5164  0.8038 -1.1279
  173SAPI   O3119582   1.323   5.149  10.306  0.0056 -0.5439  0.0156
  173SAPI   C3119583   1.417   5.061  10.340 -0.1040  0.2663 -0.2019
  173SAPI   O3219584   1.433   5.012  10.449 -0.7588  0.3942  0.6021
  173SAPI   C3219585   1.517   5.044  10.224  0.5807  0.3822 -0.1353
  173SAPI   H2X19586   1.522   4.933  10.212  0.8620  0.2476  1.1689
  173SAPI   H2Y19587   1.620   5.076  10.252  1.6741 -1.4772 -1.7774
  173SAPI   C2319588   1.395   5.481  10.159 -0.0530 -0.0628 -1.1528
  173SAPI   H3R19589   1.321   5.398  10.163 -0.9930  0.8258  0.4209
  173SAPI   H3S19590   1.481   5.424  10.117  1.0953  0.3208  0.6024
  173SAPI   C2419591   1.353   5.605  10.073  0.0910 -0.0456  0.4920
  173SAPI   H4R19592   1.293   5.668  10.141 -0.3078 -0.6612  0.7171
  173SAPI   H4S19593   1.280   5.573   9.996  1.3921  1.1045 -1.2676
  173SAPI   C2519594   1.472   5.673  10.007  0.2456  0.0925 -0.8041
  173SAPI   H5R19595   1.514   5.753  10.070  0.5127 -0.2583 -0.5342
  173SAPI   C2619596   1.522   5.662   9.886  0.3805  0.3857  0.3139
  173SAPI   H6R19597   1.609   5.728   9.875 -0.0879  0.7134 -1.4850
  173SAPI   C2719598   1.473   5.577   9.771  1.6228  0.2064  0.7238
  173SAPI   H7R19599   1.386   5.624   9.720  1.0777 -2.3909 -0.8569
  173SAPI   H7S19600   1.439   5.484   9.822 -1.2638  0.0838 -1.2884
  173SAPI   C2819601   1.572   5.546   9.668 -0.4373  0.8654 -0.3709
  173SAPI   H8R19602   1.656   5.486   9.705 -2.6330 -0.5536  2.6610
  173SAPI   C2919603   1.575   5.569   9.539 -0.1685 -0.6041  0.4066
  173SAPI   H9R19604   1.665   5.543   9.482 -0.1525  1.1328 -0.3982
  173SAPI  C21019605   1.477   5.635   9.454 -0.8283 -0.2074  0.2631
  173SAPI  H10R19606   1.392   5.566   9.432 -1.9352  1.2749 -0.2322
  173SAPI  H10S19607   1.527   5.650   9.356  0.6106 -1.0520  0.8507
  173SAPI  C21119608   1.424   5.771   9.500 -0.6563 -0.0118 -0.5547
  173SAPI  H11R19609   1.439   5.792   9.607  0.4879 -1.2027 -0.4712
  173SAPI  C21219610   1.372   5.866   9.423  0.2106  0.3163  0.5722
  173SAPI  H12R19611   1.336   5.962   9.460  1.1647  1.0263 -0.3136
  173SAPI  C21319612   1.355   5.842   9.278 -0.6200 -0.3865  0.9487
  173SAPI  H13R19613   1.334   5.733   9.269 -0.0877 -0.4270  0.2217
  173SAPI  H13S19614   1.452   5.865   9.230 -1.5828  0.1317 -0.7766
  173SAPI  C21419615   1.252   5.931   9.211 -0.7023 -1.1304 -0.7558
  173SAPI  H14R19616   1.190   5.995   9.274 -0.4415 -1.8462  0.2392
  173SAPI  C21519617   1.246   5.954   9.080 -0.4161 -0.5705 -0.0568
  173SAPI  H15R19618   1.172   6.029   9.047 -0.4232 -0.3679  0.4184
  173SAPI  C21619619   1.322   5.881   8.974 -0.2551  0.0919  0.1605
  173SAPI  H16R19620   1.421   5.838   9.002  0.2837  0.2482 -1.4682
  173SAPI  H16S19621   1.339   5.948   8.887  1.0833 -1.6251 -0.9292
  173SAPI  C21719622   1.232   5.764   8.932 -0.3810 -0.3325 -0.1267
  173SAPI  H17R19623   1.137   5.806   8.892 -0.7079  0.0877  1.0691
  173SAPI  H17S19624   1.205   5.697   9.016  1.5239 -0.3630  0.4839
  173SAPI  C21819625   1.301   5.676   8.828  0.1563 -0.1379  0.5364
  173SAPI  H18R19626   1.408   5.657   8.853  0.5535  1.9240  0.5324
  173SAPI  H18S19627   1.296   5.732   8.732 -0.0272 -2.4134 -0.7987
  173SAPI  C21919628   1.226   5.547   8.790  0.4009 -0.0887 -0.3858
  173SAPI  H19R19629   1.121   5.571   8.763  0.5439  0.3248 -0.5851
  173SAPI  H19S19630   1.226   5.487   8.883  0.2011  2.4523  1.2896
  173SAPI  C22019631   1.309   5.467   8.690 -0.7865  0.1994 -0.2983
  173SAPI  H20R19632   1.409   5.461   8.737 -1.8103  0.7688  1.9925
  173SAPI  H20S19633   1.318   5.522   8.594  0.5942  0.8247  0.1713
  173SAPI  H20T19634   1.259   5.371   8.666 -0.8041  0.5094 -1.5491
  173SAPI   C3319635   1.474   5.111  10.094 -0.0590 -0.2305  0.2759
  173SAPI   H3X19636   1.558   5.101  10.021 -0.7408  0.4869 -0.6198
  173SAPI   H3Y19637   1.471   5.222  10.097 -0.5436 -0.2595  1.0012
  173SAPI   C3419638   1.340   5.065  10.034  0.0533  0.4416 -0.5301
  173SAPI   H4X19639   1.250   5.107  10.084 -0.5223  0.6480 -1.7239
  173SAPI   H4Y19640   1.345   4.957  10.060 -0.0189  0.6044  0.1866
  173SAPI   C3519641   1.324   5.076   9.879 -0.1708  0.0633 -0.4644
  173SAPI   H5X19642   1.222   5.047   9.846 -0.6432 -0.0278  1.0702
  173SAPI   H5Y19643   1.395   5.001   9.836 -1.5377 -1.0208 -0.8494
  173SAPI   C3619644   1.353   5.213   9.831  0.2337 -0.5890  0.0001
  173SAPI   H6X19645   1.457   5.231   9.865  1.2810 -3.4659 -1.4037
  173SAPI   H6Y19646   1.290   5.285   9.887 -1.8687 -1.9180 -0.5894
  173SAPI   C3719647   1.336   5.224   9.677  0.3474  0.0111  0.1655
  173SAPI   H7X19648   1.336   5.329   9.642 -1.8069  0.1454  0.5166
  173SAPI   H7Y19649   1.238   5.177   9.652 -0.1714  1.8883 -1.4800
  173SAPI   C3819650   1.451   5.157   9.594 -0.2601 -0.2493  0.1145
  173SAPI   H8X19651   1.482   5.066   9.650  1.1909 -1.2833 -2.2766
  173SAPI   H8Y19652   1.532   5.232   9.599 -1.1017  0.6311  0.7331
  173SAPI   C3919653   1.407   5.128   9.451  0.2713  0.5971  0.4342
  173SAPI   H9X19654   1.362   5.221   9.410 -3.2870 -0.1655  2.4023
  173SAPI   H9Y19655   1.332   5.046   9.452  1.0967 -0.1819 -0.4150
  173SAPI  C31019656   1.522   5.073   9.360 -0.5226  0.3510  0.5825
  173SAPI  H10X19657   1.578   4.994   9.416 -2.5375 -1.0694  0.6518
  173SAPI  H10Y19658   1.601   5.151   9.348  1.3231 -1.5549 -0.0011
  173SAPI  C31119659   1.486   5.023   9.220  0.4839  0.1359 -0.6264
  173SAPI  H11X19660   1.427   5.100   9.165 -1.1259 -0.7048 -0.0782
  173SAPI  H11Y19661   1.414   4.941   9.238 -0.3883  0.5590 -2.0709
  173SAPI  C31219662   1.613   4.980   9.150 -0.0387  0.4223  0.3418
  173SAPI  H12X19663   1.648   4.884   9.194  1.0829  1.0589  0.8507
  173SAPI  H12Y19664   1.694   5.054   9.168  1.0978 -0.5874 -0.5503
  173SAPI  C31319665   1.584   4.955   9.000  0.1078 -0.0364  0.3374
  173SAPI  H13X19666   1.549   5.053   8.960  2.1890  0.7006  0.2714
  173SAPI  H13Y19667   1.508   4.880   8.968  1.5479 -2.3133  2.1393
  173SAPI  C31419668   1.718   4.919   8.923  0.1521 -0.0972  0.2436
  173SAPI  H14X19669   1.753   4.815   8.939 -0.3142  0.1277  2.8327
  173SAPI  H14Y19670   1.803   4.985   8.952  0.7647 -0.6656 -0.2168
  173SAPI  C31519671   1.708   4.927   8.765  0.6329  0.1806 -0.4583
  173SAPI  H15X19672   1.710   5.035   8.737 -0.1144  0.7601  1.6357
  173SAPI  H15Y19673   1.617   4.873   8.731 -0.9150  2.0209  0.6617
  173SAPI  C31619674   1.823   4.842   8.698 -0.4118 -0.3281  0.1734
  173SAPI  H16X19675   1.771   4.790   8.615  0.6166 -0.8447 -0.1498
  173SAPI  H16Y19676   1.868   4.775   8.774  0.4042 -1.2626 -1.1158
  173SAPI  C31719677   1.927   4.935   8.626 -0.7022  0.3958  0.6802
  173SAPI  H17X19678   1.983   4.990   8.705  2.4234 -1.3631 -0.2022
  173SAPI  H17Y19679   1.864   4.998   8.561  0.0474 -0.4289 -0.8781
  173SAPI  C31819680   2.025   4.860   8.542  0.2526  0.9955  0.4389
  173SAPI  H18X19681   1.972   4.792   8.471  1.9924 -0.8332  0.8299
  173SAPI  H18Y19682   2.092   4.797   8.605  0.7472  2.7250  1.6702
  173SAPI  H18Z19683   2.090   4.937   8.496 -1.0898  1.8438 -0.0568
  174SAPI   C1219684   4.587   6.118  11.151  0.5515 -0.4681  0.4326
  174SAPI    H219685   4.507   6.186  11.113  0.7231 -0.1302  0.6769
  174SAPI    O219686   4.602   6.139  11.290 -0.4661 -0.7765 -0.0278
  174SAPI   HO219687   4.670   6.204  11.305  1.1787 -2.7107  1.1075
  174SAPI   C1319688   4.547   5.977  11.128  0.4760  0.8210 -0.5932
  174SAPI    H319689   4.527   5.970  11.019  0.4878  1.4134 -0.6369
  174SAPI    O319690   4.427   5.949  11.203  0.5092  0.3271  0.2525
  174SAPI   HO319691   4.443   5.984  11.290  0.1683 -2.2999  1.4273
  174SAPI   C1419692   4.658   5.883  11.169  0.1956  0.5997  0.3188
  174SAPI    H419693   4.672   5.881  11.279  1.5234  2.1068  0.1902
  174SAPI    O419694   4.611   5.748  11.151  0.3399  0.0435 -0.1917
  174SAPI   HO419695   4.686   5.691  11.172  0.6276  0.7744  0.7877
  174SAPI   C1519696   4.777   5.919  11.084  0.0669  0.0334 -0.3297
  174SAPI    H519697   4.747   5.914  10.977 -1.7983  0.5760  0.1586
  174SAPI    O519698   4.890   5.822  11.104 -0.0307  0.0640  0.3960
  174SAPI   HO519699   4.966   5.854  11.054 -0.3310 -2.5908 -1.8661
  174SAPI   C1619700   4.825   6.063  11.108  0.5171  0.4207 -0.0740
  174SAPI    H619701   4.840   6.070  11.218  1.7231  0.1847 -0.2207
  174SAPI    O619702   4.946   6.095  11.040 -0.5414  0.4945  0.1850
  174SAPI   HO619703   4.915   6.177  11.000 -0.8568  1.6056  2.6544
  174SAPI   C1119704   4.713   6.152  11.065  0.3814 -0.2649 -0.6254
  174SAPI    H119705   4.684   6.129  10.961  0.3614 -1.1738 -0.4256
  174SAPI     P19706   4.695   6.402  10.982 -0.3456  0.2401 -0.6516
  174SAPI   O1319707   4.734   6.539  11.028 -0.0773  0.0355  0.3154
  174SAPI   O1419708   4.552   6.385  10.950 -0.3190 -0.0071 -0.0098
  174SAPI   O1219709   4.752   6.290  11.081  0.6031  0.1088 -0.8700
  174SAPI   O1119710   4.790   6.372  10.857 -0.3573  0.4172  0.3016
  174SAPI    C119711   4.737   6.388  10.722 -0.2968 -0.0723  0.3500
  174SAPI    HA19712   4.627   6.401  10.720 -0.2629  0.0523 -0.6815
  174SAPI    HB19713   4.796   6.465  10.669  1.9586 -2.4272 -0.6766
  174SAPI    C219714   4.755   6.251  10.641 -0.0966  0.1136  0.6403
  174SAPI    HS19715   4.727   6.173  10.714 -1.3878  0.6454  0.7335
  174SAPI   O2119716   4.890   6.240  10.603 -0.8599  0.2051 -0.2848
  174SAPI   C2119717   4.936   6.122  10.570 -0.4455  0.8066  0.2717
  174SAPI   O2219718   4.884   6.019  10.607 -0.1371 -0.6052  0.9778
  174SAPI   C2219719   5.061   6.136  10.481  0.0832  0.3054 -0.0449
  174SAPI   H2R19720   5.058   6.239  10.438  2.7781 -0.2500 -1.6643
  174SAPI   H2S19721   5.138   6.123  10.559  0.7972  1.6223 -0.5159
  174SAPI    C319722   4.656   6.262  10.511  0.0168  1.1142 -0.3249
  174SAPI    HX19723   4.552   6.275  10.547  0.1343  1.8572 -0.2491
  174SAPI    HY19724   4.658   6.173  10.445  4.1011  2.0238 -1.6354
  174SAPI   O3119725   4.691   6.379  10.431  0.6514  0.4539 -0.2588
  174SAPI   C3119726   4.782   6.360  10.338  0.1947  0.7825 -1.1526
  174SAPI   O3219727   4.804   6.253  10.283  0.1285 -0.2413 -0.1730
  174SAPI   C3219728   4.848   6.491  10.297  0.4925  0.2444  0.1932
  174SAPI   H2X19729   4.809   6.567  10.369 -3.1948  1.7806 -3.2375
  174SAPI   H2Y19730   4.808   6.514  10.196  0.8742  0.3658  0.0676
  174SAPI   C2319731   5.067   6.026  10.372  0.5441 -0.4104  0.1388
  174SAPI   H3R19732   4.975   6.034  10.310  0.4982  1.5887  0.4405
  174SAPI   H3S19733   5.080   5.922  10.408  1.0263 -0.3803  0.0612
  174SAPI   C2419734   5.186   6.046  10.276  0.1690  0.4164  0.3125
  174SAPI   H4R19735   5.278   6.039  10.337 -1.2680  0.2450  2.4997
  174SAPI   H4S19736   5.176   6.144  10.225  0.7536 -0.6940 -2.0214
  174SAPI   C2519737   5.203   5.933  10.175 -0.3055  0.0541  0.5579
  174SAPI   H5R19738   5.241   5.844  10.228 -0.8558 -1.4163 -1.4767
  174SAPI   C2619739   5.175   5.930  10.042  0.3214 -0.1001 -0.4298
  174SAPI   H6R19740   5.196   5.839   9.984  1.5556  1.2259 -2.1270
  174SAPI   C2719741   5.129   6.043   9.953  0.2062  0.2962  0.3811
  174SAPI   H7R19742   5.134   6.018   9.845  0.5165 -0.0777  0.4819
  174SAPI   H7S19743   5.209   6.120   9.957 -1.5306  2.1388  0.4431
  174SAPI   C2819744   4.996   6.091   9.998 -0.5029 -0.4665 -0.4743
  174SAPI   H8R19745   4.965   6.067  10.101 -0.4392 -0.4841 -0.4585
  174SAPI   C2919746   4.907   6.161   9.930  0.1701 -0.0631 -0.5432
  174SAPI   H9R19747   4.809   6.187   9.973  1.1866  2.6067  0.2214
  174SAPI  C21019748   4.926   6.223   9.790 -0.1505 -0.0061  0.2380
  174SAPI  H10R19749   4.915   6.141   9.716 -1.2895  0.4007 -0.0531
  174SAPI  H10S19750   5.033   6.247   9.772  0.8296 -2.0081  2.9952
  174SAPI  C21119751   4.827   6.331   9.755 -0.3237 -0.1635  0.5302
  174SAPI  H11R19752   4.747   6.350   9.829  0.6719 -0.4211  1.6854
  174SAPI  C21219753   4.819   6.379   9.632 -0.2081  0.1276 -0.0154
  174SAPI  H12R19754   4.733   6.446   9.616 -1.1870 -1.1576 -0.2016
  174SAPI  C21319755   4.915   6.347   9.522  0.3737 -0.4794 -0.1158
  174SAPI  H13R19756   4.868   6.279   9.448 -0.4000  1.6270 -1.6191
  174SAPI  H13S19757   5.004   6.293   9.560  0.4028 -0.2369  0.1579
  174SAPI  C21419758   4.959   6.471   9.452  0.0979 -0.4329 -0.1805
  174SAPI  H14R19759   5.013   6.545   9.514 -1.1722  0.8912 -0.6352
  174SAPI  C21519760   4.928   6.522   9.334  0.9462 -0.0065 -0.1104
  174SAPI  H15R19761   4.988   6.608   9.298 -0.5298  0.8948 -0.4622
  174SAPI  C21619762   4.836   6.463   9.229 -0.0390 -0.0219  0.1969
  174SAPI  H16R19763   4.827   6.533   9.143  0.1707  1.4935  1.4030
  174SAPI  H16S19764   4.734   6.456   9.273 -0.2884  0.7445 -0.2459
  174SAPI  C21719765   4.863   6.319   9.173 -0.3988 -0.5426  0.3421
  174SAPI  H17R19766   4.812   6.243   9.234  1.3825 -1.1260  1.1480
  174SAPI  H17S19767   4.971   6.299   9.192 -1.0121 -1.5922  2.7519
  174SAPI  C21819768   4.814   6.285   9.021  0.5799 -0.2047 -0.9693
  174SAPI  H18R19769   4.853   6.188   8.981  2.8277  0.6769 -0.9764
  174SAPI  H18S19770   4.838   6.374   8.960  0.1865 -0.7891 -2.0006
  174SAPI  C21919771   4.660   6.292   9.024  0.0163  0.4582 -0.1522
  174SAPI  H19R19772   4.624   6.393   9.050 -0.3431 -0.6908  4.3746
  174SAPI  H19S19773   4.623   6.220   9.101  0.4852  0.2713 -0.0993
  174SAPI  C22019774   4.603   6.254   8.884 -0.0598  0.7165  0.1418
  174SAPI  H20R19775   4.492   6.259   8.887 -0.1174 -0.0814 -0.4585
  174SAPI  H20S19776   4.633   6.150   8.855 -2.4224 -0.5443  2.0221
  174SAPI  H20T19777   4.641   6.333   8.817 -0.2973  0.6786 -0.0370
  174SAPI   C3319778   4.999   6.490  10.295  0.4783 -0.1213  0.2270
  174SAPI   H3X19779   5.042   6.446  10.388  1.6659 -2.6765 -1.4866
  174SAPI   H3Y19780   5.041   6.593  10.299  0.8238 -0.1840 -1.6405
  174SAPI   C3419781   5.067   6.422  10.177  0.1779 -0.2939 -0.4558
  174SAPI   H4X19782   5.060   6.312  10.189 -2.5861  0.0660  1.8802
  174SAPI   H4Y19783   5.176   6.440  10.190  0.1385  0.0575 -0.6002
  174SAPI   C3519784   5.017   6.471  10.036 -0.0622 -0.1519  0.3309
  174SAPI   H5X19785   4.916   6.431  10.010  1.1198 -4.0575  1.4139
  174SAPI   H5Y19786   5.080   6.419   9.961  0.6736  0.8124  0.2790
  174SAPI   C3619787   5.041   6.617  10.016 -0.0090 -0.1534  0.3260
  174SAPI   H6X19788   5.147   6.639  10.042  0.3950 -1.4707 -0.1460
  174SAPI   H6Y19789   4.978   6.676  10.086  3.2407  1.2966  2.1587
  174SAPI   C3719790   5.018   6.661   9.871 -0.4811 -0.7185  0.3228
  174SAPI   H7X19791   4.917   6.630   9.836 -1.0598  1.8221 -0.3154
  174SAPI   H7Y19792   5.097   6.602   9.818 -0.3698  0.1036 -0.4316
  174SAPI   C3819793   5.028   6.812   9.846  0.1609 -0.4712  0.1403
  174SAPI   H8X19794   5.118   6.858   9.891 -1.0901  1.5761  0.6331
  174SAPI   H8Y19795   4.939   6.850   9.902 -0.4891 -0.6138 -0.7758
  174SAPI   C3919796   5.030   6.853   9.700 -1.0490  0.6251 -0.2515
  174SAPI   H9X19797   5.123   6.817   9.651  0.0579  0.3583  1.9590
  174SAPI   H9Y19798   5.042   6.963   9.689  0.4482  0.6200  1.0139
  174SAPI  C31019799   4.901   6.817   9.624  0.0943  0.1635  0.2079
  174SAPI  H10X19800   4.807   6.832   9.681  0.9499 -1.1810  2.0235
  174SAPI  H10Y19801   4.905   6.706   9.620 -1.0289  0.1783 -1.7099
  174SAPI  C31119802   4.905   6.872   9.482  0.3261  0.5604 -0.0871
  174SAPI  H11X19803   4.983   6.816   9.428  1.8450  3.4943 -1.0132
  174SAPI  H11Y19804   4.918   6.982   9.476  1.0521  0.5489  1.1306
  174SAPI  C31219805   4.778   6.857   9.392 -0.0458 -0.9136  0.1553
  174SAPI  H12X19806   4.685   6.889   9.444 -0.8400 -0.0151 -1.8062
  174SAPI  H12Y19807   4.776   6.748   9.372  3.7650 -1.4386  2.0073
  174SAPI  C31319808   4.804   6.915   9.248  0.1108 -0.3634  0.0434
  174SAPI  H13X19809   4.915   6.916   9.235  0.1503  2.2731  0.2143
  174SAPI  H13Y19810   4.771   7.021   9.253 -1.2950 -0.8892  2.5237
  174SAPI  C31419811   4.730   6.837   9.130 -0.7277 -0.4343  1.0686
  174SAPI  H14X19812   4.621   6.840   9.154 -1.2496  2.4641 -1.3848
  174SAPI  H14Y19813   4.768   6.732   9.128  3.7602  1.1385 -0.3944
  174SAPI  C31519814   4.748   6.899   8.987 -0.0040  0.1010 -0.2711
  174SAPI  H15X19815   4.858   6.905   8.979  0.2677 -0.3450  2.6210
  174SAPI  H15Y19816   4.703   7.000   8.996  0.4745  0.1199  2.1647
  174SAPI  C31619817   4.692   6.807   8.883 -0.0255  0.1874  0.2532
  174SAPI  H16X19818   4.635   6.868   8.809  0.6693 -0.7717 -1.0839
  174SAPI  H16Y19819   4.618   6.734   8.922  0.2835 -0.6260 -0.6642
  174SAPI  C31719820   4.808   6.739   8.819 -0.0997 -0.2368  0.7776
  174SAPI  H17X19821   4.840   6.664   8.894 -1.2706 -1.6643 -0.1418
  174SAPI  H17Y19822   4.886   6.816   8.798 -1.6379  1.3129  0.5863
  174SAPI  C31819823   4.764   6.667   8.687 -0.1572 -0.1116 -0.0888
  174SAPI  H18X19824   4.853   6.637   8.628 -0.1860 -0.9483  0.2813
  174SAPI  H18Y19825   4.710   6.742   8.626 -1.1668 -0.5474  0.2585
  174SAPI  H18Z19826   4.711   6.573   8.714 -0.0338 -0.2603 -0.3648
  175SAPI   C1219827   1.063   4.870   6.334 -1.1277 -0.1095 -0.8727
  175SAPI    H219828   1.103   4.819   6.424 -1.1710  0.1692 -0.6969
  175SAPI    O219829   1.125   4.999   6.313 -0.6948  0.8955 -0.5798
  175SAPI   HO219830   1.131   5.050   6.394 -2.7335  0.5644 -0.2014
  175SAPI   C1319831   1.095   4.785   6.210 -0.4435 -0.2120 -0.6685
  175SAPI    H319832   1.061   4.680   6.216 -0.6236 -0.2934 -2.8838
  175SAPI    O319833   1.236   4.773   6.200 -0.7634 -0.0012  0.4037
  175SAPI   HO319834   1.274   4.862   6.201  1.9726 -1.1276  1.6005
  175SAPI   C1419835   1.037   4.845   6.084 -0.4259  0.3494 -0.5205
  175SAPI    H419836   1.077   4.949   6.077  0.9872 -0.1245  0.3707
  175SAPI    O419837   1.058   4.756   5.971  0.0279 -0.1735 -0.0519
  175SAPI   HO419838   1.128   4.790   5.915  0.7774 -0.3486  0.7616
  175SAPI   C1519839   0.886   4.857   6.097 -0.7735 -0.8823  0.6658
  175SAPI    H519840   0.842   4.756   6.104  1.7825 -2.0810  0.2720
  175SAPI    O519841   0.828   4.922   5.978  0.7776 -0.2351  0.6507
  175SAPI   HO519842   0.856   5.014   5.980 -0.1770  0.0834 -0.0284
  175SAPI   C1619843   0.854   4.934   6.226 -0.0745 -0.6557  0.2216
  175SAPI    H619844   0.885   5.040   6.211 -1.1771 -0.6320 -2.2674
  175SAPI    O619845   0.714   4.937   6.244  0.6873  0.2535  0.3706
  175SAPI   HO619846   0.695   4.967   6.333 -2.1824  0.3808 -0.2323
  175SAPI   C1119847   0.916   4.878   6.353  0.3586 -0.1244  0.2019
  175SAPI    H119848   0.885   4.776   6.384  1.1774 -0.6327 -0.6346
  175SAPI     P19849   0.780   4.954   6.582 -0.1384  0.0583  0.2875
  175SAPI   O1319850   0.654   4.940   6.514 -0.3189 -0.1754  0.2762
  175SAPI   O1419851   0.794   5.072   6.669 -0.3418  0.8553  0.6213
  175SAPI   O1219852   0.901   4.966   6.468 -0.7654  0.5863 -0.5108
  175SAPI   O1119853   0.819   4.827   6.669  0.3357  0.2967 -0.3195
  175SAPI    C119854   0.950   4.816   6.733 -0.4050  0.3929 -0.2769
  175SAPI    HA19855   1.028   4.882   6.688  0.2561  0.6161  1.1847
  175SAPI    HB19856   0.952   4.834   6.842  2.8756 -1.4595  0.0459
  175SAPI    C219857   1.006   4.665   6.723 -0.1569 -0.1443 -0.2170
  175SAPI    HS19858   1.002   4.649   6.613 -1.3409  0.5698 -0.2904
  175SAPI   O2119859   0.925   4.568   6.788 -0.1135 -0.3310  0.1696
  175SAPI   C2119860   0.847   4.493   6.704  0.3967  0.7792  0.1682
  175SAPI   O2219861   0.837   4.506   6.588  0.2078 -0.5636  0.6175
  175SAPI   C2219862   0.772   4.391   6.784 -0.5135  0.4402 -0.0239
  175SAPI   H2R19863   0.779   4.295   6.728 -0.8099  0.3089  0.1633
  175SAPI   H2S19864   0.811   4.378   6.887 -2.3298 -1.8276  0.4227
  175SAPI    C319865   1.155   4.649   6.772 -0.0941  0.7084  0.2380
  175SAPI    HX19866   1.209   4.715   6.701 -0.6908  0.6251 -0.2969
  175SAPI    HY19867   1.185   4.546   6.744 -3.3530 -0.0193 -0.7918
  175SAPI   O3119868   1.163   4.693   6.911  0.5624 -1.0735  0.0520
  175SAPI   C3119869   1.153   4.589   6.999  0.0977 -0.1524 -0.6058
  175SAPI   O3219870   1.126   4.473   6.969  0.4382 -0.1822  0.7242
  175SAPI   C3219871   1.199   4.631   7.133 -0.3579  0.7573 -0.3994
  175SAPI   H2X19872   1.145   4.572   7.210 -0.2191 -0.2974 -1.0951
  175SAPI   H2Y19873   1.192   4.738   7.159  2.3756  0.4605  1.6957
  175SAPI   C2319874   0.624   4.431   6.788 -0.0313 -0.0324 -0.3021
  175SAPI   H3R19875   0.560   4.341   6.788  0.2093 -0.2099  1.1306
  175SAPI   H3S19876   0.586   4.477   6.694  2.1651 -0.2454 -1.3045
  175SAPI   C2419877   0.577   4.513   6.909  0.2000 -1.3393 -0.2939
  175SAPI   H4R19878   0.599   4.456   7.002 -1.9469  0.4215  1.3520
  175SAPI   H4S19879   0.467   4.525   6.903  0.0215 -2.1055  1.1977
  175SAPI   C2519880   0.642   4.650   6.909 -0.1585  0.3194 -0.0386
  175SAPI   H5R19881   0.616   4.707   6.818 -1.1589  0.2334  0.1974
  175SAPI   C2619882   0.718   4.707   7.003  0.4607 -0.3204  0.2240
  175SAPI   H6R19883   0.761   4.806   6.986 -1.2574  0.3800 -0.1445
  175SAPI   C2719884   0.761   4.641   7.128 -0.6089  0.2180  0.1233
  175SAPI   H7R19885   0.859   4.690   7.149 -2.3671  3.6960  0.5672
  175SAPI   H7S19886   0.783   4.533   7.113 -1.5614  0.0218  0.0966
  175SAPI   C2819887   0.666   4.654   7.250  0.3650 -0.0467 -0.0904
  175SAPI   H8R19888   0.584   4.725   7.232 -1.5070 -2.0138  0.5437
  175SAPI   C2919889   0.671   4.596   7.370  0.1641  0.9500 -0.2728
  175SAPI   H9R19890   0.591   4.614   7.443  0.5089 -0.5579  0.4910
  175SAPI  C21019891   0.782   4.499   7.420  0.4308  0.8832 -0.1667
  175SAPI  H10R19892   0.831   4.436   7.342  0.5892  1.2712 -0.3817
  175SAPI  H10S19893   0.731   4.426   7.486  0.6052 -0.5330 -1.5818
  175SAPI  C21119894   0.891   4.577   7.487 -0.6361 -0.9075 -0.4122
  175SAPI  H11R19895   0.920   4.671   7.438  1.1005 -2.0799 -1.7032
  175SAPI  C21219896   0.973   4.528   7.582  0.5740  0.4449  0.3151
  175SAPI  H12R19897   1.041   4.602   7.626 -0.7295  1.3759  0.7906
  175SAPI  C21319898   0.976   4.391   7.653 -0.0472  0.0009 -0.1574
  175SAPI  H13R19899   1.080   4.353   7.655 -0.9314 -2.5324  0.0509
  175SAPI  H13S19900   0.915   4.318   7.596 -0.2041  1.4687 -1.9005
  175SAPI  C21419901   0.919   4.397   7.792  0.4329  0.4540 -0.5157
  175SAPI  H14R19902   0.810   4.389   7.783  0.4766  0.8841 -1.5435
  175SAPI  C21519903   0.986   4.427   7.907 -0.4340  0.1428 -0.6362
  175SAPI  H15R19904   0.937   4.440   8.004  0.1895  0.5604 -0.3796
  175SAPI  C21619905   1.136   4.416   7.914  0.5159 -0.1971 -0.2015
  175SAPI  H16R19906   1.189   4.474   7.835  1.1014  1.5213  1.4209
  175SAPI  H16S19907   1.169   4.310   7.903  2.0771  0.3421 -0.9191
  175SAPI  C21719908   1.201   4.477   8.041 -0.7063  1.0058 -0.5912
  175SAPI  H17R19909   1.159   4.575   8.070  0.5108  2.3131 -3.0891
  175SAPI  H17S19910   1.310   4.495   8.024  0.2400 -3.7291 -0.1452
  175SAPI  C21819911   1.192   4.378   8.163  0.7966 -0.9371  0.8412
  175SAPI  H18R19912   1.158   4.278   8.127 -2.9867  1.2596 -1.9904
  175SAPI  H18S19913   1.113   4.399   8.238 -1.1776 -3.1574 -0.5293
  175SAPI  C21919914   1.321   4.378   8.246  0.4328 -0.4407  0.1636
  175SAPI  H19R19915   1.322   4.475   8.299  0.2998 -0.4611  0.2002
  175SAPI  H19S19916   1.407   4.366   8.176  1.4915 -1.2573  1.5775
  175SAPI  C22019917   1.327   4.262   8.341 -0.4173 -0.4535  0.0706
  175SAPI  H20R19918   1.429   4.261   8.383  0.4177 -3.6163 -1.8423
  175SAPI  H20S19919   1.304   4.169   8.285  1.4428 -0.4644 -0.7140
  175SAPI  H20T19920   1.258   4.285   8.425  0.8267  1.6821  0.5457
  175SAPI   C3319921   1.349   4.591   7.139 -0.3925  0.5227  0.5798
  175SAPI   H3X19922   1.403   4.663   7.074  1.0734 -0.2192  0.9602
  175SAPI   H3Y19923   1.360   4.489   7.097 -0.8517  0.0080  1.6877
  175SAPI   C3419924   1.408   4.605   7.280 -0.4880  0.0828 -0.3414
  175SAPI   H4X19925   1.406   4.703   7.331  0.9656 -0.5171  0.8854
  175SAPI   H4Y19926   1.515   4.584   7.259 -0.6928  0.2242 -1.5991
  175SAPI   C3519927   1.344   4.506   7.379  0.1805 -1.0691 -0.0313
  175SAPI   H5X19928   1.346   4.409   7.325 -1.4277 -1.0486 -0.1509
  175SAPI   H5Y19929   1.241   4.537   7.404  0.5900 -1.0010  1.5948
  175SAPI   C3619930   1.429   4.500   7.502 -0.5796 -0.1575 -0.3354
  175SAPI   H6X19931   1.433   4.597   7.556 -1.1408  1.2063 -2.6893
  175SAPI   H6Y19932   1.534   4.489   7.466 -0.2301 -0.4152  0.7305
  175SAPI   C3719933   1.396   4.386   7.594  0.1123  0.5163 -0.0765
  175SAPI   H7X19934   1.407   4.293   7.533  0.3517  1.0916 -0.9165
  175SAPI   H7Y19935   1.290   4.386   7.630  0.3666 -1.2952  0.7409
  175SAPI   C3819936   1.486   4.381   7.719 -0.0912  0.4168  0.1645
  175SAPI   H8X19937   1.459   4.297   7.786 -0.9864  2.3241  2.2371
  175SAPI   H8Y19938   1.468   4.470   7.782  1.6403 -0.4919  1.9859
  175SAPI   C3919939   1.631   4.378   7.690 -0.3601 -0.2939 -0.1974
  175SAPI   H9X19940   1.649   4.486   7.675  1.5780 -0.1762  2.5603
  175SAPI   H9Y19941   1.637   4.315   7.599  0.3165 -0.7824  0.1806
  175SAPI  C31019942   1.710   4.327   7.806 -0.2701 -0.2123  0.3261
  175SAPI  H10X19943   1.820   4.330   7.792 -0.5572  3.1396 -1.6809
  175SAPI  H10Y19944   1.686   4.220   7.825  1.6396 -0.8448 -0.6425
  175SAPI  C31119945   1.688   4.406   7.940  0.3144  0.0969  0.3214
  175SAPI  H11X19946   1.580   4.423   7.959  0.2626  0.4693 -0.2823
  175SAPI  H11Y19947   1.729   4.507   7.920  0.7034 -0.2465 -0.6206
  175SAPI  C31219948   1.760   4.334   8.057 -0.1603 -0.2704 -0.1534
  175SAPI  H12X19949   1.866   4.328   8.022 -0.4766 -1.9434 -0.8301
  175SAPI  H12Y19950   1.717   4.232   8.068  0.8358 -0.7494 -0.6468
  175SAPI  C31319951   1.734   4.404   8.192 -0.0360 -0.1345 -0.5440
  175SAPI  H13X19952   1.630   4.378   8.218  0.0722 -1.7349 -1.6520
  175SAPI  H13Y19953   1.740   4.515   8.194 -4.2395  0.1369  1.1729
  175SAPI  C31419954   1.822   4.345   8.305  0.2675  0.2335 -0.4351
  175SAPI  H14X19955   1.927   4.328   8.274 -0.2338  0.5492 -2.4083
  175SAPI  H14Y19956   1.768   4.250   8.328 -1.0016  1.5428  2.1881
  175SAPI  C31519957   1.816   4.438   8.423  0.6389  0.1013 -0.2151
  175SAPI  H15X19958   1.715   4.428   8.468 -0.1865  0.3999 -1.9538
  175SAPI  H15Y19959   1.835   4.545   8.400  0.4186  0.2377  0.2536
  175SAPI  C31619960   1.920   4.401   8.529  0.5849  0.4872 -0.4875
  175SAPI  H16X19961   1.929   4.475   8.610  3.8617 -1.5513  1.1525
  175SAPI  H16Y19962   2.012   4.393   8.467  0.6269 -0.4759 -0.3115
  175SAPI  C31719963   1.902   4.261   8.591  0.1824 -0.8421 -0.5899
  175SAPI  H17X19964   2.002   4.213   8.604  0.8140  0.7623  0.6633
  175SAPI  H17Y19965   1.826   4.204   8.533 -0.3809  0.2845 -0.9671
  175SAPI  C31819966   1.867   4.265   8.737 -0.1975 -0.7549 -0.1528
  175SAPI  H18X19967   1.858   4.161   8.776 -0.4124 -0.7170 -0.1022
  175SAPI  H18Y19968   1.766   4.311   8.742  0.6954  1.3573 -0.8875
  175SAPI  H18Z19969   1.942   4.309   8.807 -2.4018  1.4632  0.8799
  176SAPI   C1219970   0.450   3.782   6.369 -0.5030  0.0338 -0.0843
  176SAPI    H219971   0.460   3.722   6.462  0.2871  1.2273  0.6146
  176SAPI    O219972   0.540   3.739   6.273 -0.4817 -0.2335 -0.3010
  176SAPI   HO219973   0.605   3.810   6.270  1.5568 -2.0274  0.5764
  176SAPI   C1319974   0.309   3.753   6.328 -0.0175 -0.4545  0.1346
  176SAPI    H319975   0.243   3.768   6.416 -2.0049  1.1276 -1.5592
  176SAPI    O319976   0.288   3.615   6.298  0.4142 -0.1275 -0.3563
  176SAPI   HO319977   0.363   3.592   6.243  1.5900  0.7060  0.8847
  176SAPI   C1419978   0.277   3.845   6.215  0.3088 -0.3892  0.3494
  176SAPI    H419979   0.361   3.834   6.143  0.9801  0.1151  1.0454
  176SAPI    O419980   0.148   3.813   6.154  0.7201 -0.0998  0.1601
  176SAPI   HO419981   0.101   3.896   6.149 -1.3969 -1.2098  0.9111
  176SAPI   C1519982   0.291   3.987   6.263 -0.0729  0.3990 -0.3299
  176SAPI    H519983   0.227   3.995   6.354  0.0296  2.0293 -0.3878
  176SAPI    O519984   0.232   4.083   6.178 -0.3494 -0.7441  0.0290
  176SAPI   HO519985   0.217   4.171   6.213 -0.5817 -0.7461 -0.0604
  176SAPI   C1619986   0.434   4.023   6.294  0.4420  0.1261  0.3266
  176SAPI    H619987   0.496   4.003   6.204 -0.2844  0.4737 -0.2587
  176SAPI    O619988   0.453   4.157   6.338 -1.0955 -0.3846  0.8732
  176SAPI   HO619989   0.470   4.157   6.432  1.0894  0.4521  0.5114
  176SAPI   C1119990   0.476   3.932   6.408  0.6663  0.6719 -0.0275
  176SAPI    H119991   0.411   3.948   6.496 -0.8867 -0.7606 -0.8901
  176SAPI     P19992   0.645   4.044   6.589  0.0554 -0.1792  0.3489
  176SAPI   O1319993   0.573   4.171   6.569 -0.4796  1.0896  0.7717
  176SAPI   O1419994   0.791   4.044   6.595 -0.1820  0.0613  0.8984
  176SAPI   O1219995   0.611   3.944   6.453  0.1295 -0.3014 -0.4025
  176SAPI   O1119996   0.594   3.962   6.711 -0.0850  0.0086 -0.3611
  176SAPI    C119997   0.620   3.821   6.726  0.0090  0.4664 -0.3012
  176SAPI    HA19998   0.610   3.770   6.628  0.7047  2.4565 -1.4422
  176SAPI    HB19999   0.724   3.806   6.763 -0.8703  0.2600  2.1652
  176SAPI    C220000   0.527   3.744   6.830  0.4534  0.5101  0.2971
  176SAPI    HS20001   0.569   3.643   6.852 -1.7916 -0.9354 -1.8916
  176SAPI   O2120002   0.386   3.731   6.799 -0.1410  0.2247 -0.4878
  176SAPI   C2120003   0.369   3.629   6.714  0.1103  0.3759 -0.0204
  176SAPI   O2220004   0.463   3.576   6.657 -0.1048  0.0512  0.1824
  176SAPI   C2220005   0.222   3.589   6.697  0.1905 -0.0246  0.1800
  176SAPI   H2R20006   0.154   3.675   6.712  0.7825  0.3938  0.4494
  176SAPI   H2S20007   0.225   3.551   6.592 -1.9991 -0.3748  0.2184
  176SAPI    C320008   0.530   3.829   6.963  0.5383  0.4614  0.0817
  176SAPI    HX20009   0.511   3.938   6.953  0.1382  0.3189 -0.7371
  176SAPI    HY20010   0.639   3.827   6.986  0.8817  0.8273 -1.3922
  176SAPI   O3120011   0.452   3.775   7.068 -0.0610  0.2932 -0.3166
  176SAPI   C3120012   0.340   3.846   7.090  0.6938  0.0089 -0.1081
  176SAPI   O3220013   0.297   3.936   7.019  0.3141  0.5116  0.2498
  176SAPI   C3220014   0.304   3.820   7.242 -0.7632  0.2885  1.0696
  176SAPI   H2X20015   0.402   3.837   7.291  0.1502 -0.5753 -0.4423
  176SAPI   H2Y20016   0.294   3.710   7.251 -0.3461  0.0015 -1.5171
  176SAPI   C2320017   0.198   3.468   6.781  0.0648  0.1230  0.1471
  176SAPI   H3R20018   0.281   3.394   6.774 -0.9321 -1.2092  1.8701
  176SAPI   H3S20019   0.100   3.422   6.757  0.6091 -0.0428 -1.8133
  176SAPI   C2420020   0.201   3.491   6.935 -0.2327 -0.3457  0.4885
  176SAPI   H4R20021   0.125   3.564   6.969  1.2265  0.4038  2.2298
  176SAPI   H4S20022   0.299   3.541   6.956  0.2999  0.5912 -3.6259
  176SAPI   C2520023   0.175   3.359   7.003 -0.2092 -0.1953 -0.5875
  176SAPI   H5R20024   0.093   3.303   6.955 -3.2380  4.0179 -0.5957
  176SAPI   C2620025   0.247   3.308   7.106  0.8374  0.0183  0.7295
  176SAPI   H6R20026   0.208   3.223   7.163 -0.9170 -0.7450 -1.5408
  176SAPI   C2720027   0.366   3.384   7.158 -1.0795  0.2127  0.2218
  176SAPI   H7R20028   0.349   3.492   7.176 -2.6406 -0.1862  1.2188
  176SAPI   H7S20029   0.441   3.383   7.076  0.2106  2.5573  1.3103
  176SAPI   C2820030   0.428   3.308   7.274 -1.0207  0.5642  0.4753
  176SAPI   H8R20031   0.492   3.230   7.231 -3.0642 -0.7815 -0.2193
  176SAPI   C2920032   0.400   3.329   7.405 -0.1284  0.1841 -0.0538
  176SAPI   H9R20033   0.449   3.274   7.487  1.1557 -0.8029 -1.4656
  176SAPI  C21020034   0.311   3.441   7.443  0.1113  0.3340  0.0023
  176SAPI  H10R20035   0.216   3.448   7.385  0.8733 -2.5520 -1.6883
  176SAPI  H10S20036   0.365   3.537   7.429 -2.2946  1.5999 -1.0668
  176SAPI  C21120037   0.279   3.438   7.591 -0.1814 -0.1641 -0.1779
  176SAPI  H11R20038   0.190   3.378   7.619  1.0112 -1.2922  1.3131
  176SAPI  C21220039   0.340   3.503   7.694 -0.7158 -0.0703 -0.1613
  176SAPI  H12R20040   0.304   3.496   7.798  2.5619 -1.0839  0.9565
  176SAPI  C21320041   0.464   3.588   7.670 -0.3861  0.7055  0.1452
  176SAPI  H13R20042   0.495   3.644   7.761 -0.9530 -1.0091  1.4171
  176SAPI  H13S20043   0.450   3.659   7.586  2.2384  0.9610 -0.1030
  176SAPI  C21420044   0.590   3.510   7.632 -0.9633 -0.8290 -0.2660
  176SAPI  H14R20045   0.595   3.475   7.528 -1.3571 -1.5565 -0.0355
  176SAPI  C21520046   0.692   3.471   7.712 -0.4523  0.5946  0.3278
  176SAPI  H15R20047   0.770   3.404   7.674 -0.3505  2.0532 -2.1855
  176SAPI  C21620048   0.700   3.502   7.864  0.2063 -0.0205  0.2060
  176SAPI  H16R20049   0.610   3.560   7.895 -0.5492 -2.5933  3.1640
  176SAPI  H16S20050   0.786   3.568   7.889  0.1530  0.3208 -0.5188
  176SAPI  C21720051   0.693   3.375   7.950  0.5945 -0.4772 -0.1376
  176SAPI  H17R20052   0.768   3.309   7.902  1.6843  1.5773 -1.3446
  176SAPI  H17S20053   0.594   3.327   7.937  0.3626 -0.5123  1.6835
  176SAPI  C21820054   0.717   3.388   8.094 -0.2919 -0.1483  0.8024
  176SAPI  H18R20055   0.797   3.464   8.107  0.1559 -0.1028 -1.9523
  176SAPI  H18S20056   0.750   3.294   8.143 -1.9768 -0.9669  0.3679
  176SAPI  C21920057   0.597   3.448   8.171  0.4284 -0.5428 -0.2506
  176SAPI  H19R20058   0.524   3.378   8.216 -0.6740  0.1123 -0.9914
  176SAPI  H19S20059   0.541   3.506   8.094  1.9901 -1.2784 -1.9797
  176SAPI  C22020060   0.642   3.546   8.283 -0.0164  0.7758 -0.4487
  176SAPI  H20R20061   0.671   3.481   8.368  1.7325 -0.8265 -2.2174
  176SAPI  H20S20062   0.558   3.610   8.315 -1.3209 -1.1242 -0.0092
  176SAPI  H20T20063   0.732   3.600   8.246  1.1222 -0.4699  0.4692
  176SAPI   C3320064   0.196   3.920   7.284  0.0589 -0.5569  0.7184
  176SAPI   H3X20065   0.100   3.912   7.228  0.0447  0.1152  0.6487
  176SAPI   H3Y20066   0.223   4.025   7.259  1.5257 -0.7910  1.2848
  176SAPI   C3420067   0.155   3.903   7.428 -0.5452 -0.5338 -0.6122
  176SAPI   H4X20068   0.120   3.799   7.441  1.5281 -1.2542 -0.5248
  176SAPI   H4Y20069   0.078   3.980   7.450 -0.5633 -0.5653 -0.5665
  176SAPI   C3520070   0.263   3.925   7.537 -0.0062 -0.0089  0.0324
  176SAPI   H5X20071   0.288   4.033   7.534 -0.4236  0.1166  0.9732
  176SAPI   H5Y20072   0.351   3.862   7.514 -0.6964 -0.6826 -0.7995
  176SAPI   C3620073   0.212   3.890   7.680  0.4239 -0.0467 -0.4561
  176SAPI   H6X20074   0.189   3.782   7.672  1.4280 -0.2506 -0.6071
  176SAPI   H6Y20075   0.122   3.951   7.701  3.8725  4.3040  2.6449
  176SAPI   C3720076   0.304   3.928   7.799  0.5151 -0.5101  0.2010
  176SAPI   H7X20077   0.345   4.030   7.783  2.4515 -0.9574  2.0589
  176SAPI   H7Y20078   0.395   3.865   7.793 -0.7115 -2.2249 -0.8286
  176SAPI   C3820079   0.227   3.933   7.931  0.8466 -0.6539  0.7906
  176SAPI   H8X20080   0.198   3.827   7.946 -1.4317 -0.6476 -3.0829
  176SAPI   H8Y20081   0.136   3.996   7.921 -0.1385 -2.1799 -0.0513
  176SAPI   C3920082   0.309   3.974   8.052  0.2457  0.4788 -0.3876
  176SAPI   H9X20083   0.330   4.083   8.054  1.8163  0.1697  1.0363
  176SAPI   H9Y20084   0.407   3.922   8.051 -0.5507 -1.0383 -0.1493
  176SAPI  C31020085   0.250   3.939   8.189 -0.8802 -0.4281 -0.5533
  176SAPI  H10X20086   0.332   3.937   8.265 -0.6405  1.0806 -0.7609
  176SAPI  H10Y20087   0.209   3.835   8.189  1.6006 -1.4727  2.1532
  176SAPI  C31120088   0.138   4.033   8.228 -0.1873 -0.4936  0.1392
  176SAPI  H11X20089   0.053   4.009   8.161  1.2626  0.0835 -1.9630
  176SAPI  H11Y20090   0.182   4.133   8.207 -0.3865 -1.1442 -3.6317
  176SAPI  C31220091   0.095   4.028   8.376  0.6099 -0.3593 -0.1981
  176SAPI  H12X20092   0.026   4.111   8.403  0.7582 -0.7995  1.5920
  176SAPI  H12Y20093   0.187   4.027   8.439  0.4071  0.5328  0.1215
  176SAPI  C31320094   0.003   3.903   8.400 -1.0087  0.2469  0.1350
  176SAPI  H13X20095   0.046   3.806   8.367 -0.9772  0.7161 -1.2475
  176SAPI  H13Y20096  -0.088   3.925   8.341 -0.3608  2.6460 -0.0139
  176SAPI  C31420097  -0.020   3.892   8.559 -0.6461 -0.2263 -0.4087
  176SAPI  H14X20098   0.081   3.915   8.600 -1.4277  3.3624 -0.3016
  176SAPI  H14Y20099  -0.053   3.789   8.583  1.0258 -0.6185  0.2854
  176SAPI  C31520100  -0.126   3.989   8.625 -0.4290 -0.0904  1.0203
  176SAPI  H15X20101  -0.231   3.975   8.591  0.2885 -2.2616 -0.4354
  176SAPI  H15Y20102  -0.106   4.090   8.583  1.6950 -0.3098  1.4436
  176SAPI  C31620103  -0.122   3.991   8.780  0.3187  1.2709 -0.3365
  176SAPI  H16X20104  -0.152   3.890   8.813 -2.1180  1.5821 -1.5234
  176SAPI  H16Y20105  -0.199   4.065   8.810 -0.6589  0.3354 -0.4945
  176SAPI  C31720106   0.007   4.045   8.846  0.2684 -0.2741  0.1482
  176SAPI  H17X20107   0.012   4.154   8.826  1.1116 -0.4838 -0.8771
  176SAPI  H17Y20108   0.094   3.995   8.797 -0.4601 -1.7659  0.3582
  176SAPI  C31820109   0.024   4.037   9.000 -0.3450  0.2424  1.0963
  176SAPI  H18X20110  -0.010   3.940   9.043  1.3943 -1.0812 -0.4326
  176SAPI  H18Y20111  -0.018   4.130   9.044  1.9196  1.1831  1.3454
  176SAPI  H18Z20112   0.133   4.048   9.019 -0.2999  0.7436  0.5898
  177SLPC     N20113   5.976   0.422  11.054 -0.5344 -0.6762  0.1723
  177SLPC   C1320114   5.906   0.301  11.100 -0.0092 -0.7291 -0.1772
  177SLPC  H13A20115   5.800   0.313  11.118  0.7385  2.6361  2.3610
  177SLPC  H13B20116   5.921   0.239  11.012 -0.7557  2.7701 -2.9065
  177SLPC  H13C20117   5.958   0.256  11.183  0.9096  4.4128  2.2457
  177SLPC   C1420118   6.005   0.514  11.172 -0.5424 -0.4914  0.3036
  177SLPC  H14A20119   6.093   0.479  11.224 -1.1375  1.9237  3.0230
  177SLPC  H14B20120   6.009   0.619  11.149 -5.0350 -0.3509 -0.1554
  177SLPC  H14C20121   5.931   0.501  11.250 -0.7015  0.6266  0.3337
  177SLPC   C1520122   5.889   0.502  10.951  0.0954 -0.4122  0.3538
  177SLPC  H15A20123   5.935   0.590  10.910 -0.5531 -1.1456 -2.0403
  177SLPC  H15B20124   5.868   0.438  10.866 -1.8577  1.8073 -0.8655
  177SLPC  H15C20125   5.793   0.528  10.993  0.7014 -0.7375  1.9611
  177SLPC   C1220126   6.108   0.388  10.983 -0.0102  0.5478  0.3925
  177SLPC  H12A20127   6.173   0.329  11.046 -0.2231  0.5331  0.5943
  177SLPC  H12B20128   6.158   0.480  10.957  1.0264 -0.5591 -1.7540
  177SLPC   C1120129   6.110   0.306  10.845  1.1038 -0.1441 -0.6337
  177SLPC  H11A20130   6.212   0.300  10.801  0.6128 -1.4568 -1.6092
  177SLPC  H11B20131   6.042   0.358  10.775  2.1014  1.0058 -0.7742
  177SLPC     P20132   6.142   0.066  10.934 -0.5467 -0.3313 -0.0992
  177SLPC   O1320133   6.228   0.126  11.037 -0.4466 -0.0292 -0.1552
  177SLPC   O1420134   6.045  -0.033  10.969  0.7580 -0.3557 -0.5421
  177SLPC   O1220135   6.058   0.177  10.859  0.0931  0.7933 -0.0177
  177SLPC   O1120136   6.222  -0.007  10.822 -0.9298  0.1690  0.7124
  177SLPC    C120137   6.346   0.032  10.763 -0.1586  0.6529  0.3501
  177SLPC    HA20138   6.370   0.138  10.790  2.9339  0.3128 -0.8430
  177SLPC    HB20139   6.422  -0.039  10.803 -0.0360  1.7437  2.1167
  177SLPC    C220140   6.322   0.025  10.615  0.2247 -0.4696  0.7612
  177SLPC    HS20141   6.282  -0.079  10.610 -1.1817  0.1184 -0.7660
  177SLPC   O2120142   6.445   0.047  10.542 -0.2874  0.1933 -0.2756
  177SLPC   C2120143   6.533  -0.053  10.551  0.1578  0.1327  0.6774
  177SLPC   O2220144   6.511  -0.162  10.594 -0.3806  0.0244  0.2670
  177SLPC   C2220145   6.666  -0.003  10.511  0.0747 -0.2542  0.1442
  177SLPC   H2R20146   6.668   0.085  10.443 -1.3159 -0.3917 -0.0887
  177SLPC   H2S20147   6.714   0.053  10.594  0.3638  1.4020 -1.1090
  177SLPC    C320148   6.215   0.127  10.574  0.1576  0.0323 -0.1484
  177SLPC    HX20149   6.272   0.221  10.592 -2.0187  1.0987  1.2898
  177SLPC    HY20150   6.131   0.116  10.646  0.3172  0.2713  0.0764
  177SLPC   O3120151   6.170   0.117  10.439  0.2888 -0.6208  0.0692
  177SLPC   C3120152   6.046   0.187  10.437  0.6135 -0.0947 -0.3131
  177SLPC   O3220153   5.998   0.249  10.528  0.5264  0.1416  0.5379
  177SLPC   C3220154   5.990   0.187  10.296 -0.2770 -0.4037 -0.4599
  177SLPC   H2X20155   5.937   0.092  10.275  0.1820 -1.4169  2.6889
  177SLPC   H2Y20156   6.085   0.185  10.239  0.8146  0.6024  1.2754
  177SLPC   C2320157   6.762  -0.110  10.456 -0.3392  0.2383  0.2190
  177SLPC   H3R20158   6.759  -0.199  10.522  4.0236  0.0681  0.3544
  177SLPC   H3S20159   6.862  -0.061  10.463 -0.7023  0.8243  1.4820
  177SLPC   C2420160   6.741  -0.153  10.312 -0.1309  0.3771  0.5260
  177SLPC   H4R20161   6.755  -0.071  10.239  0.7558  0.7245  1.0713
  177SLPC   H4S20162   6.640  -0.197  10.303  0.8279 -1.5700 -1.2365
  177SLPC   C2520163   6.831  -0.274  10.273  0.3610 -0.8566 -0.6624
  177SLPC   H5R20164   6.856  -0.332  10.365  0.1177 -0.7638 -0.5344
  177SLPC   H5S20165   6.930  -0.233  10.244 -0.8712  2.2248 -0.7216
  177SLPC   C2620166   6.764  -0.374  10.173  0.0533 -0.6437  0.5548
  177SLPC   H6R20167   6.672  -0.408  10.224 -1.4273  1.2996 -0.7394
  177SLPC   H6S20168   6.829  -0.462  10.154  1.5618  0.6292 -0.4044
  177SLPC   C2720169   6.727  -0.307  10.041 -0.5077 -0.3671 -0.4661
  177SLPC   H7R20170   6.815  -0.277   9.980 -0.0217 -0.0297  0.3949
  177SLPC   H7S20171   6.668  -0.219  10.074  2.3582  1.3826  0.2390
  177SLPC   C2820172   6.625  -0.386   9.956  0.4475 -0.3183 -0.1720
  177SLPC   H8R20173   6.590  -0.313   9.879  2.0093  1.7665  1.0165
  177SLPC   H8S20174   6.541  -0.407  10.025  0.2452  1.3828  0.1337
  177SLPC   C2920175   6.702  -0.506   9.896  0.3872 -0.4102  0.3249
  177SLPC   H9R20176   6.696  -0.600   9.953  0.7003  0.2022  1.3822
  177SLPC  C21020177   6.757  -0.524   9.772 -0.0944  0.5123  0.2041
  177SLPC  H10R20178   6.819  -0.611   9.750  2.4777  2.3884 -0.1742
  177SLPC  C21120179   6.768  -0.422   9.671 -0.1899 -0.3965  0.0790
  177SLPC  H11R20180   6.768  -0.462   9.567  0.4843  1.5774 -0.6964
  177SLPC  H11S20181   6.669  -0.375   9.688 -0.5452 -1.2950  0.5528
  177SLPC  C21220182   6.875  -0.315   9.685 -0.7717  0.5043 -0.4546
  177SLPC  H12R20183   6.906  -0.300   9.789  1.2471 -1.8459 -0.6719
  177SLPC  C21320184   6.902  -0.227   9.590 -0.0646  0.0029 -0.2522
  177SLPC  H13R20185   6.972  -0.145   9.610 -0.5678  0.1174  1.1087
  177SLPC  C21420186   6.833  -0.232   9.454 -0.3389 -0.0694 -0.1582
  177SLPC  H14R20187   6.733  -0.184   9.457 -0.1595  0.5416 -2.6717
  177SLPC  H14S20188   6.800  -0.336   9.430  2.2586 -1.4430  1.8795
  177SLPC  C21520189   6.913  -0.179   9.342  0.5956 -0.4290 -0.5624
  177SLPC  H15R20190   6.995  -0.253   9.325  1.3979 -0.2792  2.3462
  177SLPC  H15S20191   6.971  -0.091   9.377 -0.9423 -0.1507  1.3508
  177SLPC  C21620192   6.842  -0.146   9.205  0.0459  0.3076  0.0090
  177SLPC  H16R20193   6.808  -0.042   9.192 -1.9772 -0.4860 -1.2551
  177SLPC  H16S20194   6.752  -0.207   9.184 -0.0906  0.4312  0.2376
  177SLPC  C21720195   6.929  -0.161   9.090  0.9402  0.6384 -0.5616
  177SLPC  H17R20196   6.964  -0.266   9.090 -1.2509 -0.1920  4.2107
  177SLPC  H17S20197   7.017  -0.095   9.104  2.5862 -1.5954 -0.0692
  177SLPC  C21820198   6.866  -0.142   8.948 -0.3002  0.1915 -0.2738
  177SLPC  H18R20199   6.816  -0.235   8.912  0.1354  0.0303 -0.4612
  177SLPC  H18S20200   6.942  -0.128   8.869 -0.1173  1.7712  0.1692
  177SLPC  H18T20201   6.797  -0.056   8.941  0.0089  0.6910  2.2560
  177SLPC   C3320202   5.898   0.308  10.267 -0.5150  0.5936 -0.7784
  177SLPC   H3X20203   5.960   0.399  10.248  1.1854 -0.5823 -1.0183
  177SLPC   H3Y20204   5.828   0.338  10.348 -1.0931 -1.7799 -0.3749
  177SLPC   C3420205   5.807   0.279  10.146  0.6292 -0.4443  0.2950
  177SLPC   H4X20206   5.726   0.352  10.166  0.7330  0.5723 -2.8793
  177SLPC   H4Y20207   5.754   0.181  10.152 -1.6251  0.6726 -0.9119
  177SLPC   C3520208   5.865   0.305  10.007  0.2377  0.3757 -0.5364
  177SLPC   H5X20209   5.937   0.225   9.978 -0.1821  0.2748 -1.3267
  177SLPC   H5Y20210   5.906   0.407   9.995 -0.8774  0.6556 -2.1297
  177SLPC   C3620211   5.757   0.294   9.896  0.1002 -0.2099  0.0092
  177SLPC   H6X20212   5.678   0.371   9.909  0.5566  0.6255 -1.9601
  177SLPC   H6Y20213   5.710   0.195   9.913  0.5058 -0.5866 -1.0124
  177SLPC   C3720214   5.813   0.307   9.754  0.3902 -0.4329 -0.2542
  177SLPC   H7X20215   5.915   0.263   9.757  0.3023 -0.8288 -2.6294
  177SLPC   H7Y20216   5.839   0.414   9.741 -0.9654 -0.0654 -0.0546
  177SLPC   C3820217   5.717   0.247   9.655  0.0228  0.1075 -0.1034
  177SLPC   H8X20218   5.620   0.300   9.653 -1.0198 -1.7164  0.3607
  177SLPC   H8Y20219   5.697   0.139   9.675 -0.6148  0.2852  0.2348
  177SLPC   C3920220   5.768   0.251   9.507 -0.0052  0.8050 -0.5103
  177SLPC   H9X20221   5.857   0.185   9.511 -1.9230 -1.9244 -1.5471
  177SLPC   H9Y20222   5.810   0.353   9.490  0.6687  0.7609  0.8334
  177SLPC  C31020223   5.673   0.181   9.401 -0.1620  0.3725  0.1235
  177SLPC  H10X20224   5.572   0.225   9.415  0.0093  1.1151 -0.9869
  177SLPC  H10Y20225   5.672   0.072   9.424  3.4020  0.1044 -0.7618
  177SLPC  C31120226   5.725   0.207   9.257  0.4287  0.0349  0.3999
  177SLPC  H11X20227   5.829   0.168   9.247  0.7984  0.9530  0.5862
  177SLPC  H11Y20228   5.723   0.317   9.245 -2.4098 -0.1392 -1.1629
  177SLPC  C31220229   5.617   0.167   9.149  0.1720 -0.0775  0.9496
  177SLPC  H12X20230   5.522   0.218   9.174 -0.1511 -0.2875  0.1857
  177SLPC  H12Y20231   5.602   0.057   9.144  2.2141 -0.3086 -0.8071
  177SLPC  C31320232   5.660   0.195   9.001  0.1078  0.8958 -0.5267
  177SLPC  H13X20233   5.765   0.167   8.980 -0.7060 -2.7784 -0.0144
  177SLPC  H13Y20234   5.654   0.306   8.997 -0.7548  0.8836  0.1961
  177SLPC  C31420235   5.560   0.145   8.888  0.6271 -0.3540  0.4055
  177SLPC  H14X20236   5.467   0.206   8.889 -0.5703 -2.1004 -0.8301
  177SLPC  H14Y20237   5.543   0.037   8.906  0.3801 -0.2554  0.7779
  177SLPC  C31520238   5.634   0.183   8.752  0.7950 -0.2273  0.1916
  177SLPC  H15X20239   5.685   0.282   8.761 -0.0652  0.0609  2.1682
  177SLPC  H15Y20240   5.561   0.194   8.669 -0.5121  0.2726  1.3908
  177SLPC  C31620241   5.745   0.089   8.704  0.4516 -1.0986 -1.1357
  177SLPC  H16X20242   5.688  -0.007   8.705 -0.4950 -0.5555 -2.0147
  177SLPC  H16Y20243   5.820   0.109   8.783 -1.7362  3.3272  0.0262
  177SLPC  C31720244   5.796   0.122   8.567 -0.3006 -0.6481 -0.2003
  177SLPC  H17X20245   5.814   0.231   8.558 -3.2214  0.0744  1.9257
  177SLPC  H17Y20246   5.720   0.102   8.489 -0.1415 -0.3581 -0.4298
  177SLPC  C31820247   5.930   0.050   8.533  0.0081  0.2051 -0.1632
  177SLPC  H18X20248   5.903  -0.052   8.498 -2.3967  0.8622 -0.2937
  177SLPC  H18Y20249   6.006   0.050   8.614 -0.1439 -1.5340  0.0046
  177SLPC  H18Z20250   5.982   0.095   8.446 -0.6105  0.5039 -0.3841
  178SLPC     N20251   2.161   2.061  10.763 -0.3199  0.4361  0.4060
  178SLPC   C1320252   2.198   2.052  10.901  0.3935  0.0392 -0.7192
  178SLPC  H13A20253   2.128   1.989  10.955  1.4342 -1.0864 -0.6686
  178SLPC  H13B20254   2.290   1.996  10.901 -0.0342 -0.6945  0.6753
  178SLPC  H13C20255   2.207   2.153  10.940 -4.3540  0.8638 -1.4396
  178SLPC   C1420256   2.149   1.918  10.705  0.2966 -0.5237 -0.1940
  178SLPC  H14A20257   2.122   1.926  10.600  1.3006  1.4467 -0.3131
  178SLPC  H14B20258   2.245   1.869  10.711  0.2972 -0.6787 -1.2333
  178SLPC  H14C20259   2.075   1.873  10.770  0.1379 -0.2496 -0.1859
  178SLPC   C1520260   2.259   2.149  10.688 -0.2879  0.1168 -0.5239
  178SLPC  H15A20261   2.271   2.248  10.731  2.7363 -1.2660  2.0655
  178SLPC  H15B20262   2.362   2.115  10.686  0.3253  1.9567 -2.7334
  178SLPC  H15C20263   2.229   2.148  10.584 -0.4967  1.1152 -0.4764
  178SLPC   C1220264   2.026   2.134  10.754  0.0500  0.7260 -0.2071
  178SLPC  H12A20265   1.941   2.079  10.790  0.4909 -0.3641 -0.8172
  178SLPC  H12B20266   1.997   2.141  10.650 -1.9111 -0.2667  0.2556
  178SLPC   C1120267   2.009   2.275  10.819 -0.5629 -0.0875  0.1316
  178SLPC  H11A20268   1.924   2.338  10.786  0.0149  0.8400  0.3601
  178SLPC  H11B20269   2.099   2.337  10.797 -1.1163  0.6334 -0.1161
  178SLPC     P20270   1.889   2.211  11.041 -0.2512 -0.4705  0.2368
  178SLPC   O1320271   1.863   2.068  11.013  0.3150 -0.2319  0.2425
  178SLPC   O1420272   1.911   2.259  11.176  0.2353 -0.6067 -0.3374
  178SLPC   O1220273   2.008   2.264  10.962 -1.0745  0.1857  0.1035
  178SLPC   O1120274   1.764   2.289  10.986  0.5304 -0.4855 -0.0254
  178SLPC    C120275   1.662   2.241  10.912  0.3205 -0.7618  1.1333
  178SLPC    HA20276   1.642   2.133  10.930 -0.5551 -0.3564  2.6472
  178SLPC    HB20277   1.573   2.294  10.951 -0.0581  0.5010 -1.3354
  178SLPC    C220278   1.665   2.255  10.759  0.2059 -0.3717  0.0034
  178SLPC    HS20279   1.757   2.207  10.721  0.5905  0.9510 -0.7609
  178SLPC   O2120280   1.661   2.397  10.730  0.4898  0.6427 -0.2652
  178SLPC   C2120281   1.736   2.433  10.620 -0.2226 -0.2411 -0.4595
  178SLPC   O2220282   1.818   2.355  10.569  0.1064  0.0789  1.3797
  178SLPC   C2220283   1.712   2.576  10.586  0.8359 -0.1107  0.5681
  178SLPC   H2R20284   1.605   2.597  10.563  1.1959 -2.1520 -3.3779
  178SLPC   H2S20285   1.738   2.634  10.677 -1.0019  2.8487 -0.7204
  178SLPC    C320286   1.536   2.204  10.689 -0.0872 -0.1853 -0.0894
  178SLPC    HX20287   1.449   2.260  10.728  1.1310  2.2245 -0.7387
  178SLPC    HY20288   1.500   2.103  10.716  1.6515 -1.5489 -2.5974
  178SLPC   O3120289   1.536   2.221  10.550  0.1472  0.4642  0.3301
  178SLPC   C3120290   1.606   2.135  10.474 -0.1638  0.2568  0.3082
  178SLPC   O3220291   1.651   2.031  10.514  0.6032 -0.0795 -0.3990
  178SLPC   C3220292   1.606   2.194  10.335 -0.0672  0.6539  0.3738
  178SLPC   H2X20293   1.704   2.161  10.297 -0.6449  0.6901 -1.1829
  178SLPC   H2Y20294   1.587   2.304  10.337  1.4649  0.9557 -0.9263
  178SLPC   C2320295   1.794   2.624  10.463 -0.5233 -0.0189  0.5234
  178SLPC   H3R20296   1.903   2.602  10.471 -0.2576  1.3542  0.8595
  178SLPC   H3S20297   1.777   2.732  10.446  2.2253  0.0648 -2.2366
  178SLPC   C2420298   1.759   2.542  10.339  0.1841  0.9322  0.6518
  178SLPC   H4R20299   1.648   2.533  10.332  0.1680  0.2437  1.6914
  178SLPC   H4S20300   1.806   2.443  10.352  1.3428  1.3785 -0.1092
  178SLPC   C2520301   1.799   2.611  10.209 -0.1167 -0.1947 -1.0596
  178SLPC   H5R20302   1.908   2.631  10.200  0.4341 -1.1268  2.6008
  178SLPC   H5S20303   1.755   2.712  10.197  0.7162  0.3449  0.3315
  178SLPC   C2620304   1.760   2.529  10.081 -0.3798  0.1739  0.3384
  178SLPC   H6R20305   1.650   2.510  10.082 -0.1897 -0.9184  0.3301
  178SLPC   H6S20306   1.816   2.434  10.085 -1.3491 -0.3571  1.8865
  178SLPC   C2720307   1.785   2.607   9.947 -0.2070  0.0269 -0.6577
  178SLPC   H7R20308   1.884   2.657   9.952 -0.5472  0.6079  0.4639
  178SLPC   H7S20309   1.704   2.682   9.934  1.7829  1.6443 -4.6669
  178SLPC   C2820310   1.775   2.507   9.831  0.2276  0.3196  0.3225
  178SLPC   H8R20311   1.735   2.568   9.747 -0.9781 -1.6460 -0.5753
  178SLPC   H8S20312   1.693   2.436   9.855  0.7648 -0.0988  0.9152
  178SLPC   C2920313   1.896   2.437   9.779  0.1503 -0.2684  0.1324
  178SLPC   H9R20314   1.984   2.460   9.840  1.1375 -2.0437 -0.5830
  178SLPC  C21020315   1.899   2.350   9.684  0.5937 -0.3907  0.1667
  178SLPC  H10R20316   2.002   2.326   9.654  0.8516 -1.2273  1.6668
  178SLPC  C21120317   1.779   2.299   9.611  0.3914  0.8455  0.3477
  178SLPC  H11R20318   1.758   2.360   9.520  0.4045  1.3498  0.6800
  178SLPC  H11S20319   1.683   2.300   9.665 -0.1768 -0.3205 -0.6212
  178SLPC  C21220320   1.802   2.150   9.569 -0.1630 -0.2476  0.3744
  178SLPC  H12R20321   1.838   2.089   9.654 -1.4139 -0.6536  0.6198
  178SLPC  C21320322   1.796   2.103   9.440 -0.2371 -1.1015 -0.3687
  178SLPC  H13R20323   1.806   1.994   9.431  4.2152 -0.7670 -0.4892
  178SLPC  C21420324   1.765   2.180   9.317 -0.2080  0.2098 -0.4812
  178SLPC  H14R20325   1.711   2.272   9.346 -0.5222 -0.7770  2.1678
  178SLPC  H14S20326   1.696   2.133   9.244  2.6062  0.3930 -3.3951
  178SLPC  C21520327   1.899   2.219   9.248  0.2206  1.1116  0.4730
  178SLPC  H15R20328   1.975   2.250   9.323  0.7502  0.6337  0.1410
  178SLPC  H15S20329   1.895   2.306   9.180 -0.5550 -0.4489 -1.5270
  178SLPC  C21620330   1.971   2.102   9.178  0.1083 -0.1682 -0.0447
  178SLPC  H16R20331   1.916   2.018   9.226 -0.0932  0.5291  0.9792
  178SLPC  H16S20332   2.079   2.094   9.203  0.0425  1.2939  0.7691
  178SLPC  C21720333   1.943   2.095   9.027  0.0678  0.0867 -0.2212
  178SLPC  H17R20334   1.833   2.108   9.024  0.2859  2.4934  0.4836
  178SLPC  H17S20335   1.958   1.992   8.989 -0.4713  0.4382 -1.4282
  178SLPC  C21820336   2.013   2.199   8.950  0.1366  0.5243 -0.3347
  178SLPC  H18R20337   2.002   2.175   8.842  0.3697 -0.6397 -0.1104
  178SLPC  H18S20338   2.116   2.178   8.986 -0.0048  1.2734  0.5107
  178SLPC  H18T20339   1.972   2.300   8.971 -0.2760  0.0265  1.2650
  178SLPC   C3320340   1.508   2.125  10.243  0.1417  0.6483  0.2700
  178SLPC   H3X20341   1.414   2.172  10.277 -0.2998 -0.2344  0.2662
  178SLPC   H3Y20342   1.496   2.017  10.267 -2.0873  0.9182  0.4087
  178SLPC   C3420343   1.533   2.153  10.092 -0.3631  0.0119 -0.8999
  178SLPC   H4X20344   1.627   2.099  10.068  0.5642  1.2795 -0.1006
  178SLPC   H4Y20345   1.541   2.263  10.081  0.3104  0.3485  2.6276
  178SLPC   C3520346   1.421   2.109   9.994  0.5826 -0.7532 -0.1888
  178SLPC   H5X20347   1.321   2.150  10.016  1.0262 -0.1130  0.6764
  178SLPC   H5Y20348   1.408   1.999  10.004  0.1503 -0.5725  1.4330
  178SLPC   C3620349   1.461   2.163   9.857 -0.3313 -0.6607 -0.6754
  178SLPC   H6X20350   1.564   2.127   9.834 -0.0844  0.2777 -1.0572
  178SLPC   H6Y20351   1.466   2.273   9.862 -3.5708 -0.5277  0.2479
  178SLPC   C3720352   1.371   2.123   9.740  0.2167 -0.0154 -0.4170
  178SLPC   H7X20353   1.289   2.198   9.743  0.2566  0.0183 -0.1948
  178SLPC   H7Y20354   1.319   2.026   9.752  1.6552 -1.0519 -2.3162
  178SLPC   C3820355   1.440   2.137   9.604  0.0624  1.0577 -0.4225
  178SLPC   H8X20356   1.531   2.073   9.601  0.1717  1.1702  0.3788
  178SLPC   H8Y20357   1.476   2.241   9.589  2.7024  0.3609  0.7857
  178SLPC   C3920358   1.348   2.121   9.485  0.3589 -0.0666 -0.0968
  178SLPC   H9X20359   1.261   2.189   9.492  1.7606  1.6875  0.9685
  178SLPC   H9Y20360   1.287   2.029   9.491  0.3667 -0.0194  0.8096
  178SLPC  C31020361   1.415   2.134   9.352  0.7299 -0.5880 -0.3802
  178SLPC  H10X20362   1.495   2.057   9.348  0.9484 -0.2674 -2.9606
  178SLPC  H10Y20363   1.452   2.238   9.344 -0.3345 -0.3397 -2.5291
  178SLPC  C31120364   1.319   2.115   9.232 -0.7988 -0.0267 -0.3937
  178SLPC  H11X20365   1.225   2.169   9.253 -0.7218  0.9541 -2.4838
  178SLPC  H11Y20366   1.296   2.006   9.230  2.0074 -0.6477 -1.8661
  178SLPC  C31220367   1.380   2.163   9.097  0.2919  0.2472 -0.1647
  178SLPC  H12X20368   1.485   2.129   9.084  0.5247  1.2233 -0.9143
  178SLPC  H12Y20369   1.381   2.274   9.105 -1.2213  0.3201 -0.7515
  178SLPC  C31320370   1.308   2.118   8.968 -0.0253 -0.1811 -0.1081
  178SLPC  H13X20371   1.198   2.133   8.968 -0.3159 -2.0602 -1.0541
  178SLPC  H13Y20372   1.323   2.008   8.955  0.6263 -0.1082  0.0318
  178SLPC  C31420373   1.366   2.189   8.846  0.2049  0.4005 -0.3767
  178SLPC  H14X20374   1.464   2.141   8.826  0.0298 -0.1174  0.0030
  178SLPC  H14Y20375   1.383   2.294   8.877  0.7687  0.7330 -1.7789
  178SLPC  C31520376   1.267   2.177   8.731  0.1062 -0.6744  0.6182
  178SLPC  H15X20377   1.317   2.202   8.635 -1.3196  0.2720  0.0930
  178SLPC  H15Y20378   1.226   2.075   8.712  0.8092 -1.4809  3.2302
  178SLPC  C31620379   1.145   2.274   8.745 -0.6354 -0.1585  0.5033
  178SLPC  H16X20380   1.179   2.370   8.789  0.0029 -0.3655  0.4566
  178SLPC  H16Y20381   1.072   2.234   8.819  2.5332 -0.6086  3.4811
  178SLPC  C31720382   1.064   2.296   8.617  0.1939 -0.4576 -0.1897
  178SLPC  H17X20383   1.126   2.358   8.548 -0.3312  1.1857  0.7823
  178SLPC  H17Y20384   0.971   2.357   8.626 -0.8459 -1.7955 -1.5850
  178SLPC  C31820385   1.028   2.163   8.551 -0.2669 -0.0202  0.0621
  178SLPC  H18X20386   1.117   2.131   8.494  0.2009  1.8255 -0.2895
  178SLPC  H18Y20387   0.945   2.175   8.479  0.1047 -0.3268 -0.4199
  178SLPC  H18Z20388   1.019   2.081   8.626  3.4975 -1.3049 -0.7903
  179SLPC     N20389   3.034   5.762  10.926 -0.2342  0.4476 -0.1048
  179SLPC   C1320390   3.125   5.826  11.025  0.0384  0.2961 -0.5030
  179SLPC  H13A20391   3.080   5.903  11.086  0.3735 -1.4184  1.9849
  179SLPC  H13B20392   3.158   5.744  11.087  0.3739  0.6300 -0.2357
  179SLPC  H13C20393   3.219   5.859  10.983  0.3425  1.2040  0.8275
  179SLPC   C1420394   2.913   5.699  10.995 -0.2400 -0.3153 -0.9864
  179SLPC  H14A20395   2.943   5.623  11.066  1.9532  0.3886 -1.1321
  179SLPC  H14B20396   2.873   5.773  11.064 -1.6606 -2.3774  0.4653
  179SLPC  H14C20397   2.835   5.682  10.923 -1.9372  0.7582  0.5388
  179SLPC   C1520398   3.117   5.651  10.862 -0.6627 -0.4346 -0.3180
  179SLPC  H15A20399   3.058   5.597  10.790 -1.2760 -1.4019  0.8978
  179SLPC  H15B20400   3.196   5.694  10.802  0.5130 -0.0857  1.4073
  179SLPC  H15C20401   3.148   5.587  10.943  0.5811  1.7808  1.0420
  179SLPC   C1220402   2.994   5.856  10.825 -0.4149 -0.1795 -0.1410
  179SLPC  H12A20403   3.083   5.896  10.778  0.9329  0.7874  3.0778
  179SLPC  H12B20404   2.943   5.939  10.874  0.3369 -0.3124  0.8796
  179SLPC   C1120405   2.902   5.810  10.712 -0.1523  0.2710 -0.3499
  179SLPC  H11A20406   2.831   5.884  10.669 -0.1064  1.3091  1.3092
  179SLPC  H11B20407   2.826   5.740  10.754 -0.9594  1.0395 -0.4964
  179SLPC     P20408   3.071   5.817  10.504  0.2396 -0.3432 -0.1582
  179SLPC   O1320409   3.169   5.894  10.583 -0.4677 -0.4260  0.2476
  179SLPC   O1420410   3.138   5.732  10.402  0.1007  0.3235 -0.4386
  179SLPC   O1220411   2.978   5.736  10.604 -0.0055 -0.6042 -0.1704
  179SLPC   O1120412   2.980   5.927  10.427  0.4159 -0.1003 -0.5437
  179SLPC    C120413   2.846   5.902  10.387 -0.4905 -0.4525  0.3849
  179SLPC    HA20414   2.809   5.806  10.430 -2.0485 -0.1370 -0.2485
  179SLPC    HB20415   2.775   5.977  10.428  0.2424  0.6349 -0.3021
  179SLPC    C220416   2.823   5.888  10.227 -0.0308  0.4342 -0.2913
  179SLPC    HS20417   2.889   5.805  10.195  1.3674  2.2650 -2.2978
  179SLPC   O2120418   2.863   6.007  10.164  0.3119  0.1890 -0.1894
  179SLPC   C2120419   2.927   6.005  10.049 -0.7077  0.0103  0.6725
  179SLPC   O2220420   2.976   5.906   9.995  0.2983 -0.0324  0.3969
  179SLPC   C2220421   2.930   6.142   9.991  0.5031 -0.0299 -0.4688
  179SLPC   H2R20422   2.824   6.165   9.968 -0.8530 -1.5069  3.7912
  179SLPC   H2S20423   2.961   6.224  10.059  0.0269  0.5145 -0.9081
  179SLPC    C320424   2.671   5.860  10.209  0.3286  0.2762 -0.3648
  179SLPC    HX20425   2.608   5.945  10.245 -0.3773  0.4550 -1.9732
  179SLPC    HY20426   2.642   5.766  10.261 -0.1045  0.4171 -0.3459
  179SLPC   O3120427   2.644   5.834  10.069 -0.7769 -0.5661 -0.2723
  179SLPC   C3120428   2.609   5.925   9.987  1.0185  0.8922 -0.6470
  179SLPC   O3220429   2.590   6.045  10.006  0.0083 -0.2694 -0.3704
  179SLPC   C3220430   2.569   5.863   9.843  0.0449  0.1684  0.6971
  179SLPC   H2X20431   2.463   5.835   9.858  0.5611 -2.4580 -0.3149
  179SLPC   H2Y20432   2.629   5.771   9.831 -0.6242 -0.5780  2.8250
  179SLPC   C2320433   3.008   6.139   9.853 -0.8729 -0.3802 -0.1453
  179SLPC   H3R20434   2.975   6.053   9.791 -0.7327  1.2824 -2.5697
  179SLPC   H3S20435   3.117   6.119   9.863 -0.7970  1.0367  2.5646
  179SLPC   C2420436   2.991   6.263   9.769  0.1969  0.4118  0.0159
  179SLPC   H4R20437   3.006   6.350   9.837 -3.8652 -1.2885  3.2671
  179SLPC   H4S20438   2.884   6.273   9.739  0.7474 -2.5561 -3.2998
  179SLPC   C2520439   3.072   6.274   9.640  0.3435 -0.3465 -0.8816
  179SLPC   H5R20440   3.082   6.169   9.606  2.1183 -0.3397 -0.4632
  179SLPC   H5S20441   3.169   6.327   9.654 -0.9278  1.9011 -0.3333
  179SLPC   C2620442   2.994   6.367   9.547 -0.0849 -0.0534 -0.5379
  179SLPC   H6R20443   2.997   6.469   9.592 -1.2949 -0.4213  0.3985
  179SLPC   H6S20444   2.888   6.336   9.542  0.7800 -3.3326  0.4988
  179SLPC   C2720445   3.054   6.380   9.404  0.2139  0.4221  0.1887
  179SLPC   H7R20446   3.153   6.431   9.403  0.1708  0.6798 -4.3330
  179SLPC   H7S20447   2.997   6.453   9.342 -1.1629 -0.3726  0.5100
  179SLPC   C2820448   3.067   6.238   9.338 -0.0338  0.0520  0.2539
  179SLPC   H8R20449   2.968   6.190   9.324 -0.0738  0.7093 -1.9758
  179SLPC   H8S20450   3.121   6.169   9.407  1.0456  0.9514  0.3204
  179SLPC   C2920451   3.157   6.249   9.211  0.5013 -1.1032 -0.6020
  179SLPC   H9R20452   3.267   6.252   9.219  0.5358 -1.7381 -0.7445
  179SLPC  C21020453   3.106   6.259   9.085 -0.1379  0.2295 -0.4487
  179SLPC  H10R20454   3.165   6.285   8.996 -0.7743 -0.4983 -1.0924
  179SLPC  C21120455   2.960   6.252   9.051  1.3228 -0.2816 -0.1844
  179SLPC  H11R20456   2.949   6.337   8.980  0.8511 -1.5266 -1.6153
  179SLPC  H11S20457   2.901   6.258   9.145 -0.8915 -0.8996 -1.5174
  179SLPC  C21220458   2.911   6.124   8.989  0.5803  0.0314 -0.4758
  179SLPC  H12R20459   2.886   6.044   9.060 -0.5018 -0.1910 -1.0956
  179SLPC  C21320460   2.892   6.110   8.853 -0.3334  0.4852 -0.8527
  179SLPC  H13R20461   2.867   6.011   8.813 -0.1164 -0.2579  0.8042
  179SLPC  C21420462   2.925   6.211   8.745 -0.6412  0.5319 -0.1766
  179SLPC  H14R20463   2.911   6.315   8.782 -0.6151  1.4669 -2.7096
  179SLPC  H14S20464   2.849   6.203   8.665 -1.0407  0.0334  0.2519
  179SLPC  C21520465   3.069   6.187   8.694  0.6258  0.0237  0.0932
  179SLPC  H15R20466   3.097   6.082   8.717 -2.5324 -0.6612  0.9663
  179SLPC  H15S20467   3.150   6.241   8.749 -0.8411  0.4670  1.8588
  179SLPC  C21620468   3.096   6.221   8.545 -0.1506 -0.2141 -0.4058
  179SLPC  H16R20469   3.027   6.167   8.477  1.0119 -1.1189 -0.8751
  179SLPC  H16S20470   3.201   6.195   8.523  0.3495  2.3465 -1.1543
  179SLPC  C21720471   3.072   6.366   8.519  0.6672  0.1330 -0.4006
  179SLPC  H17R20472   3.151   6.429   8.566 -0.2417 -0.2186  1.6569
  179SLPC  H17S20473   2.972   6.396   8.556  0.9318  1.2072 -0.5572
  179SLPC  C21820474   3.066   6.397   8.369 -0.4903 -0.6969  0.2642
  179SLPC  H18R20475   3.025   6.499   8.353  0.1998 -0.4814 -0.1237
  179SLPC  H18S20476   3.001   6.324   8.316  0.2090 -0.9769 -0.2011
  179SLPC  H18T20477   3.166   6.380   8.325 -0.2717 -0.8108  0.7979
  179SLPC   C3320478   2.606   5.953   9.728  0.0197 -0.0834 -0.4765
  179SLPC   H3X20479   2.689   6.020   9.758 -0.0483 -0.4826  0.6329
  179SLPC   H3Y20480   2.517   6.015   9.702  2.2103  3.2797 -0.2450
  179SLPC   C3420481   2.655   5.883   9.613  0.2012  0.1232  0.2401
  179SLPC   H4X20482   2.566   5.827   9.577 -1.3092  1.3245  1.9878
  179SLPC   H4Y20483   2.731   5.805   9.633 -0.8445 -0.9074  0.2332
  179SLPC   C3520484   2.701   5.984   9.498 -0.5312 -0.7205  0.0831
  179SLPC   H5X20485   2.762   6.070   9.533 -2.0922  0.6090 -0.3940
  179SLPC   H5Y20486   2.610   6.032   9.457  0.0254 -1.3322 -1.8912
  179SLPC   C3620487   2.765   5.912   9.382  0.0174 -0.2714  0.0380
  179SLPC   H6X20488   2.859   5.859   9.407 -0.3930 -1.9837 -1.9267
  179SLPC   H6Y20489   2.782   6.001   9.318  0.2148  0.4697  1.1207
  179SLPC   C3720490   2.675   5.809   9.307  0.3376 -0.5542  0.2913
  179SLPC   H7X20491   2.575   5.852   9.285 -0.8093 -1.7804  2.8240
  179SLPC   H7Y20492   2.656   5.728   9.381 -0.4654 -0.7517 -0.1264
  179SLPC   C3820493   2.735   5.770   9.175 -0.4955 -0.7235 -0.2000
  179SLPC   H8X20494   2.802   5.682   9.188 -0.5572 -0.6205  0.9072
  179SLPC   H8Y20495   2.797   5.855   9.141  0.9851 -1.5138  0.4613
  179SLPC   C3920496   2.644   5.750   9.065  0.0803 -0.0541  0.4749
  179SLPC   H9X20497   2.569   5.832   9.070  0.1830  0.1428 -0.9723
  179SLPC   H9Y20498   2.592   5.652   9.062 -0.3609  0.1161  2.0604
  179SLPC  C31020499   2.711   5.771   8.934  0.9320 -0.1399  0.2199
  179SLPC  H10X20500   2.773   5.863   8.939 -0.1108  0.5444  0.7522
  179SLPC  H10Y20501   2.638   5.772   8.850  1.3071 -1.2521 -0.1366
  179SLPC  C31120502   2.795   5.657   8.890 -0.3456 -0.1251  0.3120
  179SLPC  H11X20503   2.736   5.564   8.879  1.2064 -1.0678 -0.2792
  179SLPC  H11Y20504   2.872   5.638   8.968  1.0802  1.1437 -0.7421
  179SLPC  C31220505   2.859   5.677   8.757 -0.2679 -0.0163  0.1238
  179SLPC  H12X20506   2.916   5.584   8.735 -1.5034 -0.7211 -0.1639
  179SLPC  H12Y20507   2.927   5.765   8.760 -0.1841 -0.0581 -0.3765
  179SLPC  C31320508   2.760   5.687   8.641  0.1056 -0.2942  0.2462
  179SLPC  H13X20509   2.682   5.764   8.657  0.8491  0.0119  2.5096
  179SLPC  H13Y20510   2.701   5.593   8.633  0.4125 -0.4499 -0.2415
  179SLPC  C31420511   2.831   5.706   8.499  0.4544 -0.2573  0.4522
  179SLPC  H14X20512   2.761   5.673   8.419 -1.0035 -0.6928  1.8773
  179SLPC  H14Y20513   2.920   5.640   8.499  0.7934  0.1127 -2.6920
  179SLPC  C31520514   2.880   5.850   8.468 -0.3243  0.4782 -0.7656
  179SLPC  H15X20515   2.964   5.871   8.537 -1.1032 -1.3533  0.7944
  179SLPC  H15Y20516   2.802   5.922   8.501 -2.9417 -1.5264 -2.2926
  179SLPC  C31620517   2.932   5.870   8.331 -0.0551  0.6474  0.3712
  179SLPC  H16X20518   2.965   5.976   8.342 -2.1173  1.5911 -2.1483
  179SLPC  H16Y20519   2.853   5.858   8.254 -1.4175  1.9185  1.5451
  179SLPC  C31720520   3.068   5.803   8.298  0.1445 -0.9924 -0.1679
  179SLPC  H17X20521   3.087   5.835   8.193 -3.9382  1.6412 -0.1987
  179SLPC  H17Y20522   3.057   5.693   8.308  3.1995 -1.2485  0.9174
  179SLPC  C31820523   3.189   5.853   8.382 -0.4011 -0.1309  0.1681
  179SLPC  H18X20524   3.209   5.962   8.374  0.4198 -0.3053 -0.2775
  179SLPC  H18Y20525   3.290   5.814   8.356 -0.4404  0.8429 -1.5632
  179SLPC  H18Z20526   3.165   5.842   8.490  0.2335  0.8991  0.4260
  180SLPC     N20527   4.056   3.460  11.185 -0.0555  0.6772 -0.5450
  180SLPC   C1320528   4.007   3.326  11.206 -0.0310  0.2894 -0.4768
  180SLPC  H13A20529   3.973   3.276  11.116 -0.8856 -1.1871  0.6552
  180SLPC  H13B20530   4.089   3.270  11.248  2.3497  3.1679 -1.0705
  180SLPC  H13C20531   3.923   3.321  11.274 -2.1363  0.4485 -2.9807
  180SLPC   C1420532   4.169   3.449  11.081  0.4554  0.6101  0.3942
  180SLPC  H14A20533   4.215   3.546  11.064  0.9691  0.1499 -0.9217
  180SLPC  H14B20534   4.244   3.376  11.105 -0.2893 -0.4402 -0.4307
  180SLPC  H14C20535   4.128   3.404  10.992 -1.6652  2.9076  0.1495
  180SLPC   C1520536   4.098   3.511  11.321  0.8486  0.4316  0.0799
  180SLPC  H15A20537   4.144   3.608  11.310 -1.4581  1.6289  0.7198
  180SLPC  H15B20538   4.006   3.521  11.376  1.5828 -1.5680  1.7163
  180SLPC  H15C20539   4.176   3.446  11.359  1.0241  1.0551  0.7843
  180SLPC   C1220540   3.940   3.546  11.137  0.0236 -0.1743  0.8982
  180SLPC  H12A20541   3.853   3.549  11.201 -1.7981  0.1266 -1.5487
  180SLPC  H12B20542   3.910   3.508  11.041  1.5337  3.1904 -0.9841
  180SLPC   C1120543   3.974   3.694  11.100  0.4765  1.1303 -0.5264
  180SLPC  H11A20544   4.059   3.686  11.028 -0.5549  2.0674 -1.8905
  180SLPC  H11B20545   4.007   3.756  11.186  0.9627 -1.7692  1.4327
  180SLPC     P20546   3.802   3.709  10.898 -0.3048  0.0016 -0.2387
  180SLPC   O1320547   3.755   3.566  10.908  0.5418  0.1971 -0.1829
  180SLPC   O1420548   3.711   3.813  10.848  0.0551 -0.2018  0.7662
  180SLPC   O1220549   3.862   3.760  11.036  0.0116  0.2731 -0.6641
  180SLPC   O1120550   3.926   3.706  10.796  0.0035  0.7955  0.0075
  180SLPC    C120551   4.019   3.811  10.780 -0.2015  0.4185  0.2932
  180SLPC    HA20552   3.978   3.913  10.800  2.2562  1.1619  1.8450
  180SLPC    HB20553   4.108   3.788  10.842  0.0254 -2.1757 -0.9414
  180SLPC    C220554   4.061   3.826  10.633  0.3128  0.0784 -1.1419
  180SLPC    HS20555   4.135   3.909  10.636  1.9606 -1.3600 -0.9064
  180SLPC   O2120556   3.953   3.852  10.542  0.1385  0.3508 -0.2779
  180SLPC   C2120557   3.903   3.979  10.546 -0.3882 -0.0418 -0.0219
  180SLPC   O2220558   3.950   4.071  10.616 -0.1213  0.4482  0.8476
  180SLPC   C2220559   3.784   3.997  10.446  0.2150 -0.3103  0.2807
  180SLPC   H2R20560   3.724   3.903  10.445 -0.7696  0.3077  0.6384
  180SLPC   H2S20561   3.716   4.081  10.470  0.8469 -0.1374  1.4857
  180SLPC    C320562   4.127   3.695  10.587  0.5650 -0.0558  0.8557
  180SLPC    HX20563   4.050   3.617  10.568  0.0560  0.0278  2.5757
  180SLPC    HY20564   4.191   3.648  10.664  1.1196  0.5706  0.7873
  180SLPC   O3120565   4.208   3.713  10.467 -0.0598  0.4300  0.2918
  180SLPC   C3120566   4.262   3.610  10.407  0.4206  0.2046 -0.2814
  180SLPC   O3220567   4.239   3.492  10.438 -0.2158  0.0993 -0.5212
  180SLPC   C3220568   4.372   3.660  10.309  0.0726 -0.7128 -0.3111
  180SLPC   H2X20569   4.474   3.661  10.351  0.3304  0.0197 -0.9368
  180SLPC   H2Y20570   4.348   3.765  10.279  0.3794 -1.3015 -2.7832
  180SLPC   C2320571   3.825   4.034  10.303  0.0898 -0.1529  0.2914
  180SLPC   H3R20572   3.736   4.040  10.238  0.5637 -1.6559 -0.5199
  180SLPC   H3S20573   3.891   3.958  10.256 -2.2224 -0.7211 -2.1328
  180SLPC   C2420574   3.902   4.171  10.302 -0.1949  0.8847  0.4041
  180SLPC   H4R20575   4.000   4.136  10.342 -0.3169  0.9868  0.7974
  180SLPC   H4S20576   3.846   4.241  10.367 -1.8491  2.0236 -2.1967
  180SLPC   C2520577   3.911   4.247  10.169 -0.0591 -0.1421 -0.2352
  180SLPC   H5R20578   3.998   4.310  10.198  0.2833 -2.1652  3.4450
  180SLPC   H5S20579   3.828   4.317  10.144  1.2967  2.3441  1.9650
  180SLPC   C2620580   3.941   4.150  10.051 -0.2996  0.3020 -1.0072
  180SLPC   H6R20581   3.853   4.082  10.044 -0.1990  0.1197 -0.4978
  180SLPC   H6S20582   4.030   4.085  10.067 -1.1857 -1.0751 -1.5221
  180SLPC   C2720583   3.960   4.230   9.921  0.3811  0.9034 -0.3892
  180SLPC   H7R20584   4.016   4.322   9.947  0.4602  0.7612 -0.0541
  180SLPC   H7S20585   3.855   4.256   9.894 -0.2771  0.9347  2.0808
  180SLPC   C2820586   4.019   4.168   9.787  0.1179 -0.0247 -1.0775
  180SLPC   H8R20587   4.130   4.156   9.791 -0.0159 -1.1909 -0.7195
  180SLPC   H8S20588   3.993   4.240   9.707  0.1020  1.1853  0.0023
  180SLPC   C2920589   3.969   4.030   9.766 -0.1476 -0.0572 -0.2988
  180SLPC   H9R20590   3.969   3.970   9.858 -0.9239 -2.1823 -1.6385
  180SLPC  C21020591   3.916   3.965   9.659  0.3388  0.1198 -0.5624
  180SLPC  H10R20592   3.878   3.863   9.676  0.8842  0.0677  0.3698
  180SLPC  C21120593   3.885   4.009   9.521  0.2721  0.5216  0.1673
  180SLPC  H11R20594   3.961   3.980   9.445  0.0356 -0.8008  0.4279
  180SLPC  H11S20595   3.892   4.119   9.507  1.3747  0.3746 -0.5189
  180SLPC  C21220596   3.738   3.977   9.482  0.2344  0.4827  0.6364
  180SLPC  H12R20597   3.654   3.991   9.551  0.0662 -0.1042  0.5477
  180SLPC  C21320598   3.703   3.933   9.361 -0.3865 -0.1235 -0.0558
  180SLPC  H13R20599   3.600   3.897   9.350 -0.0737 -0.8984 -0.4755
  180SLPC  C21420600   3.804   3.912   9.252 -0.5964 -0.8378 -0.4317
  180SLPC  H14R20601   3.895   3.859   9.286  0.9870  2.3106  0.4969
  180SLPC  H14S20602   3.829   4.005   9.196 -1.0439 -0.1672  0.4511
  180SLPC  C21520603   3.739   3.818   9.146 -0.3135 -0.1236 -0.3979
  180SLPC  H15R20604   3.638   3.854   9.119  0.3601  0.2666 -2.5163
  180SLPC  H15S20605   3.729   3.717   9.191 -1.4571  1.2164  2.5178
  180SLPC  C21620606   3.813   3.806   9.017  0.2833 -0.7130 -0.2072
  180SLPC  H16R20607   3.903   3.751   9.052  1.0850  0.3431 -0.5670
  180SLPC  H16S20608   3.849   3.905   8.981 -1.5610  0.3229  0.7514
  180SLPC  C21720609   3.737   3.718   8.911 -0.3992  0.0599 -0.2823
  180SLPC  H17R20610   3.632   3.751   8.898  0.5736  3.0718 -0.9799
  180SLPC  H17S20611   3.735   3.612   8.941 -0.9800  0.1670  0.0542
  180SLPC  C21820612   3.808   3.729   8.773 -0.6383  0.3914 -0.2152
  180SLPC  H18R20613   3.916   3.744   8.793  0.0850 -0.4735 -3.2132
  180SLPC  H18S20614   3.773   3.818   8.718  1.8602  0.9944 -0.8927
  180SLPC  H18T20615   3.790   3.649   8.698  0.1408  0.3179 -0.3290
  180SLPC   C3320616   4.369   3.588  10.169  0.0628  0.0820 -0.4720
  180SLPC   H3X20617   4.389   3.479  10.177  0.4781 -0.0148 -2.4762
  180SLPC   H3Y20618   4.450   3.634  10.108 -0.4880  2.3131  0.4457
  180SLPC   C3420619   4.233   3.597  10.098  0.6943 -0.4890  0.2683
  180SLPC   H4X20620   4.160   3.550  10.167 -0.1811 -0.7282 -0.8025
  180SLPC   H4Y20621   4.231   3.530  10.009 -0.3655 -0.6347  0.3899
  180SLPC   C3520622   4.175   3.731  10.059  0.2340 -0.4199 -0.6761
  180SLPC   H5X20623   4.233   3.754   9.968  1.8063  2.4330  0.9830
  180SLPC   H5Y20624   4.199   3.802  10.141 -2.1958 -0.7026  0.3272
  180SLPC   C3620625   4.025   3.724  10.036 -0.6275  1.1050  0.2736
  180SLPC   H6X20626   3.991   3.830  10.035 -2.2126  0.6450  2.2864
  180SLPC   H6Y20627   3.981   3.684  10.129 -0.4440 -1.7907 -0.8433
  180SLPC   C3720628   3.986   3.638   9.925 -0.7356 -0.2333 -0.6101
  180SLPC   H7X20629   4.023   3.534   9.936  1.8051  0.2912 -3.5988
  180SLPC   H7Y20630   4.040   3.691   9.844 -0.0217  1.7856  1.1207
  180SLPC   C3820631   3.837   3.625   9.900 -0.5461  0.4462  0.6749
  180SLPC   H8X20632   3.790   3.723   9.878  0.3473  0.7473  0.1061
  180SLPC   H8Y20633   3.791   3.582   9.992 -0.8533 -1.1755 -0.2268
  180SLPC   C3920634   3.805   3.523   9.792 -0.1892  0.0315  0.4387
  180SLPC   H9X20635   3.703   3.480   9.803  0.6482 -1.9246  0.7624
  180SLPC   H9Y20636   3.874   3.437   9.809 -0.5900 -0.1716  1.0351
  180SLPC  C31020637   3.826   3.576   9.647 -0.2706 -0.1568  0.8296
  180SLPC  H10X20638   3.927   3.623   9.642  0.7797 -2.5207 -2.2306
  180SLPC  H10Y20639   3.758   3.658   9.619  0.8413  0.3494 -0.4565
  180SLPC  C31120640   3.824   3.469   9.544  0.1391 -0.1348 -0.1370
  180SLPC  H11X20641   3.721   3.428   9.552 -0.0177 -0.0034 -1.3241
  180SLPC  H11Y20642   3.886   3.382   9.574  0.7194  0.0370 -0.8175
  180SLPC  C31220643   3.864   3.519   9.403 -0.0568  0.7816  0.1257
  180SLPC  H12X20644   3.965   3.563   9.414  0.1929  0.1130  0.4879
  180SLPC  H12Y20645   3.819   3.615   9.370 -1.2351 -0.4733 -2.0419
  180SLPC  C31320646   3.847   3.407   9.302 -0.4726  0.0507  0.0618
  180SLPC  H13X20647   3.742   3.373   9.294 -0.7717  0.7189  1.1273
  180SLPC  H13Y20648   3.911   3.321   9.330 -1.3110  0.0571  2.0537
  180SLPC  C31420649   3.888   3.450   9.160 -0.3393  0.0681  1.1790
  180SLPC  H14X20650   3.976   3.517   9.175 -1.3142  1.0325  2.6565
  180SLPC  H14Y20651   3.805   3.504   9.110  0.3237  0.2448  0.2533
  180SLPC  C31520652   3.930   3.331   9.074 -0.4127 -0.7352  0.4275
  180SLPC  H15X20653   3.835   3.277   9.052 -1.4396  1.0688  0.3189
  180SLPC  H15Y20654   3.992   3.262   9.135 -1.9727 -2.8670 -0.3371
  180SLPC  C31620655   3.986   3.375   8.937  0.3480 -0.3094  0.8820
  180SLPC  H16X20656   4.095   3.395   8.939  0.1004  1.6435 -1.8225
  180SLPC  H16Y20657   3.938   3.469   8.903  1.7156 -0.5226 -1.8379
  180SLPC  C31720658   3.974   3.267   8.831  0.1871 -0.3727 -0.4782
  180SLPC  H17X20659   3.866   3.248   8.808  0.3472 -0.1312 -1.4663
  180SLPC  H17Y20660   4.018   3.177   8.879  0.7849  0.5632  0.7495
  180SLPC  C31820661   4.046   3.305   8.705 -0.6834  0.2207 -0.1088
  180SLPC  H18X20662   4.148   3.339   8.732  0.4771 -1.0278 -2.6885
  180SLPC  H18Y20663   4.006   3.396   8.656 -0.0408  0.2802 -0.5184
  180SLPC  H18Z20664   4.054   3.212   8.644 -3.0973 -0.3467  0.3868
  181SLPC     N20665   0.446   0.155  11.341  0.5514 -0.4283 -0.2322
  181SLPC   C1320666   0.508   0.060  11.243  0.1668 -0.1616  0.5305
  181SLPC  H13A20667   0.457   0.078  11.150 -0.7252 -0.1529  1.0175
  181SLPC  H13B20668   0.615   0.073  11.236  0.2918 -1.7129 -0.7910
  181SLPC  H13C20669   0.487  -0.045  11.261 -0.3763 -0.1796 -0.1990
  181SLPC   C1420670   0.512   0.132  11.473 -0.6238  0.2410 -0.3091
  181SLPC  H14A20671   0.617   0.153  11.462 -0.5248 -0.3973 -0.6133
  181SLPC  H14B20672   0.490   0.202  11.552 -1.0984 -2.8660  2.4219
  181SLPC  H14C20673   0.494   0.036  11.520  0.2086 -0.7024 -1.8734
  181SLPC   C1520674   0.305   0.126  11.350  0.4983  0.6082 -0.3074
  181SLPC  H15A20675   0.253   0.189  11.420  1.5780  1.7710 -0.5250
  181SLPC  H15B20676   0.247   0.135  11.260 -2.7360  1.1996  1.7733
  181SLPC  H15C20677   0.281   0.029  11.388 -1.0408  1.3861  0.7411
  181SLPC   C1220678   0.462   0.295  11.285 -0.3511 -0.3999 -0.1338
  181SLPC  H12A20679   0.561   0.329  11.314  0.2580 -0.0183 -2.5683
  181SLPC  H12B20680   0.412   0.361  11.354 -0.2656  2.5496 -2.7777
  181SLPC   C1120681   0.438   0.332  11.136 -0.0606  0.2083  0.0417
  181SLPC  H11A20682   0.514   0.271  11.083 -0.6227  2.1021 -3.0574
  181SLPC  H11B20683   0.467   0.437  11.114 -1.7291  0.9103  1.0907
  181SLPC     P20684   0.197   0.412  11.097  0.1455 -0.4210 -0.0896
  181SLPC   O1320685   0.060   0.350  11.083 -0.0091 -0.0825  0.0544
  181SLPC   O1420686   0.220   0.505  11.208 -0.2842  0.2410 -0.1997
  181SLPC   O1220687   0.306   0.299  11.095 -0.4969 -0.0330  0.1236
  181SLPC   O1120688   0.223   0.484  10.966 -0.2901  0.2373  0.1101
  181SLPC    C120689   0.242   0.422  10.835  0.4755 -0.0582  0.4028
  181SLPC    HA20690   0.306   0.487  10.772 -0.6425 -1.1929 -1.9714
  181SLPC    HB20691   0.286   0.320  10.830 -0.5875 -0.4564 -1.6485
  181SLPC    C220692   0.109   0.406  10.754  0.7509  0.1530  0.5029
  181SLPC    HS20693   0.044   0.336  10.810  2.0372 -1.9996 -0.6390
  181SLPC   O2120694   0.136   0.354  10.620  0.2149  0.2808 -0.2572
  181SLPC   C2120695   0.034   0.317  10.541 -0.2473  0.8264 -0.1982
  181SLPC   O2220696  -0.085   0.341  10.559  0.7461  0.4993  0.3715
  181SLPC   C2220697   0.103   0.260  10.412 -0.0428  0.0859 -0.3216
  181SLPC   H2R20698   0.200   0.314  10.410  0.7908 -1.4226 -1.3053
  181SLPC   H2S20699   0.117   0.151  10.429 -3.3415 -0.5075 -1.1766
  181SLPC    C320700   0.029   0.539  10.748 -0.4208 -1.1473  0.5864
  181SLPC    HX20701  -0.005   0.573  10.849 -0.5581 -2.9090  1.1381
  181SLPC    HY20702  -0.064   0.533  10.688 -0.1376 -0.2487  0.0493
  181SLPC   O3120703   0.114   0.654  10.713 -0.4080 -0.0276 -0.0542
  181SLPC   C3120704   0.105   0.687  10.589  0.0889  0.0364  0.8023
  181SLPC   O3220705   0.029   0.639  10.505  1.0319  0.7403 -0.6451
  181SLPC   C3220706   0.226   0.780  10.572  0.1811 -1.4562  0.0556
  181SLPC   H2X20707   0.314   0.715  10.557  2.8368  1.5836  1.8622
  181SLPC   H2Y20708   0.238   0.834  10.669  0.4860  0.1452 -0.8469
  181SLPC   C2320709   0.019   0.263  10.283 -0.2588 -0.7984  0.0774
  181SLPC   H3R20710  -0.083   0.220  10.297 -0.3407 -0.8097 -0.5534
  181SLPC   H3S20711   0.075   0.193  10.218  0.9919 -0.7905  1.1403
  181SLPC   C2420712   0.035   0.393  10.211  0.1944  0.2077 -0.8523
  181SLPC   H4R20713   0.142   0.394  10.180  0.6175  2.0886  0.5434
  181SLPC   H4S20714   0.037   0.481  10.279  1.8141 -0.8762  0.5547
  181SLPC   C2520715  -0.070   0.392  10.099 -0.7870 -0.0766 -0.1494
  181SLPC   H5R20716  -0.168   0.431  10.134 -1.2028  0.1707 -1.5418
  181SLPC   H5S20717  -0.071   0.283  10.076 -2.0265 -0.9004  3.4061
  181SLPC   C2620718  -0.029   0.481   9.975  0.0506  0.4329  0.5843
  181SLPC   H6R20719   0.048   0.419   9.925  0.8015  0.5358  1.5956
  181SLPC   H6S20720   0.017   0.580   9.997 -4.4309  2.2437  2.3623
  181SLPC   C2720721  -0.138   0.486   9.866  1.2462  0.2090 -0.2141
  181SLPC   H7R20722  -0.237   0.521   9.902  1.3301 -1.5643  1.8843
  181SLPC   H7S20723  -0.166   0.380   9.845 -2.3744  0.9831  0.3441
  181SLPC   C2820724  -0.101   0.544   9.730  0.4554  0.1533  0.3516
  181SLPC   H8R20725  -0.169   0.490   9.661  4.0641 -2.0648 -1.6363
  181SLPC   H8S20726  -0.003   0.499   9.704 -0.4537 -0.3331 -2.4394
  181SLPC   C2920727  -0.098   0.700   9.733 -1.0844  0.2480  0.1059
  181SLPC   H9R20728  -0.015   0.754   9.781 -0.2969 -1.6013  0.8515
  181SLPC  C21020729  -0.181   0.778   9.663 -0.4107 -0.3336 -0.5860
  181SLPC  H10R20730  -0.181   0.884   9.691  1.1472 -0.8171  1.3338
  181SLPC  C21120731  -0.295   0.734   9.578  0.2289 -0.0960  0.9094
  181SLPC  H11R20732  -0.367   0.665   9.626 -0.6499  0.6366  0.6613
  181SLPC  H11S20733  -0.253   0.662   9.505 -3.0702 -1.5141  0.3266
  181SLPC  C21220734  -0.366   0.829   9.487  0.5344  0.1130 -0.6499
  181SLPC  H12R20735  -0.476   0.830   9.497  0.7677 -0.1713  2.3627
  181SLPC  C21320736  -0.312   0.905   9.381 -0.7314  0.2939  0.2139
  181SLPC  H13R20737  -0.375   0.976   9.326 -1.2997 -1.5068 -1.5029
  181SLPC  C21420738  -0.171   0.907   9.334 -0.6659 -0.1106 -0.1564
  181SLPC  H14R20739  -0.105   0.833   9.384 -1.0349  0.7249  1.5778
  181SLPC  H14S20740  -0.140   1.011   9.356  2.1830 -0.3865 -2.5223
  181SLPC  C21520741  -0.152   0.898   9.179 -0.3669  0.1875 -0.5690
  181SLPC  H15R20742  -0.047   0.864   9.169 -0.2801  0.5486 -0.8878
  181SLPC  H15S20743  -0.171   1.000   9.140 -0.2492  1.4334  2.5043
  181SLPC  C21620744  -0.252   0.807   9.096 -0.0812 -0.0771 -0.5380
  181SLPC  H16R20745  -0.356   0.842   9.114  0.3392  0.9494 -0.0528
  181SLPC  H16S20746  -0.254   0.703   9.136  0.9037  0.0281 -0.2090
  181SLPC  C21720747  -0.223   0.812   8.949  0.5466 -0.2349  0.9129
  181SLPC  H17R20748  -0.122   0.770   8.933  0.3742 -0.0176 -0.8209
  181SLPC  H17S20749  -0.215   0.920   8.924 -3.3572 -0.0456  0.1252
  181SLPC  C21820750  -0.316   0.726   8.864  0.0518 -0.5796 -0.4002
  181SLPC  H18R20751  -0.421   0.740   8.896  0.3847  1.7771 -0.2196
  181SLPC  H18S20752  -0.291   0.619   8.876 -0.2772 -0.6403 -0.2741
  181SLPC  H18T20753  -0.312   0.759   8.758  0.7628  0.4184 -0.0730
  181SLPC   C3320754   0.215   0.869  10.452 -0.4948  0.0728  0.3385
  181SLPC   H3X20755   0.149   0.830  10.371  0.2611  2.3451 -1.4382
  181SLPC   H3Y20756   0.312   0.882  10.399 -1.0379 -2.1177 -1.2883
  181SLPC   C3420757   0.163   1.006  10.493  0.1875 -0.3323 -0.2406
  181SLPC   H4X20758   0.219   1.054  10.576 -2.7158  2.7895  0.0345
  181SLPC   H4Y20759   0.063   1.006  10.540  1.3958 -1.4603  2.4144
  181SLPC   C3520760   0.165   1.114  10.388 -0.5822 -0.5687  0.4025
  181SLPC   H5X20761   0.265   1.120  10.342 -2.2450 -0.3819 -3.3634
  181SLPC   H5Y20762   0.127   1.211  10.427 -0.9088 -0.5995  0.1622
  181SLPC   C3620763   0.078   1.071  10.268  0.0033 -0.4387  0.5958
  181SLPC   H6X20764  -0.026   1.050  10.302 -0.3073  1.3619  0.7932
  181SLPC   H6Y20765   0.110   0.973  10.226  1.7874  0.8208 -1.0514
  181SLPC   C3720766   0.083   1.163  10.143  0.4151 -0.2054 -0.8047
  181SLPC   H7X20767   0.190   1.193  10.132  0.6443  0.1572  1.8597
  181SLPC   H7Y20768   0.032   1.258  10.167 -0.0834 -0.7862  0.4851
  181SLPC   C3820769   0.036   1.093  10.019 -0.1707  0.0708 -0.1274
  181SLPC   H8X20770  -0.073   1.070  10.024  0.2210 -1.6712  0.8751
  181SLPC   H8Y20771   0.084   0.993  10.026 -2.8118 -1.2531 -0.0957
  181SLPC   C3920772   0.076   1.176   9.895  0.2413 -0.1258 -0.3493
  181SLPC   H9X20773   0.187   1.173   9.900  0.3051 -1.4836 -2.0201
  181SLPC   H9Y20774   0.049   1.283   9.912 -2.0563 -0.3674 -2.2709
  181SLPC  C31020775   0.035   1.134   9.760 -0.1846  0.1288  0.3129
  181SLPC  H10X20776  -0.076   1.132   9.749  0.0872 -1.1214 -2.4497
  181SLPC  H10Y20777   0.065   1.027   9.755 -2.3088 -0.4611 -0.4975
  181SLPC  C31120778   0.112   1.212   9.649 -0.1432 -0.7662 -0.3252
  181SLPC  H11X20779   0.219   1.199   9.677 -0.5298 -3.5417  0.0185
  181SLPC  H11Y20780   0.083   1.319   9.654  0.9467 -0.5672  3.6004
  181SLPC  C31220781   0.074   1.155   9.506 -0.1768  1.2952 -0.1923
  181SLPC  H12X20782  -0.035   1.160   9.487 -0.3300  1.1835  0.6473
  181SLPC  H12Y20783   0.104   1.049   9.495 -1.6884  0.4860  3.1011
  181SLPC  C31320784   0.160   1.222   9.396 -0.8338  0.2257 -0.1281
  181SLPC  H13X20785   0.262   1.246   9.431 -0.9648 -0.0117  0.4170
  181SLPC  H13Y20786   0.115   1.319   9.365 -1.5780  0.3013  1.1620
  181SLPC  C31420787   0.177   1.149   9.263  0.5032 -0.3742  0.6739
  181SLPC  H14X20788   0.078   1.126   9.218  1.0269  0.9997 -1.2913
  181SLPC  H14Y20789   0.227   1.051   9.275  0.5938 -0.4996 -0.6372
  181SLPC  C31520790   0.255   1.234   9.160  0.5190 -0.0494 -0.8046
  181SLPC  H15X20791   0.351   1.264   9.206 -0.1575  0.1227  0.5104
  181SLPC  H15Y20792   0.202   1.327   9.130 -0.4933 -0.4294 -0.2033
  181SLPC  C31620793   0.278   1.154   9.031  0.2363  0.3885  0.5482
  181SLPC  H16X20794   0.321   1.054   9.054  0.6538  0.5065  0.2890
  181SLPC  H16Y20795   0.352   1.210   8.969 -0.0817 -0.8801 -1.0185
  181SLPC  C31720796   0.152   1.153   8.939  0.0899 -0.0130 -0.1716
  181SLPC  H17X20797   0.132   1.259   8.914 -0.5266  0.0073  0.3867
  181SLPC  H17Y20798   0.068   1.107   8.994 -0.1383  1.2620  0.5774
  181SLPC  C31820799   0.169   1.061   8.814 -0.4873 -1.4126  0.0458
  181SLPC  H18X20800   0.234   0.974   8.838  2.2693 -0.7889 -4.6066
  181SLPC  H18Y20801   0.229   1.114   8.737 -4.0820 -0.5938 -2.3143
  181SLPC  H18Z20802   0.071   1.027   8.773 -0.8963 -0.4962  0.2476
  182SLPC     N20803   5.653   1.302  10.839  1.1234 -0.6804 -0.0716
  182SLPC   C1320804   5.758   1.244  10.754  0.8373 -0.1939  0.5482
  182SLPC  H13A20805   5.705   1.199  10.672 -1.2869  0.8022  1.3160
  182SLPC  H13B20806   5.824   1.322  10.720  0.1030  0.3557  0.3536
  182SLPC  H13C20807   5.802   1.163  10.810 -0.7560 -1.9516 -0.7042
  182SLPC   C1420808   5.720   1.390  10.943  1.0775 -0.0759 -0.1956
  182SLPC  H14A20809   5.640   1.433  11.001 -0.9485 -0.8979 -2.2724
  182SLPC  H14B20810   5.795   1.327  10.988  1.5271  0.7321  0.2009
  182SLPC  H14C20811   5.773   1.470  10.893 -1.0782  1.4625 -0.1131
  182SLPC   C1520812   5.569   1.193  10.909  0.1006  0.1308  0.0216
  182SLPC  H15A20813   5.479   1.239  10.947 -0.9565  0.0378 -2.2558
  182SLPC  H15B20814   5.558   1.114  10.836  1.8817  1.4988 -1.7881
  182SLPC  H15C20815   5.627   1.148  10.988  0.2173  1.9030  0.9771
  182SLPC   C1220816   5.561   1.397  10.756 -0.0291  0.4353 -0.0192
  182SLPC  H12A20817   5.488   1.430  10.829  2.7595 -0.7903  3.4527
  182SLPC  H12B20818   5.499   1.335  10.693 -0.6819  0.4272  0.6197
  182SLPC   C1120819   5.624   1.519  10.684 -0.9333 -0.2563  0.5381
  182SLPC  H11A20820   5.558   1.560  10.604 -2.1408 -1.2561  1.0098
  182SLPC  H11B20821   5.728   1.502  10.650 -0.9773  0.0896  0.2217
  182SLPC     P20822   5.509   1.709  10.840  0.1271 -0.6901  0.6343
  182SLPC   O1320823   5.392   1.619  10.863  0.0623 -0.3936  0.1663
  182SLPC   O1420824   5.538   1.803  10.946 -0.4413 -0.2901  0.3639
  182SLPC   O1220825   5.631   1.622  10.793  0.3672 -1.0071  0.2699
  182SLPC   O1120826   5.476   1.797  10.711  0.9060 -0.1761  0.2388
  182SLPC    C120827   5.578   1.851  10.633  0.5841 -0.1018 -0.1577
  182SLPC    HA20828   5.668   1.870  10.695 -0.3504 -1.4780  1.6533
  182SLPC    HB20829   5.592   1.783  10.546 -2.3936  1.3395 -1.8063
  182SLPC    C220830   5.544   1.991  10.575 -0.1092  0.0050  0.8461
  182SLPC    HS20831   5.523   2.062  10.657 -3.3477 -0.4084  0.4448
  182SLPC   O2120832   5.438   1.989  10.473 -0.1142  0.1463  0.3772
  182SLPC   C2120833   5.385   2.113  10.463 -0.4933  0.3800 -0.0865
  182SLPC   O2220834   5.428   2.205  10.528  0.0141  0.6125  0.6132
  182SLPC   C2220835   5.261   2.108  10.369  0.0797  0.2256 -0.2483
  182SLPC   H2R20836   5.169   2.075  10.423  1.4291  1.3499  2.8544
  182SLPC   H2S20837   5.261   2.211  10.327 -1.2365 -0.4420 -1.9506
  182SLPC    C320838   5.681   2.049  10.510  0.1486 -0.7157 -0.0861
  182SLPC    HX20839   5.767   2.075  10.576  0.7713 -1.2128 -0.6934
  182SLPC    HY20840   5.651   2.146  10.464 -0.1387  0.2778  2.1195
  182SLPC   O3120841   5.736   1.965  10.411 -0.2892  0.1004  0.4077
  182SLPC   C3120842   5.707   1.981  10.284 -0.2577 -0.4441  0.0138
  182SLPC   O3220843   5.632   2.068  10.241 -0.1020  0.1533 -0.0209
  182SLPC   C3220844   5.795   1.886  10.201  0.3512 -0.4032 -0.7911
  182SLPC   H2X20845   5.738   1.865  10.108 -2.7490 -2.1776  1.4273
  182SLPC   H2Y20846   5.798   1.793  10.262  0.9584 -0.1592 -0.4431
  182SLPC   C2320847   5.285   2.010  10.244 -0.1124  0.2971 -0.1903
  182SLPC   H3R20848   5.299   1.907  10.284  0.4065  0.5830  0.3679
  182SLPC   H3S20849   5.384   2.038  10.202 -0.2963  4.8718  2.2089
  182SLPC   C2420850   5.164   2.019  10.151  0.2504 -1.1265  0.1316
  182SLPC   H4R20851   5.141   2.122  10.118  0.8306 -1.0061  0.0864
  182SLPC   H4S20852   5.077   1.984  10.210 -0.4867  0.9022  0.2445
  182SLPC   C2520853   5.177   1.933  10.024 -0.2752  0.6222  0.0407
  182SLPC   H5R20854   5.069   1.932   9.998 -0.1364 -3.0153 -0.6266
  182SLPC   H5S20855   5.201   1.830  10.059  0.1549  0.1177 -1.6807
  182SLPC   C2620856   5.246   2.001   9.896 -0.1333  0.2052 -0.0582
  182SLPC   H6R20857   5.349   2.022   9.932 -0.4506 -0.5849  1.3927
  182SLPC   H6S20858   5.182   2.091   9.885  0.1624  0.3714 -0.3966
  182SLPC   C2720859   5.233   1.919   9.767  0.6967 -0.1136 -0.0386
  182SLPC   H7R20860   5.261   1.817   9.800  0.4711 -0.7978 -1.8915
  182SLPC   H7S20861   5.307   1.967   9.699  0.6130  1.7399  1.1284
  182SLPC   C2820862   5.094   1.923   9.701  0.5759 -0.3341 -0.7436
  182SLPC   H8R20863   5.092   2.011   9.634  1.9475 -0.7227 -1.3079
  182SLPC   H8S20864   5.020   1.920   9.785  0.0735 -1.2002 -1.2047
  182SLPC   C2920865   5.082   1.793   9.626  0.9872  0.4726 -0.5466
  182SLPC   H9R20866   5.073   1.704   9.690 -2.3726  1.0680 -0.0734
  182SLPC  C21020867   5.077   1.775   9.489  0.5352  0.4705 -0.2808
  182SLPC  H10R20868   5.082   1.677   9.440  0.8213 -0.7871  2.1782
  182SLPC  C21120869   5.074   1.894   9.392 -0.4121  0.7035  0.2441
  182SLPC  H11R20870   5.006   1.973   9.431 -2.1060  0.3115 -1.7949
  182SLPC  H11S20871   5.040   1.858   9.293 -0.4815 -0.4316  0.6742
  182SLPC  C21220872   5.214   1.942   9.366 -0.3779  0.2874 -0.6633
  182SLPC  H12R20873   5.280   1.948   9.454 -3.4319 -0.8808  1.8119
  182SLPC  C21320874   5.260   1.991   9.249 -0.3593 -0.3790 -0.2065
  182SLPC  H13R20875   5.365   2.026   9.245 -0.0203 -1.5140 -1.4277
  182SLPC  C21420876   5.185   2.009   9.117  0.2093  0.0794 -0.2032
  182SLPC  H14R20877   5.238   2.073   9.044 -0.6811  2.2845  1.0294
  182SLPC  H14S20878   5.081   2.044   9.134 -0.4096 -1.1720 -1.3488
  182SLPC  C21520879   5.153   1.876   9.046 -0.1185 -0.0413  0.0550
  182SLPC  H15R20880   5.116   1.797   9.115  1.6178  0.3103  1.4082
  182SLPC  H15S20881   5.238   1.839   8.985 -0.4765  2.6369 -2.1667
  182SLPC  C21620882   5.039   1.899   8.940 -0.1103 -0.4405  0.3332
  182SLPC  H16R20883   5.066   1.953   8.847  0.2680 -1.6290 -0.2475
  182SLPC  H16S20884   4.959   1.958   8.990 -0.5453 -1.7240  1.1583
  182SLPC  C21720885   4.980   1.771   8.880  0.2075  0.8031 -0.0516
  182SLPC  H17R20886   4.965   1.709   8.971 -0.3650  2.2073  0.8272
  182SLPC  H17S20887   5.063   1.731   8.818 -0.1145  0.7623 -0.4574
  182SLPC  C21820888   4.843   1.784   8.816  0.1260 -0.4375 -0.3914
  182SLPC  H18R20889   4.846   1.833   8.716 -0.3085  2.1750  0.8323
  182SLPC  H18S20890   4.772   1.840   8.881  1.2133 -0.6268  0.9876
  182SLPC  H18T20891   4.804   1.681   8.802  0.9097 -0.1610 -5.5228
  182SLPC   C3320892   5.933   1.945  10.165 -0.4241 -0.0228  0.1585
  182SLPC   H3X20893   5.981   1.860  10.112  1.9825 -0.1739  2.4748
  182SLPC   H3Y20894   5.992   1.963  10.257  1.8405 -0.2504 -1.1930
  182SLPC   C3420895   5.934   2.055  10.062  0.5952  0.2421  0.0752
  182SLPC   H4X20896   6.036   2.097  10.070  0.4923  0.9351 -1.8555
  182SLPC   H4Y20897   5.865   2.137  10.091  1.7939  1.7783 -1.3446
  182SLPC   C3520898   5.911   2.013   9.912 -0.3090  0.4897  0.1145
  182SLPC   H5X20899   5.809   1.978   9.886  0.9603 -1.8713 -1.8484
  182SLPC   H5Y20900   5.980   1.929   9.891  1.0865  1.0222  2.3922
  182SLPC   C3620901   5.938   2.120   9.805  0.3290 -0.0461 -0.3735
  182SLPC   H6X20902   6.036   2.159   9.841 -0.1771 -1.0208  2.2378
  182SLPC   H6Y20903   5.864   2.203   9.810  1.7365  1.2126 -0.1181
  182SLPC   C3720904   5.942   2.066   9.668  0.2899 -0.2072  0.0802
  182SLPC   H7X20905   5.839   2.054   9.628 -0.4197  3.1382  0.7733
  182SLPC   H7Y20906   5.994   1.968   9.674  0.2516 -0.1763  0.9155
  182SLPC   C3820907   6.020   2.154   9.574 -0.0038 -0.3615 -0.2420
  182SLPC   H8X20908   6.129   2.165   9.596 -0.1540  0.2118  0.2348
  182SLPC   H8Y20909   5.990   2.260   9.581  0.1715 -0.3352  0.1213
  182SLPC   C3920910   5.997   2.120   9.423  0.8048 -0.4672  0.9657
  182SLPC   H9X20911   5.886   2.128   9.417  0.9081  0.1638 -0.3047
  182SLPC   H9Y20912   6.025   2.019   9.386 -0.0898 -0.2389 -0.3958
  182SLPC  C31020913   6.084   2.217   9.336 -0.1270 -0.2692 -0.1040
  182SLPC  H10X20914   6.191   2.196   9.361 -0.0461 -0.6848 -0.8150
  182SLPC  H10Y20915   6.065   2.319   9.377 -4.0139 -0.2024 -1.9236
  182SLPC  C31120916   6.066   2.208   9.184 -0.1112 -0.0971 -0.6600
  182SLPC  H11X20917   5.958   2.196   9.161 -0.2865  1.9305 -1.0346
  182SLPC  H11Y20918   6.119   2.116   9.150 -2.2390 -2.5798  2.5208
  182SLPC  C31220919   6.127   2.327   9.110  0.1115 -0.1128 -0.5446
  182SLPC  H12X20920   6.236   2.309   9.109 -0.0701 -1.3762  0.2605
  182SLPC  H12Y20921   6.105   2.423   9.160  1.3716 -0.5219  0.8297
  182SLPC  C31320922   6.087   2.330   8.967 -0.1646 -0.0209 -0.6545
  182SLPC  H13X20923   5.976   2.327   8.968 -0.1664  0.3158  1.2687
  182SLPC  H13Y20924   6.125   2.232   8.931  1.4716 -0.3425  1.8493
  182SLPC  C31420925   6.138   2.448   8.884 -0.6048 -0.3860 -0.4220
  182SLPC  H14X20926   6.074   2.538   8.878 -0.9103 -0.4620  1.4553
  182SLPC  H14Y20927   6.140   2.411   8.779  0.0909  0.1046 -0.5872
  182SLPC  C31520928   6.269   2.511   8.931 -0.3113 -0.0133 -0.9273
  182SLPC  H15X20929   6.349   2.435   8.921 -0.0857 -0.2522  2.1288
  182SLPC  H15Y20930   6.267   2.547   9.036 -2.2406  0.7906 -1.2267
  182SLPC  C31620931   6.311   2.639   8.847  0.0100  0.5073 -0.8488
  182SLPC  H16X20932   6.398   2.687   8.896  0.3823 -0.2634 -0.7494
  182SLPC  H16Y20933   6.229   2.713   8.861  1.1507  1.2496  2.2784
  182SLPC  C31720934   6.345   2.593   8.703 -0.3725  0.0733 -0.1803
  182SLPC  H17X20935   6.249   2.584   8.648 -0.3178  0.1565 -0.2881
  182SLPC  H17Y20936   6.390   2.491   8.703 -0.0959  0.1809 -2.8232
  182SLPC  C31820937   6.450   2.684   8.639  0.3527 -0.4103 -0.3192
  182SLPC  H18X20938   6.450   2.649   8.533 -0.8451 -3.5441  0.6826
  182SLPC  H18Y20939   6.548   2.672   8.689 -0.0767 -0.0764  0.6173
  182SLPC  H18Z20940   6.401   2.784   8.642  0.6866 -0.1943 -1.5705
  183SLPC     N20941   0.544   3.047  10.993 -1.3614  0.3583  0.0171
  183SLPC   C1320942   0.689   3.020  10.949  0.0927 -1.0576 -0.4549
  183SLPC  H13A20943   0.754   3.106  10.955 -1.3026 -0.0454  0.3845
  183SLPC  H13B20944   0.726   2.939  11.010 -1.1692 -0.5110  1.0667
  183SLPC  H13C20945   0.685   2.995  10.844 -1.9778 -0.8204 -0.4489
  183SLPC   C1420946   0.497   3.169  10.921  0.0608 -0.2816  0.9682
  183SLPC  H14A20947   0.574   3.244  10.934 -0.9086  0.6393  1.4470
  183SLPC  H14B20948   0.476   3.152  10.816  1.1859 -1.5024  0.9259
  183SLPC  H14C20949   0.408   3.214  10.961 -1.3222  0.7233 -2.9301
  183SLPC   C1520950   0.540   3.078  11.144 -0.1695 -0.0960  0.4583
  183SLPC  H15A20951   0.572   2.986  11.192 -1.3868 -1.8066 -1.9073
  183SLPC  H15B20952   0.606   3.162  11.160 -1.4225  1.2473 -1.3076
  183SLPC  H15C20953   0.437   3.100  11.169 -0.1361  0.6191 -0.0364
  183SLPC   C1220954   0.463   2.916  10.969  0.5646  1.3295  0.3093
  183SLPC  H12A20955   0.358   2.936  10.977  0.3184  0.7922 -1.3861
  183SLPC  H12B20956   0.481   2.843  11.047 -1.2801 -1.0675 -1.3992
  183SLPC   C1120957   0.472   2.854  10.825 -0.2281 -0.2853 -0.2434
  183SLPC  H11A20958   0.396   2.772  10.831 -1.6881  1.1681  1.7258
  183SLPC  H11B20959   0.573   2.810  10.814 -0.5472 -1.1386  0.1650
  183SLPC     P20960   0.298   2.995  10.688  0.0914  0.0642  0.1520
  183SLPC   O1320961   0.201   2.940  10.781  0.3243 -0.0260 -0.0725
  183SLPC   O1420962   0.297   3.140  10.674  0.5836 -0.0224  0.4884
  183SLPC   O1220963   0.443   2.952  10.731  0.0195  0.8632 -0.0414
  183SLPC   O1120964   0.268   2.925  10.547 -0.1535  0.3620  0.0996
  183SLPC    C120965   0.371   2.898  10.448 -1.2514  0.3643  0.1904
  183SLPC    HA20966   0.445   2.980  10.459  1.8747 -2.4835  1.2733
  183SLPC    HB20967   0.426   2.805  10.472 -0.3236  1.0036  0.5907
  183SLPC    C220968   0.332   2.899  10.300 -0.0328  0.3559  0.3934
  183SLPC    HS20969   0.281   2.996  10.284 -1.3864 -0.7215 -2.1663
  183SLPC   O2120970   0.241   2.788  10.271  0.1340  0.1735 -0.0828
  183SLPC   C2120971   0.128   2.816  10.211 -0.0320 -0.7427  0.2379
  183SLPC   O2220972   0.098   2.922  10.159  0.0127  0.1989  0.0922
  183SLPC   C2220973   0.043   2.685  10.221 -0.0020 -0.1031  0.1247
  183SLPC   H2R20974   0.111   2.600  10.245 -2.0769 -2.4652 -2.1340
  183SLPC   H2S20975  -0.023   2.696  10.310  1.0652 -0.2845  0.9582
  183SLPC    C320976   0.471   2.891  10.218  0.2983  0.3705 -0.0015
  183SLPC    HX20977   0.501   2.785  10.234 -1.4088 -0.3443 -1.4376
  183SLPC    HY20978   0.540   2.962  10.269 -0.4797 -0.1463  1.8320
  183SLPC   O3120979   0.454   2.901  10.076  0.2362  0.4881 -0.0885
  183SLPC   C3120980   0.434   3.028  10.034 -0.0173  0.7165 -0.6244
  183SLPC   O3220981   0.451   3.128  10.102 -0.2353  0.0530 -0.5387
  183SLPC   C3220982   0.373   3.023   9.893 -0.2912 -0.6914 -0.6682
  183SLPC   H2X20983   0.373   3.128   9.856 -0.5425 -0.7067 -0.7086
  183SLPC   H2Y20984   0.266   2.995   9.906 -0.3868 -1.2365 -2.5344
  183SLPC   C2320985  -0.040   2.666  10.092  0.0013 -0.0023  0.6464
  183SLPC   H3R20986  -0.102   2.758  10.091  1.0013  0.7518  2.8114
  183SLPC   H3S20987  -0.104   2.580  10.120 -0.5404  0.5706  1.1845
  183SLPC   C2420988   0.054   2.627   9.974  0.0521  0.1940  0.2861
  183SLPC   H4R20989   0.106   2.533  10.001  0.1940 -0.0555 -0.8008
  183SLPC   H4S20990   0.128   2.709   9.954 -1.2807  1.4181  0.3050
  183SLPC   C2520991  -0.027   2.601   9.846  0.6838  0.8918 -0.6264
  183SLPC   H5R20992  -0.103   2.679   9.823 -1.8956 -1.4234 -0.1747
  183SLPC   H5S20993  -0.075   2.501   9.854 -0.6677  1.6861  1.7749
  183SLPC   C2620994   0.057   2.615   9.720 -0.3861  0.5197 -0.2314
  183SLPC   H6R20995   0.137   2.538   9.724 -2.9997 -2.2968 -0.4352
  183SLPC   H6S20996   0.113   2.711   9.723  0.6068 -0.0608  0.1304
  183SLPC   C2720997  -0.026   2.600   9.596 -0.5048 -0.8245 -0.2946
  183SLPC   H7R20998  -0.093   2.688   9.585 -0.0351 -0.4437 -0.1170
  183SLPC   H7S20999  -0.100   2.518   9.610 -0.1249 -0.8685  1.4820
  183SLPC   C2821000   0.040   2.565   9.459  0.2544 -0.4187 -0.4217
  183SLPC   H8R21001  -0.044   2.537   9.391 -0.2059 -3.3836  1.2854
  183SLPC   H8S21002   0.096   2.469   9.462  1.4365  0.1217 -3.0480
  183SLPC   C2921003   0.126   2.679   9.401 -0.0818 -0.3845  0.2242
  183SLPC   H9R21004   0.166   2.742   9.482  1.8218  1.3903 -2.0023
  183SLPC  C21021005   0.158   2.700   9.274  0.2622  0.2279 -0.1581
  183SLPC  H10R21006   0.228   2.781   9.247 -1.1367  1.5389  0.1084
  183SLPC  C21121007   0.127   2.618   9.153 -0.5186  0.2618 -0.6635
  183SLPC  H11R21008   0.127   2.516   9.198  0.3960  1.2016  1.5593
  183SLPC  H11S21009   0.213   2.632   9.085 -1.0613  0.9145 -1.2285
  183SLPC  C21221010  -0.005   2.655   9.091  0.4973  1.0750 -0.7013
  183SLPC  H12R21011  -0.099   2.634   9.145  1.7130 -1.0285  0.6347
  183SLPC  C21321012  -0.020   2.739   8.988 -0.0620  0.0140 -0.5774
  183SLPC  H13R21013  -0.117   2.768   8.947  0.1638  0.6746 -0.6490
  183SLPC  C21421014   0.089   2.805   8.903  0.3632  0.1659 -0.1245
  183SLPC  H14R21015   0.187   2.754   8.916  0.2234 -0.3182 -0.9032
  183SLPC  H14S21016   0.086   2.910   8.940 -1.3326 -0.8893  2.8966
  183SLPC  C21521017   0.059   2.814   8.751  0.0327  0.5562  0.2671
  183SLPC  H15R21018   0.037   2.719   8.698 -1.3516  0.0289  1.7438
  183SLPC  H15S21019   0.156   2.855   8.715 -0.2483  0.9933 -0.0031
  183SLPC  C21621020  -0.056   2.916   8.723 -0.0460  0.0796 -0.8980
  183SLPC  H16R21021  -0.028   3.019   8.753 -0.7666 -0.4169  1.5751
  183SLPC  H16S21022  -0.148   2.881   8.774  1.1789  0.7715  1.8911
  183SLPC  C21721023  -0.078   2.901   8.572 -0.6586 -0.1857 -0.1238
  183SLPC  H17R21024  -0.179   2.938   8.546  1.3334  4.7739 -1.4251
  183SLPC  H17S21025  -0.072   2.792   8.553 -1.5035  0.1084 -2.1849
  183SLPC  C21821026   0.021   2.978   8.481 -0.6349 -0.0518 -0.2371
  183SLPC  H18R21027   0.002   2.950   8.375 -1.2832  0.4074 -0.2469
  183SLPC  H18S21028   0.125   2.953   8.511 -0.8831 -1.5906 -0.6584
  183SLPC  H18T21029   0.027   3.088   8.496  3.2286 -0.2015 -0.0551
  183SLPC   C3321030   0.465   2.946   9.802  0.1100 -0.4396 -0.2078
  183SLPC   H3X21031   0.445   2.837   9.818  1.0403 -0.2662  2.3928
  183SLPC   H3Y21032   0.571   2.974   9.821 -0.0225 -0.9661  1.4882
  183SLPC   C3421033   0.444   2.981   9.657  0.5569  0.0886  0.2755
  183SLPC   H4X21034   0.333   2.992   9.650  0.3160 -1.3539  1.5157
  183SLPC   H4Y21035   0.486   2.907   9.586 -1.8387 -0.3672 -0.7274
  183SLPC   C3521036   0.514   3.111   9.622  0.2666  0.4225 -0.6368
  183SLPC   H5X21037   0.623   3.087   9.616  0.2561  0.1084  0.4249
  183SLPC   H5Y21038   0.514   3.188   9.702  1.2380 -1.1050  0.8630
  183SLPC   C3621039   0.461   3.167   9.491 -0.2501 -0.0211 -0.9584
  183SLPC   H6X21040   0.525   3.254   9.463  1.4121 -0.5784  0.9937
  183SLPC   H6Y21041   0.359   3.209   9.485  0.0518  1.1048  1.3319
  183SLPC   C3721042   0.467   3.069   9.373 -0.5950  0.3395 -0.2959
  183SLPC   H7X21043   0.416   2.972   9.386  1.0867 -0.4503  0.6962
  183SLPC   H7Y21044   0.574   3.046   9.354 -0.3888 -1.3610  2.6077
  183SLPC   C3821045   0.413   3.131   9.245  0.5613 -0.2415 -0.4308
  183SLPC   H8X21046   0.465   3.225   9.218  2.6866 -1.0847  0.6400
  183SLPC   H8Y21047   0.305   3.149   9.263  1.0047  0.0129  2.1586
  183SLPC   C3921048   0.407   3.027   9.130 -0.2750 -0.1621  0.1090
  183SLPC   H9X21049   0.365   3.075   9.039  3.1696  1.4126 -0.7629
  183SLPC   H9Y21050   0.346   2.940   9.163  1.1541 -0.0432  3.3048
  183SLPC  C31021051   0.553   2.976   9.098  0.1732 -0.0251 -0.1806
  183SLPC  H10X21052   0.604   2.926   9.183  0.7582 -0.5223 -0.8027
  183SLPC  H10Y21053   0.621   3.059   9.067  0.2087  1.0400  2.6285
  183SLPC  C31121054   0.558   2.878   8.980 -0.3651  0.3366  0.2820
  183SLPC  H11X21055   0.504   2.913   8.890  0.1395 -0.8840 -0.5006
  183SLPC  H11Y21056   0.501   2.790   9.016  0.5960 -0.7301 -0.7570
  183SLPC  C31221057   0.693   2.832   8.936 -0.5591  0.1512 -0.9657
  183SLPC  H12X21058   0.732   2.761   9.012 -4.4676 -0.6350  0.4762
  183SLPC  H12Y21059   0.762   2.914   8.911 -1.5869  1.4780  0.4948
  183SLPC  C31321060   0.669   2.760   8.799 -0.0469 -0.3458 -1.1016
  183SLPC  H13X21061   0.617   2.835   8.735 -0.7774  0.3327  0.2525
  183SLPC  H13Y21062   0.600   2.673   8.805  0.7098 -0.9261 -0.7097
  183SLPC  C31421063   0.811   2.734   8.741 -0.4223  0.1768 -0.8682
  183SLPC  H14X21064   0.864   2.673   8.818 -1.4218  2.3714  1.6234
  183SLPC  H14Y21065   0.873   2.823   8.717 -1.2472  0.8455 -0.5452
  183SLPC  C31521066   0.791   2.657   8.608 -0.1305 -0.1372  0.2912
  183SLPC  H15X21067   0.888   2.617   8.571 -0.8205 -0.9227 -0.7063
  183SLPC  H15Y21068   0.756   2.718   8.522  1.9685 -1.5248 -1.6043
  183SLPC  C31621069   0.707   2.529   8.611 -0.4246  0.2864  0.5054
  183SLPC  H16X21070   0.603   2.565   8.630 -1.3263 -2.1811  0.3739
  183SLPC  H16Y21071   0.742   2.474   8.701 -1.6957  1.3700  1.6909
  183SLPC  C31721072   0.701   2.440   8.484 -0.4347  0.5726 -0.3182
  183SLPC  H17X21073   0.803   2.429   8.440 -0.1671  1.9849 -0.0572
  183SLPC  H17Y21074   0.637   2.496   8.413  0.0251 -0.5355 -1.6364
  183SLPC  C31821075   0.631   2.307   8.519 -0.0577  0.3447  0.5321
  183SLPC  H18X21076   0.682   2.242   8.594 -0.8087 -1.7706 -0.7467
  183SLPC  H18Y21077   0.636   2.244   8.428  1.7468 -2.3238  2.3944
  183SLPC  H18Z21078   0.523   2.322   8.539  0.5451  1.2358  3.4857
  184SLPC     N21079   1.622   0.936  10.853 -0.1876 -0.7016 -0.2035
  184SLPC   C1321080   1.524   0.892  10.961 -0.1628  0.2628  0.4229
  184SLPC  H13A21081   1.543   0.787  10.978 -2.6849 -0.6231 -1.7437
  184SLPC  H13B21082   1.553   0.941  11.053  1.3424  1.1136 -0.4899
  184SLPC  H13C21083   1.421   0.907  10.932  0.6267  2.9776 -1.1201
  184SLPC   C1421084   1.758   0.905  10.912 -0.6289 -0.3158 -0.5144
  184SLPC  H14A21085   1.763   0.800  10.938 -0.6213 -0.1127  0.3000
  184SLPC  H14B21086   1.838   0.913  10.840  0.5557  0.0589  0.8184
  184SLPC  H14C21087   1.768   0.958  11.005 -0.5403 -1.4011  0.1022
  184SLPC   C1521088   1.596   1.078  10.814 -0.0301  0.1068  0.2900
  184SLPC  H15A21089   1.632   1.104  10.716  0.0383  0.8769  0.5133
  184SLPC  H15B21090   1.490   1.094  10.796 -0.1400  0.1728  0.9734
  184SLPC  H15C21091   1.640   1.151  10.880 -1.2772  1.1289  0.0131
  184SLPC   C1221092   1.605   0.841  10.737 -0.5227 -0.1242  0.4775
  184SLPC  H12A21093   1.505   0.857  10.701  0.2330  1.6348 -0.9127
  184SLPC  H12B21094   1.608   0.740  10.776  1.3772 -0.2509  0.0607
  184SLPC   C1121095   1.717   0.840  10.622  0.3615  0.0558 -0.6698
  184SLPC  H11A21096   1.752   0.942  10.598  1.7834 -0.5972 -1.4541
  184SLPC  H11B21097   1.679   0.801  10.525  0.6541  2.6112 -1.8610
  184SLPC     P21098   1.825   0.602  10.657 -0.0440  0.6765 -0.2285
  184SLPC   O1321099   1.961   0.550  10.688  0.6150 -0.1640 -0.2026
  184SLPC   O1421100   1.710   0.552  10.737  0.1661 -0.4271 -0.2280
  184SLPC   O1221101   1.832   0.761  10.662 -0.8391  0.2777  0.6260
  184SLPC   O1121102   1.781   0.564  10.506 -0.5475 -0.6719  0.1432
  184SLPC    C121103   1.859   0.630  10.403 -0.4199  0.2994 -0.3320
  184SLPC    HA21104   1.816   0.726  10.368 -0.4860  0.8401  1.1788
  184SLPC    HB21105   1.965   0.647  10.433 -0.2017 -1.9524  0.2648
  184SLPC    C221106   1.868   0.530  10.286 -0.1005  0.1336  0.1795
  184SLPC    HS21107   1.960   0.469  10.297 -0.3194 -0.1113  0.6345
  184SLPC   O2121108   1.866   0.602  10.163  0.2682 -1.3098 -0.3334
  184SLPC   C2121109   1.966   0.679  10.130  0.5829 -0.4743 -0.5268
  184SLPC   O2221110   2.058   0.712  10.202  0.5299 -0.5902 -0.7449
  184SLPC   C2221111   1.963   0.729   9.986  0.7416  0.1170 -0.6810
  184SLPC   H2R21112   1.896   0.655   9.936  0.5221  0.7038 -1.2639
  184SLPC   H2S21113   1.929   0.835   9.988 -1.6014 -0.6330  1.5760
  184SLPC    C321114   1.758   0.419  10.284 -0.2926 -0.0371  0.1225
  184SLPC    HX21115   1.657   0.465  10.276 -0.6335 -0.5971  1.0959
  184SLPC    HY21116   1.766   0.373  10.385 -1.0352 -0.5393 -0.0413
  184SLPC   O3121117   1.768   0.331  10.169  0.2119  0.1569  0.7466
  184SLPC   C3121118   1.855   0.226  10.187 -0.2163  0.0483  0.2771
  184SLPC   O3221119   1.926   0.211  10.283 -0.1678  0.4643 -0.3084
  184SLPC   C3221120   1.844   0.131  10.070 -1.5215 -0.0378  0.1588
  184SLPC   H2X21121   1.748   0.142  10.015 -0.5369 -2.8432 -2.2352
  184SLPC   H2Y21122   1.834   0.033  10.121 -0.4744  0.1531  0.7512
  184SLPC   C2321123   2.105   0.728   9.924 -0.0703 -0.4162 -0.5061
  184SLPC   H3R21124   2.166   0.644   9.963 -0.2574 -1.0993 -1.6530
  184SLPC   H3S21125   2.152   0.828   9.937 -3.0224  0.8298  1.1416
  184SLPC   C2421126   2.106   0.705   9.771  0.4722 -0.5440  0.0538
  184SLPC   H4R21127   2.054   0.608   9.759 -0.9347  0.3561 -1.3220
  184SLPC   H4S21128   2.209   0.684   9.734 -0.8685 -1.2425 -3.4104
  184SLPC   C2521129   2.032   0.813   9.685 -0.5270 -0.3732 -0.1638
  184SLPC   H5R21130   2.090   0.907   9.690  0.2472 -0.9734  3.2048
  184SLPC   H5S21131   1.929   0.830   9.724 -0.1106  1.9074 -0.0106
  184SLPC   C2621132   2.014   0.757   9.539 -0.1875  0.4485 -0.5792
  184SLPC   H6R21133   2.114   0.758   9.493  0.8771  2.9117  1.6752
  184SLPC   H6S21134   1.955   0.832   9.482 -0.2670  1.8118  1.2613
  184SLPC   C2721135   1.939   0.623   9.519  0.0502 -0.1081 -0.1955
  184SLPC   H7R21136   1.847   0.625   9.582  2.0677  1.4069  2.8273
  184SLPC   H7S21137   2.005   0.539   9.550 -2.2612 -1.2695  1.8334
  184SLPC   C2821138   1.898   0.609   9.372 -0.3331  0.1188  0.6688
  184SLPC   H8R21139   1.827   0.690   9.344 -0.5091 -0.5370 -0.8724
  184SLPC   H8S21140   1.834   0.520   9.358  1.5134 -1.3957  1.5542
  184SLPC   C2921141   2.015   0.611   9.272 -0.3519 -0.6339 -0.5322
  184SLPC   H9R21142   2.042   0.704   9.221  1.2276 -0.5231  0.4795
  184SLPC  C21021143   2.069   0.502   9.221 -0.8412 -0.2840  0.7100
  184SLPC  H10R21144   2.159   0.513   9.159 -1.8004  0.3857 -0.5742
  184SLPC  C21121145   2.032   0.367   9.246 -0.0153  0.1258  0.4531
  184SLPC  H11R21146   1.951   0.343   9.173  1.1039 -0.7989 -0.5012
  184SLPC  H11S21147   1.993   0.346   9.348 -1.0594 -0.9725 -0.1563
  184SLPC  C21221148   2.152   0.275   9.231  0.2248 -0.9321  0.4291
  184SLPC  H12R21149   2.227   0.286   9.310  0.6440 -0.8676  0.0205
  184SLPC  C21321150   2.187   0.186   9.130 -0.1073 -0.6704  0.7972
  184SLPC  H13R21151   2.282   0.135   9.148 -0.5031 -1.3044  1.1365
  184SLPC  C21421152   2.111   0.137   9.008 -0.1027  0.2452 -0.5335
  184SLPC  H14R21153   2.021   0.091   9.055  0.1266  0.8701  0.5424
  184SLPC  H14S21154   2.141   0.043   8.958  0.8492 -0.2235  0.9054
  184SLPC  C21521155   2.050   0.228   8.907 -0.5457  0.1012 -0.0150
  184SLPC  H15R21156   1.967   0.281   8.958  0.3988 -0.3216  2.0555
  184SLPC  H15S21157   2.003   0.153   8.840 -1.8003 -0.6628  1.6816
  184SLPC  C21621158   2.150   0.319   8.833  0.3521  0.4916 -0.8522
  184SLPC  H16R21159   2.215   0.258   8.766 -0.9392 -1.9645  0.0786
  184SLPC  H16S21160   2.206   0.365   8.917 -1.1799  2.8606 -1.0804
  184SLPC  C21721161   2.091   0.440   8.758 -0.2256 -0.1540 -0.0008
  184SLPC  H17R21162   2.158   0.488   8.683 -1.0325  1.2702  0.1787
  184SLPC  H17S21163   2.059   0.522   8.825  0.0480  0.0418 -0.1068
  184SLPC  C21821164   1.973   0.402   8.664 -0.1092  0.2542  0.1214
  184SLPC  H18R21165   1.928   0.489   8.612  0.2432 -0.5347 -1.5508
  184SLPC  H18S21166   1.889   0.361   8.723  1.5462 -2.0126  0.9554
  184SLPC  H18T21167   2.003   0.326   8.589 -0.4836  2.4458 -2.3171
  184SLPC   C3321168   1.965   0.136   9.978 -0.3283 -0.0853  0.6427
  184SLPC   H3X21169   1.962   0.048   9.910  0.1315 -1.0820  1.8879
  184SLPC   H3Y21170   2.060   0.105  10.027 -0.7084  0.3447  1.6790
  184SLPC   C3421171   1.979   0.268   9.904 -0.1424  0.1129  0.7398
  184SLPC   H4X21172   2.082   0.277   9.863 -0.5528  0.0727 -0.3100
  184SLPC   H4Y21173   1.981   0.361   9.966  3.2200  0.8408 -0.3942
  184SLPC   C3521174   1.862   0.291   9.810  0.1588  0.0481 -0.1932
  184SLPC   H5X21175   1.870   0.382   9.747 -1.1982  0.2854 -0.0442
  184SLPC   H5Y21176   1.766   0.311   9.862 -0.8117  0.5839 -2.1216
  184SLPC   C3621177   1.830   0.175   9.708  0.3129  0.1114  0.1737
  184SLPC   H6X21178   1.782   0.088   9.757  0.5181  0.3207  0.7401
  184SLPC   H6Y21179   1.922   0.141   9.655 -0.2661 -1.7217  0.3213
  184SLPC   C3721180   1.730   0.215   9.601 -0.5337  0.7570 -0.3014
  184SLPC   H7X21181   1.739   0.319   9.562 -0.4542  1.2376  0.9669
  184SLPC   H7Y21182   1.628   0.203   9.644  0.0440 -1.6816  0.4397
  184SLPC   C3821183   1.743   0.115   9.485  0.2888  0.4746 -0.3272
  184SLPC   H8X21184   1.691   0.017   9.492 -4.3100  2.9222  1.7557
  184SLPC   H8Y21185   1.852   0.097   9.474 -0.1295 -2.1468 -0.4181
  184SLPC   C3921186   1.693   0.179   9.355 -0.6427 -0.2003  0.3922
  184SLPC   H9X21187   1.747   0.274   9.339 -4.4264  1.8644 -0.6330
  184SLPC   H9Y21188   1.583   0.189   9.366 -0.5016  2.5635 -0.4989
  184SLPC  C31021189   1.717   0.081   9.242 -0.1750 -0.2938  0.2888
  184SLPC  H10X21190   1.682  -0.018   9.277 -0.1562 -0.7995 -1.1048
  184SLPC  H10Y21191   1.823   0.064   9.214  0.0045  0.9840  0.1576
  184SLPC  C31121192   1.635   0.109   9.122  0.3783  0.2065  0.3959
  184SLPC  H11X21193   1.687   0.192   9.070 -0.8039 -0.5015 -1.9657
  184SLPC  H11Y21194   1.531   0.134   9.151 -0.1910 -1.4255 -0.1546
  184SLPC  C31221195   1.628  -0.010   9.023 -0.0310 -0.4749 -0.0307
  184SLPC  H12X21196   1.569   0.031   8.937  2.3987  3.7679  0.1790
  184SLPC  H12Y21197   1.575  -0.090   9.079 -4.7519  1.6730 -1.1546
  184SLPC  C31321198   1.766  -0.051   8.975  0.0614 -0.2699 -0.2425
  184SLPC  H13X21199   1.828  -0.101   9.052 -0.4269 -1.2634 -0.4832
  184SLPC  H13Y21200   1.812   0.046   8.947 -1.7914 -0.1077 -2.8804
  184SLPC  C31421201   1.764  -0.150   8.860 -0.6727 -0.5589 -0.6655
  184SLPC  H14X21202   1.700  -0.114   8.777  1.8740 -0.6392 -2.7429
  184SLPC  H14Y21203   1.733  -0.251   8.894  0.6282 -1.5275 -2.3147
  184SLPC  C31521204   1.910  -0.158   8.807  0.5312  0.0928 -0.3703
  184SLPC  H15X21205   1.966  -0.064   8.795 -0.4963  0.4615 -2.4724
  184SLPC  H15Y21206   1.902  -0.197   8.703  1.9198  0.3673 -0.5848
  184SLPC  C31621207   1.991  -0.268   8.888  0.4220 -0.0458  0.0032
  184SLPC  H16X21208   1.935  -0.364   8.883  2.1897 -1.1517  0.9366
  184SLPC  H16Y21209   2.003  -0.235   8.993  0.4476  0.8080 -0.2588
  184SLPC  C31721210   2.125  -0.308   8.823 -0.0024  0.0070 -0.1620
  184SLPC  H17X21211   2.104  -0.338   8.718  3.5383 -2.1495 -0.3314
  184SLPC  H17Y21212   2.165  -0.398   8.874 -1.1046 -0.8846 -0.8192
  184SLPC  C31821213   2.223  -0.187   8.820 -0.0336  0.2046  0.3104
  184SLPC  H18X21214   2.232  -0.135   8.918  1.7414  1.1928 -0.3701
  184SLPC  H18Y21215   2.190  -0.107   8.750 -0.4618  0.8455  1.2352
  184SLPC  H18Z21216   2.324  -0.231   8.812 -0.6776 -1.1118 -0.7366
  185SLPC     N21217   0.302   3.206   6.166 -0.5878  0.1837 -0.4803
  185SLPC   C1321218   0.168   3.151   6.196  0.1675 -0.4452  0.1099
  185SLPC  H13A21219   0.177   3.085   6.281 -2.0023  1.4315  1.8508
  185SLPC  H13B21220   0.093   3.224   6.221 -0.5508  0.5522 -4.4455
  185SLPC  H13C21221   0.137   3.090   6.113  0.8141  0.3174 -0.7085
  185SLPC   C1421222   0.296   3.304   6.044 -0.0447 -0.9744 -0.1360
  185SLPC  H14A21223   0.208   3.366   6.053  0.4067  0.3197 -3.9822
  185SLPC  H14B21224   0.390   3.358   6.046 -1.3939  1.4235 -0.1870
  185SLPC  H14C21225   0.297   3.250   5.951  1.7416 -1.1328 -0.0397
  185SLPC   C1521226   0.397   3.089   6.135 -0.7366  0.3892 -0.1650
  185SLPC  H15A21227   0.431   3.046   6.228  1.4300 -0.3393 -1.2585
  185SLPC  H15B21228   0.342   3.020   6.074  1.6870 -0.6170 -1.2945
  185SLPC  H15C21229   0.492   3.111   6.088  0.2470 -2.1383  0.5341
  185SLPC   C1221230   0.344   3.293   6.284 -0.5811  0.0563  0.3439
  185SLPC  H12A21231   0.291   3.387   6.290  0.8074  1.1970 -3.5105
  185SLPC  H12B21232   0.441   3.319   6.245 -1.9345  0.6224 -2.8737
  185SLPC   C1121233   0.355   3.230   6.429 -0.3806 -0.0441 -0.7949
  185SLPC  H11A21234   0.262   3.170   6.433 -0.4800  0.1039 -0.8846
  185SLPC  H11B21235   0.355   3.303   6.514 -4.5951  1.4681 -1.9474
  185SLPC     P21236   0.612   3.164   6.415 -0.8030 -0.0443 -0.0457
  185SLPC   O1321237   0.649   3.061   6.318 -0.1094  0.2888  0.5318
  185SLPC   O1421238   0.630   3.305   6.377 -0.2583 -0.2359 -0.0952
  185SLPC   O1221239   0.458   3.140   6.438  0.1660  1.1013 -0.5023
  185SLPC   O1121240   0.678   3.132   6.556 -0.2421  0.2279  0.1431
  185SLPC    C121241   0.595   3.148   6.672 -0.0389 -0.7626  1.5296
  185SLPC    HA21242   0.534   3.239   6.655  2.1977  0.6117  0.6148
  185SLPC    HB21243   0.538   3.054   6.686  0.6678 -1.3434  0.5886
  185SLPC    C221244   0.678   3.187   6.793  0.7656  0.7641  0.1644
  185SLPC    HS21245   0.757   3.262   6.770  1.0366  0.9235  1.5926
  185SLPC   O2121246   0.736   3.059   6.840  0.1321 -0.0208 -0.5520
  185SLPC   C2121247   0.856   3.063   6.892 -0.8060  0.6414 -0.0616
  185SLPC   O2221248   0.931   3.158   6.909  0.5303  0.0155  0.2810
  185SLPC   C2221249   0.887   2.923   6.947  0.8667 -0.3309  0.2901
  185SLPC   H2R21250   0.794   2.864   6.934 -2.1816  4.0930  0.9648
  185SLPC   H2S21251   0.961   2.883   6.875 -0.0927  1.1622 -1.5830
  185SLPC    C321252   0.587   3.262   6.895 -0.7244 -0.4704  0.5359
  185SLPC    HX21253   0.491   3.207   6.903 -0.9922 -0.4726 -2.1089
  185SLPC    HY21254   0.560   3.361   6.852 -0.2759  0.1693  1.7052
  185SLPC   O3121255   0.641   3.263   7.025 -0.2118  0.2341 -0.3725
  185SLPC   C3121256   0.726   3.378   7.037  0.3972  0.9793 -0.4732
  185SLPC   O3221257   0.713   3.472   6.965  0.0932  0.3724 -0.0185
  185SLPC   C3221258   0.826   3.371   7.150  0.0499  0.2977 -0.1403
  185SLPC   H2X21259   0.927   3.384   7.108 -0.2769 -0.6582 -1.2536
  185SLPC   H2Y21260   0.823   3.264   7.177 -1.8852 -0.3388 -2.5854
  185SLPC   C2321261   0.938   2.920   7.092  0.2094 -1.0549  0.5238
  185SLPC   H3R21262   1.022   2.993   7.094 -1.7216  1.2138  1.4032
  185SLPC   H3S21263   0.981   2.818   7.106  0.2990 -1.1503 -0.4110
  185SLPC   C2421264   0.827   2.940   7.201  0.4519  0.6036  0.0658
  185SLPC   H4R21265   0.767   2.847   7.188 -1.4705  1.5745  1.7400
  185SLPC   H4S21266   0.757   3.020   7.170  0.2943 -0.0022 -1.1571
  185SLPC   C2521267   0.879   2.960   7.345  0.0779  1.2801  0.1295
  185SLPC   H5R21268   0.968   3.026   7.340  0.3649  0.8601 -0.3624
  185SLPC   H5S21269   0.908   2.858   7.379 -0.1699  0.6425 -1.5180
  185SLPC   C2621270   0.776   3.027   7.440  0.2394 -0.3797 -0.3848
  185SLPC   H6R21271   0.673   2.984   7.437  0.8255 -2.0776  2.1469
  185SLPC   H6S21272   0.758   3.130   7.403 -0.5929 -0.3241  0.1768
  185SLPC   C2721273   0.834   3.033   7.575 -0.5272 -0.0326  0.6990
  185SLPC   H7R21274   0.922   3.100   7.570  2.3485 -3.6963  0.8603
  185SLPC   H7S21275   0.875   2.935   7.607 -1.5650 -0.4068  0.9129
  185SLPC   C2821276   0.729   3.078   7.683  0.3329 -0.1738  0.0930
  185SLPC   H8R21277   0.672   3.166   7.647 -2.8088 -2.0133  0.4666
  185SLPC   H8S21278   0.795   3.111   7.766 -0.0588 -0.3072  0.4548
  185SLPC   C2921279   0.622   2.974   7.727  0.6546  0.2168  0.1742
  185SLPC   H9R21280   0.559   2.926   7.651  1.1957  0.5073 -0.4587
  185SLPC  C21021281   0.601   2.941   7.853 -0.4415  0.4184  0.3018
  185SLPC  H10R21282   0.529   2.865   7.887 -1.0056  0.7230 -0.1980
  185SLPC  C21121283   0.665   3.001   7.976  0.7478  0.1212 -0.3624
  185SLPC  H11R21284   0.613   2.954   8.062  2.3930 -3.5646 -1.2915
  185SLPC  H11S21285   0.642   3.110   7.973  0.9886  0.2087  0.6800
  185SLPC  C21221286   0.812   2.959   7.979  0.3671 -0.5375 -0.4349
  185SLPC  H12R21287   0.868   2.955   7.884  0.9928 -2.1654 -0.0079
  185SLPC  C21321288   0.881   2.925   8.090 -0.0966  0.8724  0.1004
  185SLPC  H13R21289   0.989   2.922   8.069 -0.2658  1.3762 -0.8697
  185SLPC  C21421290   0.820   2.927   8.229 -0.2065 -0.2904 -0.0670
  185SLPC  H14R21291   0.787   2.824   8.254 -1.9519  0.0585 -0.8654
  185SLPC  H14S21292   0.724   2.982   8.221 -0.5994 -0.6499  1.9248
  185SLPC  C21521293   0.916   2.986   8.333  0.7410 -0.7711 -0.5517
  185SLPC  H15R21294   0.848   3.009   8.418 -0.7150 -1.3922 -1.5159
  185SLPC  H15S21295   0.946   3.087   8.299 -0.4354 -0.1409  0.2306
  185SLPC  C21621296   1.027   2.890   8.375  0.1738 -0.3973  0.2740
  185SLPC  H16R21297   1.108   2.911   8.302 -0.0219  1.8303  0.6719
  185SLPC  H16S21298   1.004   2.781   8.377 -1.0864 -0.1129  1.8985
  185SLPC  C21721299   1.082   2.913   8.518 -0.7159  0.8934 -0.1427
  185SLPC  H17R21300   1.164   2.841   8.539 -1.5095 -0.7714 -2.5769
  185SLPC  H17S21301   0.994   2.920   8.586 -1.2637  0.2916 -0.7892
  185SLPC  C21821302   1.145   3.056   8.532  0.6640 -0.1290 -0.9714
  185SLPC  H18R21303   1.241   3.052   8.476  0.7841  1.3296 -0.8955
  185SLPC  H18S21304   1.161   3.082   8.639 -2.3109 -1.4205 -0.1841
  185SLPC  H18T21305   1.082   3.133   8.482  0.4483  2.5747  3.2320
  185SLPC   C3321306   0.790   3.468   7.269  0.1955 -0.0625  0.6493
  185SLPC   H3X21307   0.860   3.440   7.350 -0.0491 -0.0070  0.8818
  185SLPC   H3Y21308   0.691   3.437   7.309  1.2139  1.5616  4.6174
  185SLPC   C3421309   0.790   3.616   7.237 -0.4147 -0.5903 -0.2278
  185SLPC   H4X21310   0.722   3.636   7.152  0.5453 -2.4552 -1.4753
  185SLPC   H4Y21311   0.894   3.632   7.202  0.6325 -3.2719  1.4558
  185SLPC   C3521312   0.755   3.703   7.353  0.4660 -0.1247  0.6808
  185SLPC   H5X21313   0.816   3.663   7.437 -0.4781  0.4741  1.6798
  185SLPC   H5Y21314   0.650   3.681   7.384  0.7874 -0.4212  1.5844
  185SLPC   C3621315   0.772   3.853   7.317  0.3820 -0.1914 -0.1627
  185SLPC   H6X21316   0.746   3.869   7.210  0.2546  0.9641  0.0394
  185SLPC   H6Y21317   0.877   3.889   7.314  0.0415  1.0312  1.7342
  185SLPC   C3721318   0.695   3.952   7.410  0.2122  0.5676 -0.6518
  185SLPC   H7X21319   0.589   3.923   7.391  0.3628 -0.5129  0.1007
  185SLPC   H7Y21320   0.698   4.060   7.386  0.9512  0.7920  0.3882
  185SLPC   C3821321   0.719   3.931   7.562 -0.2150  0.5137 -0.2024
  185SLPC   H8X21322   0.827   3.925   7.586  0.6710 -0.6730 -4.0575
  185SLPC   H8Y21323   0.683   3.829   7.587 -1.1493  0.8017 -0.3437
  185SLPC   C3921324   0.676   4.049   7.652  0.2918 -0.0319 -0.7007
  185SLPC   H9X21325   0.571   4.080   7.631 -0.4512 -2.5991 -0.9505
  185SLPC   H9Y21326   0.741   4.138   7.637 -0.1157  0.3489 -0.2411
  185SLPC  C31021327   0.679   4.014   7.803  0.0841  0.6145  1.0897
  185SLPC  H10X21328   0.786   3.998   7.829  0.9220 -0.0473 -2.5080
  185SLPC  H10Y21329   0.623   3.919   7.818 -1.4535  1.1336 -1.0717
  185SLPC  C31121330   0.628   4.127   7.891 -0.2496  0.5000  0.0945
  185SLPC  H11X21331   0.517   4.124   7.885 -0.2341 -1.4211  0.2385
  185SLPC  H11Y21332   0.664   4.220   7.843  0.3418  0.0482 -0.3445
  185SLPC  C31221333   0.685   4.117   8.034 -0.4571 -0.1999 -0.0756
  185SLPC  H12X21334   0.793   4.091   8.026 -0.1129  1.2164 -0.1740
  185SLPC  H12Y21335   0.646   4.022   8.077  1.8105 -1.3526 -0.4629
  185SLPC  C31321336   0.664   4.244   8.121 -0.7929  0.3413 -0.3208
  185SLPC  H13X21337   0.558   4.274   8.109 -0.0739  3.8128  1.2979
  185SLPC  H13Y21338   0.723   4.329   8.080  2.3948 -0.8954  1.5082
  185SLPC  C31421339   0.689   4.231   8.273  0.8541 -0.4812  0.2680
  185SLPC  H14X21340   0.634   4.141   8.307 -2.9044  2.4666  2.3870
  185SLPC  H14Y21341   0.623   4.308   8.319  1.0835 -0.0458 -0.1259
  185SLPC  C31521342   0.834   4.227   8.308 -0.5406  0.4894 -0.0938
  185SLPC  H15X21343   0.880   4.319   8.266  0.2771 -0.1287 -0.5540
  185SLPC  H15Y21344   0.882   4.140   8.259 -0.4305  0.6939 -0.3502
  185SLPC  C31621345   0.867   4.208   8.462  0.1314 -0.6277  0.4862
  185SLPC  H16X21346   0.965   4.158   8.477 -0.4636 -1.5104  1.5586
  185SLPC  H16Y21347   0.786   4.143   8.503 -0.2393 -0.2431  0.3675
  185SLPC  C31721348   0.860   4.340   8.550 -0.8541  0.3759 -0.8569
  185SLPC  H17X21349   0.886   4.316   8.655 -1.5304 -0.3997 -0.8611
  185SLPC  H17Y21350   0.752   4.364   8.558 -1.1955 -1.1762 -0.6731
  185SLPC  C31821351   0.928   4.463   8.487  0.4677  0.0266 -0.0085
  185SLPC  H18X21352   1.023   4.441   8.434  0.5054  0.2740 -0.0463
  185SLPC  H18Y21353   0.944   4.529   8.575 -0.2761 -0.2948  0.3759
  185SLPC  H18Z21354   0.860   4.514   8.415  0.3444  2.9245  2.0870
  186SLPC     N21355   1.615   5.541   6.101 -0.1074 -0.3340 -0.5716
  186SLPC   C1321356   1.571   5.401   6.090 -0.3706 -0.2027  0.3292
  186SLPC  H13A21357   1.479   5.385   6.144 -0.3780  0.5035  0.5215
  186SLPC  H13B21358   1.551   5.368   5.989  0.9204  1.3540 -0.4602
  186SLPC  H13C21359   1.636   5.323   6.129 -2.8214 -1.4935  1.9350
  186SLPC   C1421360   1.514   5.638   6.046 -0.4328  0.5124  0.2604
  186SLPC  H14A21361   1.424   5.632   6.105 -1.5817 -0.4306 -1.5338
  186SLPC  H14B21362   1.548   5.740   6.055  1.6373 -0.0573 -0.9171
  186SLPC  H14C21363   1.483   5.617   5.945  0.6914  0.9927 -0.1930
  186SLPC   C1521364   1.742   5.569   6.023 -0.0047 -0.2185 -0.2359
  186SLPC  H15A21365   1.701   5.578   5.923  0.5591  0.8788 -0.3630
  186SLPC  H15B21366   1.787   5.665   6.041 -0.5214  0.3279 -1.8277
  186SLPC  H15C21367   1.816   5.491   6.034 -1.1064 -0.8701  3.3281
  186SLPC   C1221368   1.634   5.569   6.249 -0.8733  0.0634  0.3334
  186SLPC  H12A21369   1.666   5.478   6.298  0.7143  0.7659  0.6244
  186SLPC  H12B21370   1.537   5.590   6.292 -2.0060 -1.3939 -1.4050
  186SLPC   C1121371   1.736   5.672   6.295  0.0876  0.0247 -0.2989
  186SLPC  H11A21372   1.721   5.690   6.404  0.4299 -0.0200 -0.2450
  186SLPC  H11B21373   1.711   5.763   6.237 -1.2168 -0.3819 -0.4016
  186SLPC     P21374   1.954   5.532   6.342 -0.4623 -0.1157 -0.1334
  186SLPC   O1321375   1.883   5.406   6.363  0.3339 -0.1331  0.0128
  186SLPC   O1421376   2.081   5.527   6.275  0.0500  0.2990 -0.2195
  186SLPC   O1221377   1.867   5.641   6.254 -0.3852  0.3187  0.4020
  186SLPC   O1121378   1.968   5.600   6.477  0.8088  0.5399 -0.4399
  186SLPC    C121379   2.028   5.722   6.514 -0.1278  0.1142  0.5264
  186SLPC    HA21380   2.138   5.708   6.525  0.3355  2.5813 -0.8444
  186SLPC    HB21381   2.025   5.790   6.427  1.1615  0.8014  1.0056
  186SLPC    C221382   1.978   5.788   6.640 -0.1611 -0.4975  0.4729
  186SLPC    HS21383   2.057   5.856   6.678  0.6116 -0.4358 -1.1913
  186SLPC   O2121384   1.938   5.694   6.738 -0.6407 -0.4184  0.6299
  186SLPC   C2121385   2.038   5.616   6.788 -0.3317  0.0595 -0.5879
  186SLPC   O2221386   2.157   5.618   6.760  0.4340 -0.4511 -0.2392
  186SLPC   C2221387   1.983   5.519   6.893  0.3403  0.1075  0.0761
  186SLPC   H2R21388   1.877   5.507   6.865  0.8212 -3.1009 -0.5585
  186SLPC   H2S21389   2.023   5.416   6.883 -0.1761  0.0262 -1.2136
  186SLPC    C321390   1.857   5.888   6.612 -0.3883  0.1535  0.3355
  186SLPC    HX21391   1.768   5.835   6.573  1.3378 -2.8349  0.3477
  186SLPC    HY21392   1.880   5.958   6.529 -2.0085  1.0049  0.5714
  186SLPC   O3121393   1.840   5.955   6.735 -0.1191  0.4084  0.8341
  186SLPC   C3121394   1.735   5.914   6.816 -0.9123 -0.2573  0.3348
  186SLPC   O3221395   1.648   5.841   6.780 -0.0005 -0.3178  0.2903
  186SLPC   C3221396   1.748   5.966   6.962  0.1445  0.4199  0.3624
  186SLPC   H2X21397   1.742   6.077   6.957  0.9883  0.4557  0.1517
  186SLPC   H2Y21398   1.842   5.929   7.009 -0.6920 -1.2828  0.7511
  186SLPC   C2321399   2.011   5.554   7.041 -0.0851 -0.3787  0.0517
  186SLPC   H3R21400   2.118   5.580   7.048 -0.0007  0.1087 -2.4471
  186SLPC   H3S21401   1.983   5.471   7.109  0.0736  1.0645  1.9302
  186SLPC   C2421402   1.929   5.680   7.087 -0.0461  0.1337 -0.1251
  186SLPC   H4R21403   1.820   5.659   7.097 -0.3081  1.2152 -0.6154
  186SLPC   H4S21404   1.954   5.759   7.014  2.7156 -0.4749  0.1135
  186SLPC   C2521405   1.977   5.737   7.223  0.3577  0.2544  0.1960
  186SLPC   H5R21406   1.945   5.842   7.236 -2.4603 -0.8607  3.0110
  186SLPC   H5S21407   2.088   5.737   7.223  0.3729 -0.7287  1.9189
  186SLPC   C2621408   1.924   5.653   7.346 -0.0026 -1.2952  0.1584
  186SLPC   H6R21409   1.906   5.547   7.318 -1.8071 -0.5238 -1.7567
  186SLPC   H6S21410   1.826   5.692   7.379  1.0536  2.0145 -0.4314
  186SLPC   C2721411   2.024   5.664   7.464 -0.7108 -0.5280  0.0715
  186SLPC   H7R21412   2.066   5.767   7.471 -1.7353 -0.0563 -0.4744
  186SLPC   H7S21413   2.114   5.604   7.438 -0.0306  0.8668 -0.8745
  186SLPC   C2821414   1.972   5.634   7.604  0.4075 -0.5455 -0.1427
  186SLPC   H8R21415   1.934   5.529   7.604  0.8631 -0.7131  0.1881
  186SLPC   H8S21416   1.884   5.701   7.614  1.0728  0.1742  0.9492
  186SLPC   C2921417   2.073   5.658   7.710 -1.0824 -0.2067  0.1959
  186SLPC   H9R21418   2.080   5.760   7.751  0.8251  0.4292 -1.6359
  186SLPC  C21021419   2.158   5.562   7.762  0.0639  0.1167 -0.6329
  186SLPC  H10R21420   2.225   5.589   7.844  2.8163 -1.8753 -2.1459
  186SLPC  C21121421   2.159   5.415   7.724 -0.3920 -0.3197 -0.4167
  186SLPC  H11R21422   2.228   5.405   7.638 -0.2188  1.2249 -0.4708
  186SLPC  H11S21423   2.054   5.398   7.692 -0.9188  0.6187  0.7661
  186SLPC  C21221424   2.192   5.298   7.814 -0.0262 -0.8950 -0.1383
  186SLPC  H12R21425   2.298   5.270   7.811  0.2919 -0.2178  2.8199
  186SLPC  C21321426   2.108   5.217   7.882  0.7070  0.3235  0.6022
  186SLPC  H13R21427   2.145   5.135   7.944 -0.7349 -0.7421  0.0851
  186SLPC  C21421428   1.958   5.230   7.878  0.3561  0.2312  0.1220
  186SLPC  H14R21429   1.928   5.267   7.778  1.7238 -0.7979 -0.6833
  186SLPC  H14S21430   1.927   5.283   7.971 -1.4198 -2.5402  1.1459
  186SLPC  C21521431   1.888   5.085   7.879 -1.6584  0.6099 -0.0039
  186SLPC  H15R21432   1.930   5.024   7.796 -1.4219  2.3128 -1.1512
  186SLPC  H15S21433   1.781   5.114   7.866 -1.2447  2.7694  1.2992
  186SLPC  C21621434   1.910   5.003   8.008  0.0835  0.1704 -0.2930
  186SLPC  H16R21435   2.016   4.977   8.030  0.0003  0.8803  0.9772
  186SLPC  H16S21436   1.859   4.906   7.994 -2.6608  1.0868  2.7249
  186SLPC  C21721437   1.844   5.067   8.127  0.5672  0.6335 -0.4911
  186SLPC  H17R21438   1.736   5.084   8.111  0.7729  0.2070 -2.4843
  186SLPC  H17S21439   1.889   5.165   8.151  1.0350 -0.0397  1.4658
  186SLPC  C21821440   1.848   4.970   8.241 -0.2291  0.2930 -0.2044
  186SLPC  H18R21441   1.783   4.881   8.225 -1.8566  1.4265 -0.0795
  186SLPC  H18S21442   1.819   5.021   8.336 -0.6021  0.4901 -0.4215
  186SLPC  H18T21443   1.950   4.926   8.241  0.3655  1.5987 -2.5651
  186SLPC   C3321444   1.634   5.900   7.045  0.1714  0.8974 -0.0818
  186SLPC   H3X21445   1.669   5.794   7.042 -0.1214  0.8025 -0.1667
  186SLPC   H3Y21446   1.539   5.913   6.989 -0.2555  2.0360  0.8902
  186SLPC   C3421447   1.628   5.957   7.183  0.5559  0.3987  0.0802
  186SLPC   H4X21448   1.600   6.064   7.172 -0.6054  0.2664  1.6331
  186SLPC   H4Y21449   1.727   5.939   7.230  0.8878  0.2229 -0.6836
  186SLPC   C3521450   1.514   5.896   7.267  0.0289  0.4286  1.0816
  186SLPC   H5X21451   1.528   5.786   7.274  0.4815  0.3049 -1.1302
  186SLPC   H5Y21452   1.418   5.912   7.213  0.1760 -1.1185  0.3236
  186SLPC   C3621453   1.514   5.961   7.404  0.2526 -0.4310 -0.7062
  186SLPC   H6X21454   1.430   5.912   7.457  1.0285  0.0425  0.9973
  186SLPC   H6Y21455   1.495   6.070   7.395  0.3428 -0.3074  0.5436
  186SLPC   C3721456   1.644   5.940   7.482 -0.4443 -0.3881 -0.4409
  186SLPC   H7X21457   1.731   5.984   7.427 -0.0220  1.4672  1.6616
  186SLPC   H7Y21458   1.677   5.834   7.492 -0.5831 -0.7962 -3.6858
  186SLPC   C3821459   1.662   6.004   7.619 -0.4183 -0.3637 -0.2994
  186SLPC   H8X21460   1.611   6.102   7.629 -1.1737 -0.7606 -0.2437
  186SLPC   H8Y21461   1.769   6.019   7.642  0.0437 -2.9579 -0.5894
  186SLPC   C3921462   1.614   5.923   7.732  0.7572  0.3419 -0.0799
  186SLPC   H9X21463   1.669   5.828   7.742  3.0341  1.6134 -0.1667
  186SLPC   H9Y21464   1.512   5.894   7.699  0.9327  1.6103 -1.8696
  186SLPC  C31021465   1.621   6.011   7.854 -0.5994  0.2620 -0.0647
  186SLPC  H10X21466   1.573   5.954   7.936  1.4195  0.4361  1.2480
  186SLPC  H10Y21467   1.576   6.112   7.857  0.6389  0.7855  0.8639
  186SLPC  C31121468   1.767   6.046   7.907  0.1759  0.3912 -0.6318
  186SLPC  H11X21469   1.740   6.097   8.002  0.0452 -0.2130 -0.3441
  186SLPC  H11Y21470   1.807   6.107   7.823  0.4045  1.2253  0.0688
  186SLPC  C31221471   1.850   5.920   7.931  0.9668 -0.5497  0.2048
  186SLPC  H12X21472   1.889   5.888   7.832 -1.0254  0.6557 -1.0114
  186SLPC  H12Y21473   1.779   5.840   7.959 -0.7235  0.4969 -0.9795
  186SLPC  C31321474   1.955   5.948   8.042 -0.8454 -0.6575 -0.1480
  186SLPC  H13X21475   1.905   6.001   8.125 -2.7462 -2.7411  0.0906
  186SLPC  H13Y21476   2.039   6.014   8.010  0.0444 -0.1315  3.0531
  186SLPC  C31421477   2.030   5.823   8.079  0.0251 -0.0998 -0.3812
  186SLPC  H14X21478   2.130   5.845   8.122 -0.2771  0.7191 -0.0821
  186SLPC  H14Y21479   2.028   5.759   7.988 -1.9418 -1.2156  0.4065
  186SLPC  C31521480   1.956   5.748   8.196 -0.4372  0.6283  0.1693
  186SLPC  H15X21481   1.846   5.750   8.181 -0.4789  3.0289  0.5672
  186SLPC  H15Y21482   1.979   5.799   8.291  3.0587 -0.3498 -0.1066
  186SLPC  C31621483   1.998   5.599   8.213  0.3647 -0.8752  0.2599
  186SLPC  H16X21484   1.963   5.567   8.313 -2.0550 -0.2640 -0.3527
  186SLPC  H16Y21485   2.109   5.592   8.215  0.4780  1.1464  2.7588
  186SLPC  C31721486   1.945   5.502   8.112 -0.3406 -0.0726 -0.0170
  186SLPC  H17X21487   1.996   5.405   8.129  0.5315  0.1966 -1.0760
  186SLPC  H17Y21488   1.968   5.533   8.008  2.5097 -2.9951 -0.3022
  186SLPC  C31821489   1.789   5.466   8.118 -0.2616  0.7969  0.2108
  186SLPC  H18X21490   1.733   5.561   8.120 -0.8508  0.4642 -0.2537
  186SLPC  H18Y21491   1.759   5.404   8.205  0.0898  1.0071  0.4830
  186SLPC  H18Z21492   1.762   5.414   8.023 -0.4050 -0.0686  0.7220
  187SLPC     N21493   2.115   2.184   6.092  0.1830 -0.1071 -0.1088
  187SLPC   C1321494   2.178   2.291   6.003 -0.2292 -0.7746 -0.4907
  187SLPC  H13A21495   2.165   2.259   5.901 -1.0146  0.1049 -0.6711
  187SLPC  H13B21496   2.126   2.382   6.029 -1.4345 -1.8780  1.0828
  187SLPC  H13C21497   2.283   2.309   6.024 -0.8521  3.3784 -0.5870
  187SLPC   C1421498   2.168   2.052   6.056  0.1091 -0.3716 -0.5839
  187SLPC  H14A21499   2.123   1.975   6.117  1.1348  1.1857  2.2143
  187SLPC  H14B21500   2.160   2.029   5.951 -1.7622  1.9169 -0.9927
  187SLPC  H14C21501   2.274   2.063   6.067  0.0766 -1.3609  0.8228
  187SLPC   C1521502   1.973   2.190   6.050  0.0233  0.2566 -0.2227
  187SLPC  H15A21503   1.929   2.279   6.092  1.4113  1.1524 -0.6265
  187SLPC  H15B21504   1.956   2.172   5.944  0.0453 -0.3488 -0.1225
  187SLPC  H15C21505   1.926   2.108   6.101  3.0629  0.7973  3.6670
  187SLPC   C1221506   2.129   2.214   6.236 -1.1452  0.1691 -0.1816
  187SLPC  H12A21507   2.233   2.202   6.265 -0.8730 -1.8153 -1.8668
  187SLPC  H12B21508   2.081   2.130   6.285  0.4026 -0.9724 -0.5522
  187SLPC   C1121509   2.068   2.346   6.298  0.1479 -0.2930 -0.5567
  187SLPC  H11A21510   2.105   2.433   6.240 -2.1958  0.6856 -0.6352
  187SLPC  H11B21511   2.118   2.351   6.397 -0.0334  0.4998 -0.5045
  187SLPC     P21512   1.855   2.271   6.410  0.0409 -0.1048 -0.0281
  187SLPC   O1321513   1.706   2.268   6.384 -0.5321 -0.3686 -0.2724
  187SLPC   O1421514   1.922   2.139   6.443  0.0118  0.6412 -0.4169
  187SLPC   O1221515   1.927   2.339   6.287 -0.6498 -0.5460  0.0269
  187SLPC   O1121516   1.893   2.376   6.526  0.3528 -0.3827 -0.1438
  187SLPC    C121517   1.792   2.425   6.607  0.1368 -0.5061  0.6624
  187SLPC    HA21518   1.792   2.536   6.610  0.3868 -0.4745 -0.2233
  187SLPC    HB21519   1.690   2.403   6.569  0.2578 -1.8495  1.0725
  187SLPC    C221520   1.800   2.365   6.751 -0.6628 -0.6659  0.4866
  187SLPC    HS21521   1.709   2.395   6.807 -1.1073 -0.8297 -0.1331
  187SLPC   O2121522   1.917   2.413   6.829  1.2015 -0.1007  0.3283
  187SLPC   C2121523   1.898   2.541   6.874  0.9847 -0.1623 -0.4053
  187SLPC   O2221524   1.821   2.627   6.835  0.2481  0.1391  0.1732
  187SLPC   C2221525   2.010   2.576   6.975 -0.0302 -1.0004  0.2014
  187SLPC   H2R21526   2.100   2.525   6.935  0.7736 -0.8385  1.7667
  187SLPC   H2S21527   2.021   2.686   6.965 -0.9074 -0.9775 -0.6309
  187SLPC    C321528   1.790   2.212   6.759  0.2071  0.6515  0.2609
  187SLPC    HX21529   1.869   2.167   6.695  0.5655  0.2177  0.9986
  187SLPC    HY21530   1.698   2.183   6.705 -0.4748  1.9457  0.6922
  187SLPC   O3121531   1.789   2.176   6.903  0.2479 -0.3822 -0.0857
  187SLPC   C3121532   1.867   2.067   6.933 -0.2338 -0.0032  0.5069
  187SLPC   O3221533   1.935   2.004   6.851  0.0960 -0.0220 -0.6443
  187SLPC   C3221534   1.863   2.042   7.086  0.0913 -0.2351  0.1952
  187SLPC   H2X21535   1.922   2.127   7.125  1.7157 -1.2999  0.1003
  187SLPC   H2Y21536   1.918   1.950   7.114  1.5179  1.0573  1.7649
  187SLPC   C2321537   1.999   2.523   7.116  0.6077  0.2708 -0.5979
  187SLPC   H3R21538   1.971   2.415   7.111  1.0979  0.0372  1.3182
  187SLPC   H3S21539   1.908   2.577   7.151 -0.5734 -2.9276  1.4645
  187SLPC   C2421540   2.125   2.537   7.196 -0.2234 -0.9008  0.1442
  187SLPC   H4R21541   2.149   2.646   7.198  0.1852 -0.9798 -0.3536
  187SLPC   H4S21542   2.213   2.498   7.140 -1.5924 -2.5213 -0.9247
  187SLPC   C2521543   2.122   2.468   7.340 -0.0639 -0.8783  0.8315
  187SLPC   H5R21544   2.123   2.359   7.318 -1.1092 -0.3445 -2.1187
  187SLPC   H5S21545   2.019   2.488   7.375 -0.4366 -0.2823 -0.6013
  187SLPC   C2621546   2.219   2.513   7.447  0.2185 -0.0318 -0.0128
  187SLPC   H6R21547   2.327   2.530   7.429  0.1629 -0.2113 -0.5320
  187SLPC   H6S21548   2.217   2.430   7.520  0.4819  0.9554  1.1409
  187SLPC   C2721549   2.167   2.628   7.535  0.7813  0.3072  0.1069
  187SLPC   H7R21550   2.061   2.609   7.560  0.4089  2.1664  0.0011
  187SLPC   H7S21551   2.172   2.719   7.472  0.6559  0.8360  0.8515
  187SLPC   C2821552   2.242   2.649   7.663  0.2396  0.5757 -0.1205
  187SLPC   H8R21553   2.227   2.553   7.717  0.5520  1.0604  0.8545
  187SLPC   H8S21554   2.202   2.726   7.733  2.3247  0.4009  1.3272
  187SLPC   C2921555   2.392   2.677   7.646  0.0178 -0.1997 -0.2951
  187SLPC   H9R21556   2.416   2.745   7.563 -0.6624  0.0601 -0.2787
  187SLPC  C21021557   2.499   2.628   7.714  0.0397  0.8599 -0.0636
  187SLPC  H10R21558   2.595   2.676   7.692  0.0112  0.4621 -1.1123
  187SLPC  C21121559   2.515   2.534   7.827 -0.4861  0.2165 -0.2980
  187SLPC  H11R21560   2.455   2.570   7.913  1.5659  3.5320 -0.1577
  187SLPC  H11S21561   2.620   2.553   7.861 -1.5923  2.5463  1.9708
  187SLPC  C21221562   2.491   2.385   7.806 -0.2628 -0.9821  0.2576
  187SLPC  H12R21563   2.422   2.359   7.723 -0.6299  0.5537  0.0761
  187SLPC  C21321564   2.526   2.290   7.892  1.5105  0.0162  0.1546
  187SLPC  H13R21565   2.511   2.184   7.866 -0.9279  0.6903 -1.3158
  187SLPC  C21421566   2.607   2.316   8.021  0.5016  0.2332 -0.0392
  187SLPC  H14R21567   2.651   2.418   8.021  2.4956 -0.5877 -0.2863
  187SLPC  H14S21568   2.694   2.247   8.029 -0.6761 -1.1452  1.1412
  187SLPC  C21521569   2.521   2.304   8.148 -0.3743 -0.1595 -0.7740
  187SLPC  H15R21570   2.472   2.204   8.153 -3.3254  1.1163 -2.7546
  187SLPC  H15S21571   2.436   2.375   8.142 -0.2518 -0.0415 -1.1106
  187SLPC  C21621572   2.593   2.325   8.284 -0.3992 -0.3086  0.0819
  187SLPC  H16R21573   2.516   2.333   8.364  0.5642  0.7915  0.9273
  187SLPC  H16S21574   2.637   2.424   8.257  0.6337 -0.4885  1.0591
  187SLPC  C21721575   2.705   2.218   8.327  0.3546 -0.4848  0.2041
  187SLPC  H17R21576   2.737   2.253   8.428  1.9097  2.6228 -1.2954
  187SLPC  H17S21577   2.776   2.226   8.242  0.7426 -0.6062  0.5163
  187SLPC  C21821578   2.639   2.088   8.337  0.5035 -0.5864  0.1098
  187SLPC  H18R21579   2.544   2.088   8.394  0.8673 -2.5067  0.7837
  187SLPC  H18S21580   2.707   2.010   8.378  0.4243 -0.3972  0.6066
  187SLPC  H18T21581   2.610   2.059   8.234 -0.4849 -2.4399  0.8826
  187SLPC   C3321582   1.715   2.040   7.147 -0.6347 -0.1442  0.0933
  187SLPC   H3X21583   1.665   1.951   7.103 -1.7880 -0.2187  1.5152
  187SLPC   H3Y21584   1.672   2.139   7.120  1.3899  1.1346  1.4704
  187SLPC   C3421585   1.702   2.028   7.303  1.0088  0.0468  0.5724
  187SLPC   H4X21586   1.752   2.116   7.349 -0.8049  0.9670  0.8654
  187SLPC   H4Y21587   1.759   1.938   7.332  2.6236  0.2545 -1.8060
  187SLPC   C3521588   1.553   2.016   7.348  0.0101  0.4139 -0.3536
  187SLPC   H5X21589   1.506   1.934   7.290  1.0279 -1.2969  1.1904
  187SLPC   H5Y21590   1.500   2.113   7.342 -1.1769 -0.3449 -2.5955
  187SLPC   C3621591   1.552   1.956   7.486  0.4704  0.6960 -0.4279
  187SLPC   H6X21592   1.606   1.860   7.474  0.3752  0.6173 -0.2344
  187SLPC   H6Y21593   1.447   1.930   7.511  1.0978  2.1862  4.3604
  187SLPC   C3721594   1.622   2.046   7.594 -0.1760  0.2648  0.5215
  187SLPC   H7X21595   1.730   2.043   7.570 -0.2499 -2.0888  0.2635
  187SLPC   H7Y21596   1.592   2.153   7.595 -0.0455  0.2945  1.9589
  187SLPC   C3821597   1.620   1.981   7.740  0.3236  0.3790  0.3703
  187SLPC   H8X21598   1.663   1.879   7.728 -0.3373 -0.3532  3.7942
  187SLPC   H8Y21599   1.512   1.978   7.766 -0.5652  0.5422 -3.0513
  187SLPC   C3921600   1.702   2.062   7.835 -0.3386 -0.4442 -0.3362
  187SLPC   H9X21601   1.657   2.162   7.851  1.4772  0.4128 -0.4719
  187SLPC   H9Y21602   1.803   2.066   7.788 -1.0966 -1.0448 -2.0577
  187SLPC  C31021603   1.699   1.999   7.980  0.3226  0.3868  0.2319
  187SLPC  H10X21604   1.739   1.896   7.971  0.5571  0.5416 -0.5279
  187SLPC  H10Y21605   1.594   1.994   8.016 -0.4275 -2.0073 -2.1327
  187SLPC  C31121606   1.779   2.078   8.079 -0.2212  0.1478  0.0882
  187SLPC  H11X21607   1.749   2.185   8.070  2.9563  1.1256  0.6008
  187SLPC  H11Y21608   1.887   2.072   8.053 -0.2729  0.6768 -0.2568
  187SLPC  C31221609   1.755   2.036   8.228 -0.4976  0.3480  0.0037
  187SLPC  H12X21610   1.788   1.932   8.248 -2.1709 -0.0914  0.5321
  187SLPC  H12Y21611   1.655   2.057   8.271 -0.3037  3.2140 -0.8113
  187SLPC  C31321612   1.835   2.119   8.332  0.3303 -0.0962 -0.1167
  187SLPC  H13X21613   1.935   2.127   8.285  0.1927 -2.0399 -0.7966
  187SLPC  H13Y21614   1.852   2.055   8.421 -1.8347 -0.4366  0.0661
  187SLPC  C31421615   1.776   2.250   8.369  0.1486  0.0308 -0.8846
  187SLPC  H14X21616   1.672   2.226   8.400  1.6963 -2.1652  3.0157
  187SLPC  H14Y21617   1.766   2.322   8.285 -0.1558 -0.7542 -1.5217
  187SLPC  C31521618   1.836   2.320   8.490 -0.0716  0.2303 -0.5004
  187SLPC  H15X21619   1.934   2.360   8.457  0.8006 -1.8488 -0.5038
  187SLPC  H15Y21620   1.848   2.246   8.572  1.5968 -0.5239 -1.4016
  187SLPC  C31621621   1.751   2.439   8.547 -0.1788  0.4806  0.5362
  187SLPC  H16X21622   1.646   2.407   8.529  1.0117 -2.4794 -1.6889
  187SLPC  H16Y21623   1.773   2.529   8.487 -0.8680 -0.8600 -1.8043
  187SLPC  C31721624   1.754   2.453   8.699 -0.9006  0.1812  0.9868
  187SLPC  H17X21625   1.707   2.543   8.744 -0.5741  2.0037 -2.1638
  187SLPC  H17Y21626   1.862   2.460   8.727 -0.6686  0.5355  0.0020
  187SLPC  C31821627   1.692   2.330   8.772 -0.2358 -0.3622 -0.2805
  187SLPC  H18X21628   1.754   2.239   8.756 -1.1173 -1.2318  1.0886
  187SLPC  H18Y21629   1.588   2.301   8.742 -0.3838 -1.2066  1.0117
  187SLPC  H18Z21630   1.698   2.335   8.882  0.3937 -0.0820 -0.3298
  188SLPC     N21631   3.282   3.453   6.250  0.0193 -0.5082 -0.3592
  188SLPC   C1321632   3.138   3.435   6.202  0.1505 -0.0765 -0.4033
  188SLPC  H13A21633   3.112   3.365   6.124 -2.4038 -1.7722  1.8855
  188SLPC  H13B21634   3.081   3.377   6.272 -0.4516  0.0607 -0.7772
  188SLPC  H13C21635   3.090   3.529   6.178 -1.0190  0.7125  4.4686
  188SLPC   C1421636   3.369   3.459   6.124  0.7805 -0.1071  0.5163
  188SLPC  H14A21637   3.333   3.529   6.050 -0.1079 -0.3003  0.7547
  188SLPC  H14B21638   3.473   3.481   6.144  1.4885  0.5471 -3.5954
  188SLPC  H14C21639   3.360   3.368   6.068 -0.1609  0.0693  0.3680
  188SLPC   C1521640   3.320   3.334   6.323  0.4904  0.0418  0.4294
  188SLPC  H15A21641   3.293   3.249   6.262 -1.1530  3.4035 -3.6877
  188SLPC  H15B21642   3.426   3.317   6.337  0.6647  1.2310  0.5665
  188SLPC  H15C21643   3.270   3.328   6.419 -0.8812  1.0772 -0.2163
  188SLPC   C1221644   3.304   3.571   6.336 -0.5144 -0.3313 -0.0976
  188SLPC  H12A21645   3.409   3.581   6.358 -0.5557  0.3174 -0.1927
  188SLPC  H12B21646   3.257   3.557   6.433  1.8842  1.6563  1.4056
  188SLPC   C1121647   3.250   3.716   6.291 -0.4849  0.0640  0.7857
  188SLPC  H11A21648   3.282   3.740   6.188 -0.3873  1.5723  1.1519
  188SLPC  H11B21649   3.294   3.783   6.369  0.4448  0.7476 -0.3170
  188SLPC     P21650   3.020   3.766   6.402 -0.0163 -0.4146 -0.3136
  188SLPC   O1321651   3.001   3.912   6.384  0.4489 -0.4684 -0.2004
  188SLPC   O1421652   2.900   3.682   6.394  0.3791  0.2860  0.3940
  188SLPC   O1221653   3.108   3.717   6.283  0.0649 -0.1879 -0.2573
  188SLPC   O1121654   3.087   3.728   6.535 -0.1350 -0.5444  0.2891
  188SLPC    C121655   3.154   3.823   6.618  0.0386  0.1761 -0.0815
  188SLPC    HA21656   3.231   3.882   6.565 -1.4563  2.3915  0.1472
  188SLPC    HB21657   3.083   3.905   6.642  0.0986  0.4239 -0.7575
  188SLPC    C221658   3.193   3.775   6.763  0.5163  0.1281  0.0241
  188SLPC    HS21659   3.281   3.711   6.742  1.5761  2.0595 -1.5632
  188SLPC   O2121660   3.083   3.699   6.815  0.9244 -0.4060  0.1819
  188SLPC   C2121661   3.107   3.563   6.849  0.3166 -0.4357  0.3466
  188SLPC   O2221662   3.220   3.518   6.841  0.4017  0.4225  0.4110
  188SLPC   C2221663   2.975   3.493   6.885  0.1179 -0.2193  0.1997
  188SLPC   H2R21664   2.891   3.564   6.901 -2.1337 -2.0530 -2.8253
  188SLPC   H2S21665   2.937   3.429   6.802 -2.6695  0.9568  0.5304
  188SLPC    C321666   3.232   3.889   6.852 -0.1528  0.2236 -0.0725
  188SLPC    HX21667   3.146   3.960   6.846  0.3559  0.9352  1.1569
  188SLPC    HY21668   3.323   3.945   6.821 -0.6622  0.7170 -0.7065
  188SLPC   O3121669   3.243   3.853   6.991 -0.6069  0.1056 -0.0759
  188SLPC   C3121670   3.350   3.786   7.017  0.3309 -0.5975  0.4829
  188SLPC   O3221671   3.447   3.772   6.942 -0.2325  0.1956 -0.2372
  188SLPC   C3221672   3.324   3.723   7.155 -0.4577  0.0057  0.0499
  188SLPC   H2X21673   3.319   3.613   7.137  1.4183  0.3132 -2.6038
  188SLPC   H2Y21674   3.229   3.759   7.201 -0.3268  1.4755 -0.7993
  188SLPC   C2321675   2.996   3.402   7.006  0.5698  0.3770  0.2965
  188SLPC   H3R21676   3.076   3.329   6.981  2.1908  1.2919  2.6189
  188SLPC   H3S21677   2.908   3.337   7.027  0.0917  0.8348 -0.2459
  188SLPC   C2421678   3.025   3.479   7.138  0.2959 -0.1792 -0.0060
  188SLPC   H4R21679   2.949   3.559   7.146 -0.3911 -0.7308 -0.9875
  188SLPC   H4S21680   3.129   3.517   7.123 -0.1469  1.4413  0.8738
  188SLPC   C2521681   3.020   3.384   7.254  0.1028 -0.2934  0.0269
  188SLPC   H5R21682   3.087   3.300   7.226 -0.7776 -1.5206  1.5574
  188SLPC   H5S21683   2.917   3.342   7.258 -0.9890  2.3905  1.1822
  188SLPC   C2621684   3.060   3.445   7.386  0.5203 -0.1291 -0.6174
  188SLPC   H6R21685   3.007   3.543   7.386  1.3758  0.3500 -1.7704
  188SLPC   H6S21686   3.167   3.474   7.392 -0.1492  2.1199  1.6718
  188SLPC   C2721687   3.026   3.362   7.507  0.3696 -0.6407 -0.1123
  188SLPC   H7R21688   3.078   3.264   7.511 -0.1560 -0.9075  0.3261
  188SLPC   H7S21689   2.922   3.323   7.498 -0.0304  0.6311 -1.1364
  188SLPC   C2821690   3.045   3.433   7.638 -0.6989 -0.3383 -0.5595
  188SLPC   H8R21691   2.987   3.379   7.716  0.1873 -1.7531 -0.8543
  188SLPC   H8S21692   2.997   3.531   7.621  0.1278  0.0521 -0.6576
  188SLPC   C2921693   3.187   3.454   7.689 -0.1365 -0.3192  0.5297
  188SLPC   H9R21694   3.252   3.487   7.606  1.1784 -3.1060  0.3776
  188SLPC  C21021695   3.242   3.425   7.807  0.0227  0.3312  0.0319
  188SLPC  H10R21696   3.345   3.458   7.826  0.5655 -1.3123  0.0264
  188SLPC  C21121697   3.175   3.357   7.924  0.5315 -0.2254 -0.8968
  188SLPC  H11R21698   3.072   3.323   7.902 -0.0262  1.4772 -1.0367
  188SLPC  H11S21699   3.166   3.441   7.997 -0.2052 -0.1553 -1.0620
  188SLPC  C21221700   3.248   3.245   7.992 -0.0134 -0.1511 -0.3883
  188SLPC  H12R21701   3.201   3.146   7.989  0.8768 -0.6405  1.0425
  188SLPC  C21321702   3.361   3.257   8.058 -0.1204  0.0940  0.0436
  188SLPC  H13R21703   3.404   3.166   8.102  0.4399  0.1446 -0.3905
  188SLPC  C21421704   3.435   3.381   8.083  0.2074  0.2184  0.8645
  188SLPC  H14R21705   3.368   3.469   8.070  1.7569  1.0677 -1.5473
  188SLPC  H14S21706   3.522   3.380   8.015  0.2712  0.0499  0.9496
  188SLPC  C21521707   3.489   3.375   8.226 -0.0720 -0.0537 -0.5821
  188SLPC  H15R21708   3.567   3.299   8.248  0.4200 -0.1548 -2.5493
  188SLPC  H15S21709   3.402   3.374   8.295 -1.2592 -1.4013 -2.0583
  188SLPC  C21621710   3.553   3.517   8.266 -0.0152  0.7842 -0.1422
  188SLPC  H16R21711   3.473   3.593   8.252 -2.0657 -0.7591  2.5953
  188SLPC  H16S21712   3.646   3.538   8.210 -0.2205  1.3289 -0.2790
  188SLPC  C21721713   3.574   3.523   8.419 -0.0610  0.4881 -0.0597
  188SLPC  H17R21714   3.479   3.493   8.468 -0.4842  0.7510 -0.7242
  188SLPC  H17S21715   3.595   3.626   8.457  1.0111  0.1471  0.2922
  188SLPC  C21821716   3.679   3.419   8.473  0.1741  0.3505 -0.4655
  188SLPC  H18R21717   3.640   3.316   8.465  0.0671  0.1876  2.0038
  188SLPC  H18S21718   3.702   3.438   8.580 -0.5234  0.0883 -0.2668
  188SLPC  H18T21719   3.772   3.438   8.415  0.4644  0.4598  0.0440
  188SLPC   C3321720   3.429   3.762   7.255 -0.0703 -0.9559  0.2303
  188SLPC   H3X21721   3.530   3.751   7.211  0.3553  1.9559  0.4060
  188SLPC   H3Y21722   3.417   3.693   7.341 -0.5674 -1.9773 -0.6424
  188SLPC   C3421723   3.423   3.904   7.303  0.3764 -0.2948 -0.4146
  188SLPC   H4X21724   3.337   3.923   7.370  1.0149 -0.0456  0.3479
  188SLPC   H4Y21725   3.412   3.983   7.226  0.1494  0.8698  0.7917
  188SLPC   C3521726   3.558   3.937   7.383 -0.2482  1.2193 -0.4136
  188SLPC   H5X21727   3.552   4.041   7.420  0.8760  0.4088  2.1636
  188SLPC   H5Y21728   3.650   3.929   7.322  1.6451  0.8626  2.3710
  188SLPC   C3621729   3.576   3.842   7.507  0.5470 -0.8848 -0.1295
  188SLPC   H6X21730   3.662   3.884   7.563  1.0837 -1.1254 -0.7716
  188SLPC   H6Y21731   3.594   3.735   7.483  0.8797 -0.7493 -0.4840
  188SLPC   C3721732   3.449   3.836   7.589  0.7351  0.5857  0.0118
  188SLPC   H7X21733   3.376   3.780   7.527  3.0701 -2.3374 -0.1863
  188SLPC   H7Y21734   3.411   3.940   7.601 -2.5122 -0.4133 -1.1382
  188SLPC   C3821735   3.455   3.751   7.716 -0.2083  0.1580 -0.3971
  188SLPC   H8X21736   3.513   3.657   7.706 -0.7466 -0.4808  2.1631
  188SLPC   H8Y21737   3.359   3.705   7.750 -0.2345  0.4863 -0.0256
  188SLPC   C3921738   3.512   3.836   7.829 -0.0095  0.0658 -0.3670
  188SLPC   H9X21739   3.452   3.926   7.856  0.7315 -0.1603  2.1719
  188SLPC   H9Y21740   3.612   3.865   7.791 -0.2454  0.5011 -0.6618
  188SLPC  C31021741   3.536   3.756   7.956 -0.0374 -0.3168 -0.1524
  188SLPC  H10X21742   3.617   3.690   7.920 -0.5841 -1.8641  1.3785
  188SLPC  H10Y21743   3.441   3.700   7.973  0.5072 -1.3406 -0.4217
  188SLPC  C31121744   3.575   3.840   8.070  0.8500  0.1610 -0.6915
  188SLPC  H11X21745   3.652   3.914   8.041  2.9146 -1.2817  0.9347
  188SLPC  H11Y21746   3.620   3.784   8.154 -0.3229  0.2384  0.0011
  188SLPC  C31221747   3.462   3.922   8.130  0.1914 -0.2498 -0.2534
  188SLPC  H12X21748   3.369   3.870   8.161 -0.5296  1.0274 -0.2471
  188SLPC  H12Y21749   3.441   3.996   8.049  0.5179 -0.2184 -0.3113
  188SLPC  C31321750   3.493   4.004   8.251  0.0480 -0.3993  0.0890
  188SLPC  H13X21751   3.586   4.064   8.241  0.5896 -1.1976  0.2453
  188SLPC  H13Y21752   3.509   3.928   8.331  2.0249 -1.0667 -0.8947
  188SLPC  C31421753   3.379   4.101   8.296  0.2870  0.5595  0.1561
  188SLPC  H14X21754   3.289   4.036   8.294  1.0819 -0.5327 -0.2666
  188SLPC  H14Y21755   3.352   4.174   8.217  1.3042 -1.7754 -2.4345
  188SLPC  C31521756   3.413   4.180   8.424 -0.5298 -0.1302  0.1540
  188SLPC  H15X21757   3.330   4.245   8.461 -0.6302 -1.2479  1.9329
  188SLPC  H15Y21758   3.494   4.245   8.383  0.3082 -1.3378 -0.1271
  188SLPC  C31621759   3.469   4.101   8.549  0.4259 -0.0987  0.4401
  188SLPC  H16X21760   3.512   4.186   8.606 -0.6863  1.6403 -1.2737
  188SLPC  H16Y21761   3.548   4.029   8.518 -0.9809 -0.3493 -2.8150
  188SLPC  C31721762   3.355   4.026   8.619 -0.4092  0.4904 -0.1489
  188SLPC  H17X21763   3.409   3.960   8.691 -0.7868  0.2802 -0.0582
  188SLPC  H17Y21764   3.307   3.949   8.555 -1.6751  0.9517  0.2274
  188SLPC  C31821765   3.258   4.103   8.711 -0.4596  0.1817  0.3307
  188SLPC  H18X21766   3.208   4.178   8.646 -0.2102  0.6114  0.6350
  188SLPC  H18Y21767   3.321   4.162   8.780 -0.3769  0.5366 -0.0472
  188SLPC  H18Z21768   3.188   4.026   8.749 -1.5109  2.2340  2.7007
  189SLPC     N21769   5.190   5.556   6.207  0.0587  0.2167 -0.5287
  189SLPC   C1321770   5.221   5.606   6.070 -0.7206 -0.8118 -0.2033
  189SLPC  H13A21771   5.144   5.652   6.011  0.7981  0.8849 -0.9021
  189SLPC  H13B21772   5.283   5.693   6.089 -2.4427  0.1306  1.2538
  189SLPC  H13C21773   5.279   5.533   6.015  0.3908 -0.7344  0.8400
  189SLPC   C1421774   5.315   5.488   6.259  0.5843 -0.1224 -0.7189
  189SLPC  H14A21775   5.347   5.410   6.192  0.0286 -1.4806  0.5538
  189SLPC  H14B21776   5.395   5.559   6.269 -0.1065  0.6790 -0.8791
  189SLPC  H14C21777   5.293   5.435   6.352  0.2385  0.0416 -0.7072
  189SLPC   C1521778   5.078   5.459   6.201 -0.1694  0.0373  0.7002
  189SLPC  H15A21779   5.054   5.414   6.296  0.5025 -1.0029  0.3822
  189SLPC  H15B21780   4.989   5.504   6.160  1.2246  0.9714 -1.4048
  189SLPC  H15C21781   5.110   5.382   6.133  1.2799  0.1735  1.2042
  189SLPC   C1221782   5.151   5.676   6.299 -0.8418 -0.4021 -0.3106
  189SLPC  H12A21783   5.148   5.633   6.398  0.0140 -1.3176 -0.6861
  189SLPC  H12B21784   5.050   5.713   6.283 -1.1968 -1.0937  0.2988
  189SLPC   C1121785   5.229   5.810   6.302  0.4387 -0.2758  0.2744
  189SLPC  H11A21786   5.190   5.861   6.393 -1.7467  1.1784 -1.4276
  189SLPC  H11B21787   5.211   5.858   6.203 -0.5557 -1.3115 -0.0594
  189SLPC     P21788   5.459   5.914   6.312  0.1578  0.3180 -0.0243
  189SLPC   O1321789   5.556   5.893   6.200 -0.1292 -0.0294 -0.2968
  189SLPC   O1421790   5.369   6.036   6.316 -0.2038  0.4740 -0.3784
  189SLPC   O1221791   5.365   5.782   6.318 -0.0650 -0.3610  0.4656
  189SLPC   O1121792   5.535   5.901   6.447 -0.1473 -0.3872  0.0676
  189SLPC    C121793   5.507   5.804   6.544 -0.7086 -0.1385  0.3641
  189SLPC    HA21794   5.464   5.713   6.496 -0.3276 -1.5115  2.5324
  189SLPC    HB21795   5.605   5.777   6.590  0.4959 -1.5214 -2.8523
  189SLPC    C221796   5.408   5.860   6.647 -0.4033 -0.5480 -0.3269
  189SLPC    HS21797   5.329   5.907   6.585  0.4074  1.1412 -0.1213
  189SLPC   O2121798   5.462   5.962   6.726  0.0430  0.5629 -0.2042
  189SLPC   C2121799   5.384   6.067   6.753 -1.0504  0.5785  0.4209
  189SLPC   O2221800   5.277   6.092   6.708  0.2109  0.3788 -0.3477
  189SLPC   C2221801   5.469   6.171   6.832 -0.2415 -0.3348  0.3241
  189SLPC   H2R21802   5.577   6.146   6.834  0.1614  1.4433  1.3107
  189SLPC   H2S21803   5.466   6.271   6.785  1.3202 -0.0639  0.8066
  189SLPC    C321804   5.350   5.744   6.730  0.7209  0.7509  0.4789
  189SLPC    HX21805   5.435   5.684   6.770  0.9135  1.1404  0.6611
  189SLPC    HY21806   5.295   5.675   6.662 -0.9408  0.6209  1.9185
  189SLPC   O3121807   5.265   5.788   6.840 -0.9409  0.1472 -0.2254
  189SLPC   C3121808   5.139   5.804   6.805 -0.3873  0.5402  0.6590
  189SLPC   O3221809   5.096   5.774   6.695  0.0722  0.2312 -0.3007
  189SLPC   C3221810   5.063   5.860   6.919  0.0631  0.4068 -0.5107
  189SLPC   H2X21811   4.955   5.853   6.893  0.0111 -1.3419  0.0838
  189SLPC   H2Y21812   5.099   5.961   6.949  0.4987 -0.0740  0.6280
  189SLPC   C2321813   5.418   6.179   6.983 -0.3687  0.6599  0.4500
  189SLPC   H3R21814   5.308   6.187   6.974 -0.0650  3.3063 -1.3465
  189SLPC   H3S21815   5.461   6.270   7.029 -3.5185  1.2305  2.4402
  189SLPC   C2421816   5.450   6.061   7.073 -0.2235  0.7366 -0.3266
  189SLPC   H4R21817   5.558   6.037   7.073 -0.2803  0.2822  2.5583
  189SLPC   H4S21818   5.402   5.965   7.046 -0.0640  0.2289  1.1684
  189SLPC   C2521819   5.414   6.093   7.218 -0.1145 -0.0283 -0.0747
  189SLPC   H5R21820   5.304   6.102   7.226 -0.1756 -1.6197  1.1540
  189SLPC   H5S21821   5.461   6.185   7.259 -0.9154  0.3794 -0.0719
  189SLPC   C2621822   5.455   5.983   7.310 -0.1266 -0.4131 -0.0725
  189SLPC   H6R21823   5.563   5.961   7.298 -0.3004 -2.3341  1.5641
  189SLPC   H6S21824   5.394   5.890   7.303  1.6360 -1.4645 -1.9898
  189SLPC   C2721825   5.449   6.023   7.459 -0.1336 -0.4268  0.0340
  189SLPC   H7R21826   5.344   6.059   7.471 -0.8569 -1.8725 -1.6703
  189SLPC   H7S21827   5.518   6.109   7.466 -0.8467  0.2833 -1.4722
  189SLPC   C2821828   5.481   5.913   7.557  0.6581 -0.4834 -0.9488
  189SLPC   H8R21829   5.587   5.885   7.541  0.3685 -1.0856 -1.9043
  189SLPC   H8S21830   5.415   5.827   7.532  1.5203 -1.6984  0.8347
  189SLPC   C2921831   5.454   5.952   7.700  0.3658 -0.1018 -0.6815
  189SLPC   H9R21832   5.362   6.012   7.707  0.6245  0.2000  0.2351
  189SLPC  C21021833   5.510   5.914   7.818  0.4165 -0.3509  0.3674
  189SLPC  H10R21834   5.471   5.960   7.910 -0.5192 -0.4609  0.0403
  189SLPC  C21121835   5.616   5.813   7.833  0.1015 -0.2995 -0.1346
  189SLPC  H11R21836   5.688   5.837   7.914  0.7722  1.5653 -1.2624
  189SLPC  H11S21837   5.681   5.793   7.745  0.0109  0.4016 -0.3618
  189SLPC  C21221838   5.554   5.686   7.882  0.2447  0.1059 -0.2581
  189SLPC  H12R21839   5.517   5.621   7.802  0.7884  0.6360 -0.9478
  189SLPC  C21321840   5.526   5.653   8.011  0.2301  0.1472 -0.1672
  189SLPC  H13R21841   5.490   5.551   8.032 -1.4137  1.0724  1.7154
  189SLPC  C21421842   5.555   5.725   8.139 -0.4058 -0.7718 -0.3881
  189SLPC  H14R21843   5.468   5.725   8.208 -0.3907 -1.2054 -0.3668
  189SLPC  H14S21844   5.575   5.828   8.104  1.4683 -0.9259  0.2046
  189SLPC  C21521845   5.668   5.672   8.229  0.1166  0.6080 -0.6037
  189SLPC  H15R21846   5.762   5.644   8.175 -1.1832 -0.5780 -2.2987
  189SLPC  H15S21847   5.632   5.581   8.281  0.7306  0.7746  0.1193
  189SLPC  C21621848   5.706   5.764   8.339 -0.4966 -0.2372 -0.6013
  189SLPC  H16R21849   5.620   5.794   8.403 -0.7532 -1.1659 -0.5161
  189SLPC  H16S21850   5.729   5.860   8.288 -0.8547 -1.1346 -2.4811
  189SLPC  C21721851   5.833   5.711   8.409  0.1992 -0.1690  0.4489
  189SLPC  H17R21852   5.874   5.806   8.451  0.4868 -0.6591  1.3003
  189SLPC  H17S21853   5.905   5.667   8.337  0.8620 -0.7876  1.4835
  189SLPC  C21821854   5.783   5.610   8.518 -0.3313  0.0049  1.0856
  189SLPC  H18R21855   5.734   5.523   8.469 -0.8909  0.8846  0.0589
  189SLPC  H18S21856   5.711   5.661   8.586  0.4947 -1.0231  2.7538
  189SLPC  H18T21857   5.864   5.573   8.584 -0.9286 -1.1683  1.1718
  189SLPC   C3321858   5.078   5.776   7.047 -0.2355 -0.0296 -0.0849
  189SLPC   H3X21859   5.188   5.764   7.058 -0.0705  0.3703 -1.1562
  189SLPC   H3Y21860   5.038   5.673   7.041 -1.8203  0.5701 -0.0054
  189SLPC   C3421861   5.044   5.853   7.174 -0.0050  0.4800 -0.5064
  189SLPC   H4X21862   4.937   5.883   7.174 -0.0104  0.4687 -0.0310
  189SLPC   H4Y21863   5.101   5.948   7.181 -0.2568  0.4630  2.4248
  189SLPC   C3521864   5.075   5.775   7.304  0.0119  0.4676 -0.4742
  189SLPC   H5X21865   5.182   5.746   7.310 -0.0103  0.1828 -1.4003
  189SLPC   H5Y21866   5.017   5.681   7.311  1.4685 -0.4190 -0.0327
  189SLPC   C3621867   5.045   5.863   7.422  0.8406 -0.1148 -0.3836
  189SLPC   H6X21868   4.935   5.876   7.418  0.8967  0.4658 -0.0830
  189SLPC   H6Y21869   5.099   5.959   7.411 -0.5691  1.1613  3.1665
  189SLPC   C3721870   5.088   5.788   7.551  0.8114 -0.2603 -0.8742
  189SLPC   H7X21871   5.194   5.756   7.543  0.7356 -1.1353  1.1986
  189SLPC   H7Y21872   5.031   5.693   7.553 -0.3417  0.4429  0.4367
  189SLPC   C3821873   5.059   5.879   7.670  0.5709  0.2121 -0.2132
  189SLPC   H8X21874   4.955   5.918   7.665  0.1764 -0.7376  0.5240
  189SLPC   H8Y21875   5.128   5.966   7.669  0.9265 -0.0663  0.1278
  189SLPC   C3921876   5.083   5.810   7.807  0.0376 -0.0844  0.2776
  189SLPC   H9X21877   5.192   5.790   7.816  0.4160  1.6164 -0.5400
  189SLPC   H9Y21878   5.027   5.716   7.826 -0.3276 -0.3749 -2.1698
  189SLPC  C31021879   5.038   5.899   7.922  0.8223 -0.0345 -0.2567
  189SLPC  H10X21880   4.931   5.920   7.904  1.3120  2.2267 -0.5988
  189SLPC  H10Y21881   5.091   5.996   7.917 -0.6551  0.6839 -2.6470
  189SLPC  C31121882   5.074   5.850   8.064 -0.5748  0.0698  0.1270
  189SLPC  H11X21883   5.183   5.832   8.066 -0.2558  1.9032  0.6831
  189SLPC  H11Y21884   5.029   5.749   8.075 -0.4058 -0.4100 -3.2180
  189SLPC  C31221885   5.034   5.948   8.166  0.7296 -0.0891  0.0219
  189SLPC  H12X21886   4.942   5.986   8.116  1.7557 -0.3326 -2.1175
  189SLPC  H12Y21887   5.105   6.033   8.181  0.8748 -0.2910  0.4738
  189SLPC  C31321888   5.010   5.903   8.310 -0.2500  0.5193  0.2296
  189SLPC  H13X21889   5.107   5.882   8.360  0.3108 -0.7396 -1.3175
  189SLPC  H13Y21890   4.944   5.814   8.313  1.8285 -1.0960 -0.2970
  189SLPC  C31421891   4.947   6.021   8.376 -0.2003  0.1509  0.0706
  189SLPC  H14X21892   4.992   6.117   8.345 -2.3390  0.9622 -0.6286
  189SLPC  H14Y21893   4.966   6.018   8.485  2.9478 -3.0829 -0.4686
  189SLPC  C31521894   4.796   6.028   8.352  0.8305  0.3372  0.8945
  189SLPC  H15X21895   4.763   5.930   8.394  2.4289 -0.1818  0.9603
  189SLPC  H15Y21896   4.776   6.023   8.243 -2.3999 -0.3896  1.4429
  189SLPC  C31621897   4.714   6.146   8.411 -0.1897 -0.4535  0.1745
  189SLPC  H16X21898   4.708   6.123   8.520  0.1020 -1.2312  0.0289
  189SLPC  H16Y21899   4.611   6.137   8.370 -0.2362  2.8723 -0.5831
  189SLPC  C31721900   4.772   6.287   8.390  0.2157  0.3983 -0.3666
  189SLPC  H17X21901   4.744   6.312   8.285 -0.0989  1.5908 -0.0057
  189SLPC  H17Y21902   4.881   6.296   8.410  0.4810  1.3707 -2.1599
  189SLPC  C31821903   4.704   6.394   8.476  0.9493 -0.3119  0.4993
  189SLPC  H18X21904   4.755   6.392   8.574 -0.4516 -0.2573  1.2530
  189SLPC  H18Y21905   4.594   6.379   8.486  0.8464 -0.0003 -0.1399
  189SLPC  H18Z21906   4.715   6.498   8.440 -1.0847 -0.4652 -0.6461
  190SLPC     N21907   6.789   5.103   6.507 -0.1212 -0.8594 -0.1609
  190SLPC   C1321908   6.760   4.959   6.506  0.0494 -0.7966  0.1361
  190SLPC  H13A21909   6.820   4.915   6.427 -0.6867 -2.3761  0.4265
  190SLPC  H13B21910   6.789   4.918   6.601 -0.2101  0.9172  0.9549
  190SLPC  H13C21911   6.660   4.928   6.478  0.9682 -3.0850 -0.8364
  190SLPC   C1421912   6.769   5.168   6.372  0.5496  0.9175 -0.3223
  190SLPC  H14A21913   6.672   5.159   6.327  1.2682  1.8998 -2.1357
  190SLPC  H14B21914   6.788   5.274   6.373 -1.5548  1.3275 -1.5344
  190SLPC  H14C21915   6.839   5.122   6.303  1.4465  2.0095 -0.1587
  190SLPC   C1521916   6.934   5.118   6.538 -0.0997 -0.7274  0.0005
  190SLPC  H15A21917   6.999   5.076   6.463  0.3492 -0.3244  0.1603
  190SLPC  H15B21918   6.956   5.224   6.528 -0.3669 -0.7066 -0.3845
  190SLPC  H15C21919   6.957   5.094   6.641 -2.0134 -1.9419  0.1522
  190SLPC   C1221920   6.703   5.176   6.606 -0.3211  0.1945  0.7226
  190SLPC  H12A21921   6.742   5.277   6.610  0.6634 -0.2103  1.6855
  190SLPC  H12B21922   6.731   5.129   6.699 -0.8079  0.4377  0.9962
  190SLPC   C1121923   6.546   5.190   6.599  0.0385  0.4990  0.6139
  190SLPC  H11A21924   6.511   5.235   6.694 -1.5023 -1.4080  0.9981
  190SLPC  H11B21925   6.508   5.085   6.602 -0.4812  0.7370  3.2992
  190SLPC     P21926   6.548   5.417   6.475  0.2138 -0.1509 -0.2644
  190SLPC   O1321927   6.679   5.447   6.538 -0.2717  0.1158 -0.1570
  190SLPC   O1421928   6.529   5.460   6.333 -0.7329 -0.2273 -0.6226
  190SLPC   O1221929   6.510   5.258   6.474  0.2021  0.0257  0.5526
  190SLPC   O1121930   6.438   5.486   6.559  0.1093  0.0830  0.2154
  190SLPC    C121931   6.299   5.451   6.558 -0.0610  0.6316  0.7073
  190SLPC    HA21932   6.249   5.518   6.485  2.0313  0.5839 -0.8311
  190SLPC    HB21933   6.275   5.344   6.538 -0.3271  1.1814 -2.1738
  190SLPC    C221934   6.230   5.476   6.694  0.4399  0.4654 -0.5290
  190SLPC    HS21935   6.259   5.578   6.730  0.1432 -0.0734  1.2898
  190SLPC   O2121936   6.286   5.378   6.787  0.3218 -0.4154 -0.6927
  190SLPC   C2121937   6.281   5.407   6.913  0.2681  0.1965  0.8251
  190SLPC   O2221938   6.266   5.518   6.957 -0.0348  0.0428 -0.0048
  190SLPC   C2221939   6.290   5.277   6.990  0.1557  0.2370 -0.2992
  190SLPC   H2R21940   6.248   5.189   6.938  0.6603 -1.5464  2.2508
  190SLPC   H2S21941   6.397   5.256   7.008  0.1526 -1.1743 -1.8636
  190SLPC    C321942   6.073   5.448   6.692 -0.0202 -0.6461 -0.3775
  190SLPC    HX21943   6.072   5.349   6.641  0.5290 -1.1656  0.5833
  190SLPC    HY21944   6.025   5.520   6.623  1.2408  1.1682  0.5893
  190SLPC   O3121945   6.006   5.445   6.825  0.5238 -0.1057  0.5884
  190SLPC   C3121946   5.979   5.575   6.861  0.4003  0.7392  0.5080
  190SLPC   O3221947   6.003   5.676   6.799  0.5248  0.3651 -0.5989
  190SLPC   C3221948   5.903   5.562   6.995 -0.1396 -0.0259  0.5812
  190SLPC   H2X21949   5.988   5.535   7.060  0.2707  0.1742  0.1345
  190SLPC   H2Y21950   5.823   5.485   6.986 -0.4230  0.6790 -4.3432
  190SLPC   C2321951   6.228   5.291   7.124 -0.1222  1.2856 -0.0878
  190SLPC   H3R21952   6.121   5.322   7.122 -0.0160  1.6450 -0.3832
  190SLPC   H3S21953   6.279   5.376   7.175 -0.5280  2.2069 -1.1812
  190SLPC   C2421954   6.248   5.164   7.206 -0.1886 -0.1894 -0.0341
  190SLPC   H4R21955   6.357   5.147   7.214 -0.0406  0.0365 -1.4903
  190SLPC   H4S21956   6.203   5.092   7.135 -0.6354 -1.2107  1.2759
  190SLPC   C2521957   6.180   5.159   7.339  0.0669 -0.7375 -0.0578
  190SLPC   H5R21958   6.201   5.058   7.383  1.1476  0.3286  1.9470
  190SLPC   H5S21959   6.070   5.158   7.324 -0.0851  1.6972  0.7437
  190SLPC   C2621960   6.214   5.276   7.431 -0.7694 -0.8327 -0.3952
  190SLPC   H6R21961   6.170   5.368   7.388  1.9429 -0.4392 -2.4789
  190SLPC   H6S21962   6.323   5.296   7.424 -0.8158 -0.0507  0.8609
  190SLPC   C2721963   6.159   5.262   7.573 -0.0251 -0.2954  0.1606
  190SLPC   H7R21964   6.061   5.210   7.571 -0.1616 -0.0311 -2.1982
  190SLPC   H7S21965   6.157   5.363   7.619 -1.8912 -0.5391  0.6329
  190SLPC   C2821966   6.255   5.172   7.650  0.4397 -0.5817 -0.8079
  190SLPC   H8R21967   6.345   5.234   7.669  0.0001 -0.2804  0.3380
  190SLPC   H8S21968   6.273   5.078   7.594  1.1658  0.1955 -1.9205
  190SLPC   C2921969   6.191   5.142   7.783 -1.0568  0.1771 -0.0634
  190SLPC   H9R21970   6.098   5.085   7.765 -0.2177 -1.2370 -0.0211
  190SLPC  C21021971   6.243   5.170   7.904  0.2044  0.0962 -0.0296
  190SLPC  H10R21972   6.192   5.143   7.997  1.3101 -0.0798  0.5317
  190SLPC  C21121973   6.371   5.254   7.930  0.3797  0.5051 -1.1106
  190SLPC  H11R21974   6.384   5.346   7.870  0.0619  0.1186 -1.7710
  190SLPC  H11S21975   6.460   5.189   7.916 -0.3845 -0.8186  0.0925
  190SLPC  C21221976   6.377   5.325   8.064  0.3405 -0.0965  0.3351
  190SLPC  H12R21977   6.347   5.430   8.056 -3.3371 -1.0296  0.7727
  190SLPC  C21321978   6.412   5.290   8.192  0.0814  0.5051  0.0933
  190SLPC  H13R21979   6.417   5.352   8.282  0.9720  0.9649 -0.2679
  190SLPC  C21421980   6.455   5.148   8.220  0.2448  0.1855  0.6877
  190SLPC  H14R21981   6.401   5.080   8.151  0.2978  0.7104  0.1330
  190SLPC  H14S21982   6.417   5.120   8.321  1.9054 -1.9926  0.7511
  190SLPC  C21521983   6.609   5.118   8.210  0.2890  0.0146 -0.3430
  190SLPC  H15R21984   6.663   5.186   8.279 -2.3589  0.0267  1.7782
  190SLPC  H15S21985   6.648   5.133   8.107 -1.0681  1.9245 -0.5986
  190SLPC  C21621986   6.645   4.971   8.256  0.3222 -0.4246  0.2181
  190SLPC  H16R21987   6.728   4.927   8.197  1.1638 -1.8605  2.3861
  190SLPC  H16S21988   6.557   4.910   8.229  0.3357 -0.5809  0.5153
  190SLPC  C21721989   6.684   4.955   8.404  0.1301  0.5111 -0.3449
  190SLPC  H17R21990   6.784   5.003   8.414 -1.0478  3.2335 -1.2357
  190SLPC  H17S21991   6.703   4.847   8.426  2.0663  0.9648  0.3550
  190SLPC  C21821992   6.594   5.006   8.518  0.2481  0.1449  0.0549
  190SLPC  H18R21993   6.556   5.110   8.510  0.2915  0.0849 -1.0113
  190SLPC  H18S21994   6.648   4.982   8.613  0.3701 -0.0437 -0.0638
  190SLPC  H18T21995   6.499   4.949   8.514  0.5435 -0.2439 -1.4589
  190SLPC   C3321996   5.836   5.691   7.044 -0.1967  0.1708 -0.0187
  190SLPC   H3X21997   5.765   5.707   6.960  0.9200  3.1277 -0.4580
  190SLPC   H3Y21998   5.910   5.773   7.032 -1.0828  1.0141  0.1984
  190SLPC   C3421999   5.796   5.686   7.188  0.0220  0.2684 -0.0495
  190SLPC   H4X22000   5.752   5.785   7.215  0.9841  0.1703  1.9303
  190SLPC   H4Y22001   5.882   5.670   7.256 -1.7520 -2.1406  1.7094
  190SLPC   C3522002   5.699   5.577   7.220  0.2141  0.4255  0.5059
  190SLPC   H5X22003   5.744   5.477   7.203  1.4408  0.9708  0.5338
  190SLPC   H5Y22004   5.611   5.592   7.153  0.1654 -1.5967  0.0891
  190SLPC   C3622005   5.663   5.581   7.372  0.3144  0.2810 -0.1698
  190SLPC   H6X22006   5.568   5.524   7.384  0.6450  0.3044  3.2058
  190SLPC   H6Y22007   5.643   5.687   7.399 -0.8623  0.5120 -1.8418
  190SLPC   C3722008   5.760   5.498   7.462 -0.3187 -0.6333  0.0289
  190SLPC   H7X22009   5.855   5.549   7.436 -2.1393  1.7147 -2.2737
  190SLPC   H7Y22010   5.774   5.396   7.422  1.2757 -0.3089 -0.2826
  190SLPC   C3822011   5.741   5.517   7.613  0.1330  0.3198 -0.2495
  190SLPC   H8X22012   5.637   5.486   7.635  0.2369  0.5090  0.4963
  190SLPC   H8Y22013   5.739   5.622   7.649  1.1713  0.8283 -1.6007
  190SLPC   C3922014   5.837   5.437   7.705  0.1820 -0.4951  0.3299
  190SLPC   H9X22015   5.935   5.481   7.677 -0.3863  0.4253 -0.2304
  190SLPC   H9Y22016   5.831   5.329   7.680 -0.8995 -0.3997  0.1917
  190SLPC  C31022017   5.821   5.463   7.855 -0.0616 -0.7105 -1.0261
  190SLPC  H10X22018   5.716   5.454   7.889 -0.0449 -0.2954 -0.8640
  190SLPC  H10Y22019   5.849   5.568   7.878 -0.5289 -0.8703  0.3100
  190SLPC  C31122020   5.916   5.372   7.940 -0.1143  0.0640  0.0327
  190SLPC  H11X22021   6.019   5.390   7.904 -0.2811  2.3795  0.6252
  190SLPC  H11Y22022   5.882   5.267   7.928 -1.3546  0.4586 -0.0359
  190SLPC  C31222023   5.906   5.395   8.095 -0.1752  0.7406 -0.1254
  190SLPC  H12X22024   5.797   5.408   8.112 -0.5162 -1.6155 -0.4159
  190SLPC  H12Y22025   5.955   5.492   8.118  2.3199 -0.0830 -1.8101
  190SLPC  C31322026   5.963   5.288   8.185 -0.4971 -0.0583  0.0640
  190SLPC  H13X22027   6.064   5.257   8.150 -0.4647  0.0959  0.0200
  190SLPC  H13Y22028   5.920   5.186   8.181  2.0646 -1.2224  1.0719
  190SLPC  C31422029   5.981   5.337   8.327  0.1784  0.1332 -0.1083
  190SLPC  H14X22030   5.889   5.353   8.386  0.0611 -1.6304  0.2101
  190SLPC  H14Y22031   6.038   5.432   8.316  1.1796 -0.3844  0.4747
  190SLPC  C31522032   6.061   5.246   8.425 -0.0897  0.1608  0.1249
  190SLPC  H15X22033   6.159   5.229   8.376  0.9596  0.3234  2.0872
  190SLPC  H15Y22034   6.009   5.149   8.439  0.4041  0.0070  0.9484
  190SLPC  C31622035   6.077   5.316   8.564  0.4701  0.3532  0.4762
  190SLPC  H16X22036   6.117   5.419   8.550 -2.5424  1.5281  0.0659
  190SLPC  H16Y22037   6.161   5.265   8.616  0.2505 -1.1980 -0.6510
  190SLPC  C31722038   5.957   5.316   8.657 -0.3271 -0.2877  0.3316
  190SLPC  H17X22039   5.934   5.210   8.681  0.7154 -0.0537  2.5552
  190SLPC  H17Y22040   5.863   5.362   8.621  0.7570  1.9736  0.3364
  190SLPC  C31822041   5.965   5.395   8.787 -0.1873  0.2473  0.4804
  190SLPC  H18X22042   6.021   5.490   8.775 -0.5717  0.4314  0.1606
  190SLPC  H18Y22043   6.023   5.337   8.862 -0.4698 -0.9353 -0.2073
  190SLPC  H18Z22044   5.864   5.413   8.828 -0.1066  1.0429  0.3392
  191SLPC     N22045   4.321   0.142   5.650 -0.2760 -0.4679  0.0551
  191SLPC   C1322046   4.385   0.067   5.540 -0.4984  0.0355 -0.5274
  191SLPC  H13A22047   4.447   0.132   5.479 -1.0938 -0.3220 -1.5258
  191SLPC  H13B22048   4.457  -0.002   5.581 -1.5698  0.4527  2.0993
  191SLPC  H13C22049   4.314   0.014   5.479  1.5026  0.9866 -3.8855
  191SLPC   C1422050   4.268   0.041   5.742  0.1873 -0.0815  0.0326
  191SLPC  H14A22051   4.214   0.081   5.826  0.1905 -0.3289  0.1537
  191SLPC  H14B22052   4.196  -0.024   5.695 -0.4507 -0.3509  1.3568
  191SLPC  H14C22053   4.342  -0.028   5.779 -0.2247 -0.6386 -0.1845
  191SLPC   C1522054   4.206   0.224   5.587  0.5113 -0.7310 -0.5702
  191SLPC  H15A22055   4.234   0.300   5.516 -0.9492 -0.5289 -0.9578
  191SLPC  H15B22056   4.141   0.150   5.542  0.5763 -0.7561 -0.6211
  191SLPC  H15C22057   4.149   0.272   5.665 -0.5062 -1.2264 -0.9938
  191SLPC   C1222058   4.418   0.224   5.732 -0.2363 -0.1072 -0.4231
  191SLPC  H12A22059   4.469   0.293   5.666 -0.5160  1.5536  1.0638
  191SLPC  H12B22060   4.502   0.164   5.764  1.0051  0.2048 -2.9636
  191SLPC   C1122061   4.368   0.307   5.854  0.2736 -0.8357  0.3759
  191SLPC  H11A22062   4.451   0.367   5.897 -0.7285 -1.2489  2.9728
  191SLPC  H11B22063   4.347   0.241   5.941 -1.0237  0.6717  1.2519
  191SLPC     P22064   4.262   0.534   5.803 -0.2362  0.0753 -0.0429
  191SLPC   O1322065   4.384   0.560   5.724 -0.0921 -0.3704 -0.1367
  191SLPC   O1422066   4.130   0.579   5.750 -0.4124 -0.0904 -0.2769
  191SLPC   O1222067   4.243   0.382   5.828  0.2863 -0.0687 -0.3212
  191SLPC   O1122068   4.276   0.607   5.939 -0.0060 -0.8124 -0.1955
  191SLPC    C122069   4.235   0.548   6.059 -0.2367  0.1448  0.6305
  191SLPC    HA22070   4.134   0.586   6.085  0.9214  2.6894  1.5977
  191SLPC    HB22071   4.218   0.439   6.050 -0.1411  0.1886 -0.1086
  191SLPC    C222072   4.337   0.576   6.175  0.4367 -0.4203 -0.8235
  191SLPC    HS22073   4.334   0.476   6.225  0.2612  0.0307  0.0818
  191SLPC   O2122074   4.305   0.686   6.258 -0.5257  0.6786 -0.0505
  191SLPC   C2122075   4.218   0.661   6.357 -1.0712 -0.3003  0.9974
  191SLPC   O2222076   4.152   0.559   6.371 -0.2780 -0.4818  0.5292
  191SLPC   C2222077   4.219   0.777   6.452  0.3943 -0.2409  0.4300
  191SLPC   H2R22078   4.221   0.867   6.387  0.4436 -2.0076 -2.1105
  191SLPC   H2S22079   4.125   0.775   6.511  0.5514 -0.7000  0.6612
  191SLPC    C322080   4.482   0.590   6.132  0.1976 -0.2622  0.5025
  191SLPC    HX22081   4.484   0.648   6.037  1.9035  3.0165  2.4483
  191SLPC    HY22082   4.524   0.499   6.083  0.7054  1.7388 -2.9280
  191SLPC   O3122083   4.578   0.638   6.223  0.2071  0.3566 -0.0591
  191SLPC   C3122084   4.614   0.558   6.326 -0.9937 -0.7888  0.8016
  191SLPC   O3222085   4.583   0.441   6.340  0.4481 -0.4023  0.5381
  191SLPC   C3222086   4.698   0.638   6.426  0.6678 -0.2111 -0.2562
  191SLPC   H2X22087   4.637   0.715   6.479  1.0764 -0.4371  0.5513
  191SLPC   H2Y22088   4.764   0.703   6.365 -1.1737 -0.0338 -2.1056
  191SLPC   C2322089   4.345   0.785   6.543  0.4715  0.1373  0.3940
  191SLPC   H3R22090   4.347   0.881   6.599  1.0979  0.5084 -0.2489
  191SLPC   H3S22091   4.435   0.782   6.478  0.6729  0.1920  0.6680
  191SLPC   C2422092   4.348   0.671   6.648  0.5089  0.9736 -0.1867
  191SLPC   H4R22093   4.356   0.572   6.600 -1.2328 -0.5272  2.4764
  191SLPC   H4S22094   4.246   0.669   6.692  0.5399 -0.8796 -0.1877
  191SLPC   C2522095   4.445   0.687   6.768 -0.2856  0.0154 -0.1695
  191SLPC   H5R22096   4.533   0.740   6.726  0.7049 -1.7021 -0.3182
  191SLPC   H5S22097   4.484   0.584   6.777 -0.8138 -0.6169 -4.3536
  191SLPC   C2622098   4.380   0.736   6.902 -0.4453  0.6403  0.5647
  191SLPC   H6R22099   4.295   0.669   6.926 -1.6741  2.8172  2.4271
  191SLPC   H6S22100   4.343   0.840   6.895  0.0600  0.5989 -4.3526
  191SLPC   C2722101   4.480   0.720   7.013 -0.1856  0.1178 -0.0864
  191SLPC   H7R22102   4.498   0.611   7.028  0.8604  0.3358  0.2713
  191SLPC   H7S22103   4.444   0.766   7.107  1.6748  3.3358 -0.8824
  191SLPC   C2822104   4.622   0.787   6.986 -0.7298  0.9335  0.2466
  191SLPC   H8R22105   4.660   0.748   6.889 -1.0422  1.1849  0.0243
  191SLPC   H8S22106   4.686   0.751   7.070  1.2702  0.7407 -1.3086
  191SLPC   C2922107   4.601   0.932   6.974  0.4079 -1.2909  0.0059
  191SLPC   H9R22108   4.506   0.958   6.925  0.8502 -1.1066 -0.7562
  191SLPC  C21022109   4.687   1.029   7.013 -0.1385  0.0889 -0.2307
  191SLPC  H10R22110   4.648   1.131   7.004  0.1701  0.0500 -2.3508
  191SLPC  C21122111   4.824   1.010   7.076  0.5592  0.2813 -0.5965
  191SLPC  H11R22112   4.898   1.085   7.040  2.1084 -0.4285  1.0830
  191SLPC  H11S22113   4.871   0.912   7.053  1.8956  0.8126 -0.1854
  191SLPC  C21222114   4.822   1.023   7.225 -0.1059 -0.2368  0.2669
  191SLPC  H12R22115   4.717   1.029   7.257 -0.3580 -0.7448 -0.4359
  191SLPC  C21322116   4.927   1.020   7.309 -0.2714 -0.6248 -0.0317
  191SLPC  H13R22117   4.911   1.026   7.418  1.3985 -2.0560  0.3173
  191SLPC  C21422118   5.074   1.010   7.262 -0.3820 -0.0639  0.2462
  191SLPC  H14R22119   5.079   0.976   7.156 -0.5166 -0.4909  0.3737
  191SLPC  H14S22120   5.132   0.926   7.306 -0.1779 -0.8682 -1.4998
  191SLPC  C21522121   5.173   1.129   7.278 -0.0553  0.6249 -0.2175
  191SLPC  H15R22122   5.125   1.214   7.226  2.6012  1.5860 -1.2184
  191SLPC  H15S22123   5.263   1.100   7.219 -0.4150  0.3714 -0.6394
  191SLPC  C21622124   5.197   1.156   7.423  0.6942 -0.2526  0.4775
  191SLPC  H16R22125   5.225   1.064   7.479  2.1383 -0.7691 -1.0470
  191SLPC  H16S22126   5.110   1.192   7.482 -0.2103  0.0312 -1.0011
  191SLPC  C21722127   5.313   1.254   7.457 -0.1147  0.0932 -0.1963
  191SLPC  H17R22128   5.303   1.353   7.407 -2.8000  0.4483  0.9355
  191SLPC  H17S22129   5.403   1.208   7.411 -0.2263  1.5135 -1.9179
  191SLPC  C21822130   5.326   1.272   7.607  0.3039  0.1629  0.1544
  191SLPC  H18R22131   5.343   1.176   7.660  2.2583 -0.5425 -1.6796
  191SLPC  H18S22132   5.235   1.323   7.645 -0.0473 -0.2189 -0.1634
  191SLPC  H18T22133   5.416   1.336   7.624  0.2548  0.3531 -0.2789
  191SLPC   C3322134   4.749   0.547   6.537 -1.1672  0.0989  0.1802
  191SLPC   H3X22135   4.832   0.493   6.487 -2.0188 -0.6114 -0.4717
  191SLPC   H3Y22136   4.665   0.485   6.573 -1.0995 -0.6913 -0.9942
  191SLPC   C3422137   4.819   0.628   6.648  0.0535  0.0955  0.7522
  191SLPC   H4X22138   4.751   0.703   6.694 -0.2356 -0.0194  0.5156
  191SLPC   H4Y22139   4.904   0.689   6.611 -1.4485  1.1178 -1.1441
  191SLPC   C3522140   4.876   0.531   6.760  0.0416 -0.0363  0.4810
  191SLPC   H5X22141   4.948   0.460   6.713  1.6073 -0.4693  3.3754
  191SLPC   H5Y22142   4.791   0.478   6.808  0.3953 -0.7651  0.3077
  191SLPC   C3622143   4.950   0.599   6.880  0.6957 -0.4793 -0.1262
  191SLPC   H6X22144   4.878   0.655   6.944  0.5921  0.1017 -0.7474
  191SLPC   H6Y22145   5.034   0.663   6.847  1.5054 -2.3606 -1.7934
  191SLPC   C3722146   5.029   0.496   6.964  0.2464 -0.3946  0.2510
  191SLPC   H7X22147   5.099   0.452   6.890 -1.4781 -1.8735 -0.5634
  191SLPC   H7Y22148   4.946   0.426   6.992  1.1062 -1.5350 -0.0097
  191SLPC   C3822149   5.102   0.553   7.080  0.5610  0.4316 -0.3330
  191SLPC   H8X22150   5.174   0.631   7.046  2.5080 -1.7659 -1.3281
  191SLPC   H8Y22151   5.165   0.477   7.131 -0.1679  0.8946  1.2822
  191SLPC   C3922152   5.013   0.613   7.194 -0.0045  0.1117 -0.2953
  191SLPC   H9X22153   4.908   0.621   7.158  0.0318 -1.2708 -0.7658
  191SLPC   H9Y22154   5.031   0.719   7.222  0.7208 -0.4191  1.2761
  191SLPC  C31022155   5.024   0.528   7.322  0.5641 -0.1092  0.3742
  191SLPC  H10X22156   5.127   0.511   7.358 -0.3070 -0.3391  2.8482
  191SLPC  H10Y22157   4.989   0.423   7.310  1.4537 -0.4815  1.0364
  191SLPC  C31122158   4.946   0.598   7.432  0.4627  0.1306  0.2748
  191SLPC  H11X22159   4.996   0.692   7.464 -0.9101  0.7103  0.7805
  191SLPC  H11Y22160   4.949   0.526   7.517 -1.7424  0.8272  0.9905
  191SLPC  C31222161   4.801   0.633   7.402  0.3057  0.9189 -0.9033
  191SLPC  H12X22162   4.744   0.547   7.360 -1.8643  2.0441 -0.3373
  191SLPC  H12Y22163   4.799   0.712   7.324  2.5022 -0.3942 -2.3347
  191SLPC  C31322164   4.724   0.691   7.529  0.1302 -0.2296  0.0593
  191SLPC  H13X22165   4.796   0.766   7.569 -0.2367  0.0764  0.1460
  191SLPC  H13Y22166   4.723   0.600   7.593  0.9644 -0.4269 -0.1926
  191SLPC  C31422167   4.583   0.746   7.497  0.1013 -0.3194  0.3694
  191SLPC  H14X22168   4.516   0.658   7.508  0.3951 -0.8589 -1.8320
  191SLPC  H14Y22169   4.583   0.787   7.394 -0.8966  0.2733  0.5965
  191SLPC  C31522170   4.530   0.859   7.589  0.0841 -0.1478 -0.1868
  191SLPC  H15X22171   4.424   0.876   7.560  0.1491 -1.0611 -1.0035
  191SLPC  H15Y22172   4.584   0.952   7.563  1.0606 -0.5366  0.4180
  191SLPC  C31622173   4.527   0.831   7.740  0.5083 -0.2440  0.0140
  191SLPC  H16X22174   4.631   0.812   7.774  0.9287  0.9685 -0.6114
  191SLPC  H16Y22175   4.472   0.734   7.747  1.1182 -0.4534  2.3131
  191SLPC  C31722176   4.468   0.942   7.828 -0.4686  0.2935 -0.4595
  191SLPC  H17X22177   4.366   0.963   7.789 -0.0176  0.0327 -1.8471
  191SLPC  H17Y22178   4.527   1.031   7.799  1.3894 -0.2494  1.5828
  191SLPC  C31822179   4.480   0.923   7.977 -0.4837 -0.4028  0.6502
  191SLPC  H18X22180   4.473   0.816   8.007  3.0894 -0.6855  0.6235
  191SLPC  H18Y22181   4.423   0.993   8.042 -0.6214 -0.0904  0.1939
  191SLPC  H18Z22182   4.588   0.935   8.002 -0.5963  2.0416  0.0939
  192SLPC     N22183   4.637   1.229   6.436 -0.1605  0.8585  0.1761
  192SLPC   C1322184   4.757   1.311   6.428  0.7462  0.6865  0.4257
  192SLPC  H13A22185   4.813   1.281   6.341  2.1381 -1.3674  1.9855
  192SLPC  H13B22186   4.723   1.413   6.419  2.3725  1.2051 -0.0436
  192SLPC  H13C22187   4.835   1.306   6.503 -0.2798  0.1920  1.4631
  192SLPC   C1422188   4.546   1.252   6.320  0.3410  0.9503 -0.0394
  192SLPC  H14A22189   4.455   1.196   6.330  1.2500 -0.4400  0.6761
  192SLPC  H14B22190   4.524   1.357   6.306  0.9602  0.8421 -2.0485
  192SLPC  H14C22191   4.586   1.203   6.232 -0.8235 -1.0857  0.5594
  192SLPC   C1522192   4.563   1.254   6.564  0.7485 -0.2047  0.1540
  192SLPC  H15A22193   4.619   1.222   6.650  1.4545  0.1101 -0.1896
  192SLPC  H15B22194   4.548   1.361   6.574 -2.2941 -0.5141 -0.4774
  192SLPC  H15C22195   4.467   1.204   6.570 -0.4484  1.9508 -0.5580
  192SLPC   C1222196   4.683   1.077   6.438  0.2845  0.4215  0.0289
  192SLPC  H12A22197   4.750   1.073   6.354 -1.3893  0.7122 -1.3292
  192SLPC  H12B22198   4.595   1.018   6.419  0.8512 -0.7772  1.0405
  192SLPC   C1122199   4.749   1.024   6.568 -0.0675 -0.0725 -0.5255
  192SLPC  H11A22200   4.765   0.915   6.553  2.1309 -0.1874  2.1187
  192SLPC  H11B22201   4.681   1.037   6.654 -0.6223 -2.2710 -0.5981
  192SLPC     P22202   5.005   1.064   6.530  0.4342 -0.0243 -0.6259
  192SLPC   O1322203   4.982   0.986   6.408  0.0319 -0.0853 -0.9195
  192SLPC   O1422204   5.079   1.185   6.524 -0.1411 -0.1924 -0.4291
  192SLPC   O1222205   4.865   1.100   6.594  0.3321 -1.0450  0.0517
  192SLPC   O1122206   5.079   0.970   6.635 -0.1213 -0.5098  0.0582
  192SLPC    C122207   5.075   0.987   6.775 -0.2278 -0.0549 -1.1237
  192SLPC    HA22208   4.990   1.054   6.799 -0.3041 -0.9347  1.2839
  192SLPC    HB22209   5.061   0.887   6.822 -0.8995  0.9554  0.8883
  192SLPC    C222210   5.212   1.036   6.848 -0.2939 -0.4429 -0.7425
  192SLPC    HS22211   5.293   1.047   6.772  1.1288 -0.2296  0.7806
  192SLPC   O2122212   5.240   0.942   6.953  0.1947  0.0782  0.2790
  192SLPC   C2122213   5.365   0.915   6.981 -0.2006 -0.0756  0.8183
  192SLPC   O2222214   5.461   0.941   6.909 -0.4647  0.6297  1.0922
  192SLPC   C2222215   5.365   0.835   7.109  0.3024 -0.0354  0.3392
  192SLPC   H2R22216   5.262   0.836   7.149 -0.8090 -1.1573 -2.3879
  192SLPC   H2S22217   5.399   0.733   7.081  2.0294  0.6436 -0.1220
  192SLPC    C322218   5.202   1.185   6.912  0.1911 -0.4434 -0.7510
  192SLPC    HX22219   5.115   1.169   6.979  0.4591  0.5508 -0.1610
  192SLPC    HY22220   5.179   1.256   6.830  0.4979 -0.1753 -0.6023
  192SLPC   O3122221   5.315   1.225   6.995  0.4389  0.3191 -0.0484
  192SLPC   C3122222   5.417   1.284   6.942  0.3686  0.6371  0.5206
  192SLPC   O3222223   5.425   1.329   6.827  0.1663  0.7066 -0.0204
  192SLPC   C3222224   5.511   1.315   7.051 -0.7022  0.3278 -0.2872
  192SLPC   H2X22225   5.463   1.283   7.146 -0.2952  1.3309  0.2715
  192SLPC   H2Y22226   5.528   1.425   7.051  1.6596  0.0830  3.4073
  192SLPC   C2322227   5.466   0.890   7.212 -0.7351 -0.5345 -0.4013
  192SLPC   H3R22228   5.470   1.000   7.228  1.6258 -0.5825 -0.4075
  192SLPC   H3S22229   5.564   0.859   7.170 -0.7348  1.9141 -2.2549
  192SLPC   C2422230   5.446   0.831   7.348 -0.3773 -0.5656  0.6903
  192SLPC   H4R22231   5.441   0.720   7.341  1.0255 -0.5785 -0.2874
  192SLPC   H4S22232   5.347   0.869   7.381 -0.2761  0.0319  0.3253
  192SLPC   C2522233   5.545   0.880   7.454 -0.1105  0.0484  0.3403
  192SLPC   H5R22234   5.571   0.986   7.433 -3.1135  0.5264 -1.2846
  192SLPC   H5S22235   5.641   0.826   7.444  0.9777  1.7500  1.3071
  192SLPC   C2622236   5.489   0.898   7.598  0.0985  0.0153  0.2350
  192SLPC   H6R22237   5.398   0.962   7.596 -0.5575 -0.9147 -3.1250
  192SLPC   H6S22238   5.566   0.947   7.661 -0.5749  0.9113  0.3886
  192SLPC   C2722239   5.444   0.769   7.661 -0.7440 -0.2942 -0.2006
  192SLPC   H7R22240   5.432   0.790   7.769 -0.4631 -2.3401  0.2617
  192SLPC   H7S22241   5.529   0.697   7.658 -1.5812 -1.2301 -3.0288
  192SLPC   C2822242   5.303   0.713   7.604 -0.3239 -0.0953 -0.0279
  192SLPC   H8R22243   5.303   0.705   7.493  0.5955  0.7445 -0.0843
  192SLPC   H8S22244   5.227   0.791   7.627 -0.4014 -0.0568 -0.4203
  192SLPC   C2922245   5.263   0.580   7.667  0.4317 -0.5253  0.2837
  192SLPC   H9R22246   5.299   0.488   7.619  1.2933 -0.9090  1.6508
  192SLPC  C21022247   5.185   0.568   7.778  0.5475 -0.2444  0.3178
  192SLPC  H10R22248   5.149   0.467   7.801 -0.2953 -0.2380 -0.8979
  192SLPC  C21122249   5.119   0.679   7.853 -0.1051 -0.4744 -0.0196
  192SLPC  H11R22250   5.159   0.779   7.826 -3.9001  0.3300 -2.9452
  192SLPC  H11S22251   5.155   0.665   7.957  1.3015  1.1937 -0.2527
  192SLPC  C21222252   4.965   0.671   7.852  0.7512  0.1577  0.8270
  192SLPC  H12R22253   4.932   0.635   7.753  1.5380  0.2037  0.5445
  192SLPC  C21322254   4.893   0.730   7.944  0.3718  0.6103 -1.0123
  192SLPC  H13R22255   4.786   0.729   7.919  0.4756 -0.9784 -1.4649
  192SLPC  C21422256   4.933   0.803   8.066 -0.6596 -0.1017 -0.6706
  192SLPC  H14R22257   4.876   0.898   8.069 -0.2102  0.1254  1.8712
  192SLPC  H14S22258   5.041   0.826   8.066 -0.3801 -1.3246 -1.8856
  192SLPC  C21522259   4.897   0.728   8.199  0.0197  0.0296 -0.8228
  192SLPC  H15R22260   4.950   0.632   8.211  2.4338  1.0822 -2.6380
  192SLPC  H15S22261   4.792   0.692   8.204 -1.0303  3.2783  3.2779
  192SLPC  C21622262   4.940   0.818   8.318 -0.3045  0.0466 -0.2645
  192SLPC  H16R22263   4.888   0.916   8.316  1.9524  1.2322 -2.3429
  192SLPC  H16S22264   5.048   0.844   8.314 -0.3613  0.3014 -0.1769
  192SLPC  C21722265   4.922   0.748   8.450 -0.2019  0.5454  0.4826
  192SLPC  H17R22266   4.822   0.700   8.448  0.0455  0.0481  0.1059
  192SLPC  H17S22267   5.003   0.674   8.469 -0.7796 -0.4445 -0.8149
  192SLPC  C21822268   4.914   0.854   8.568  0.5167 -0.1854 -0.8452
  192SLPC  H18R22269   4.998   0.927   8.562 -1.2118  1.8929 -0.1798
  192SLPC  H18S22270   4.927   0.802   8.665  0.5679  2.5759  0.6692
  192SLPC  H18T22271   4.823   0.917   8.564  0.4451 -0.1458  1.2574
  192SLPC   C3322272   5.650   1.241   7.024 -0.4213 -0.1266 -0.4130
  192SLPC   H3X22273   5.701   1.279   6.933  0.6335 -1.3191 -0.3357
  192SLPC   H3Y22274   5.634   1.133   7.004  2.0794 -0.1991 -2.2924
  192SLPC   C3422275   5.749   1.267   7.132 -0.3678 -0.6829  0.7703
  192SLPC   H4X22276   5.758   1.377   7.125 -0.3984 -0.7040  0.4160
  192SLPC   H4Y22277   5.852   1.229   7.113  0.7415  2.6229 -0.2399
  192SLPC   C3522278   5.698   1.253   7.275  0.7125  0.0415  0.6522
  192SLPC   H5X22279   5.635   1.162   7.276 -0.4231  0.7309 -2.5722
  192SLPC   H5Y22280   5.636   1.342   7.299  0.2881  0.0907 -0.5843
  192SLPC   C3622281   5.813   1.257   7.378 -0.6167  0.3405  0.4618
  192SLPC   H6X22282   5.866   1.355   7.371  1.2423 -0.7225 -0.9237
  192SLPC   H6Y22283   5.882   1.175   7.348 -1.4432 -0.8841  1.8946
  192SLPC   C3722284   5.765   1.228   7.515  1.3235  0.6525  0.3608
  192SLPC   H7X22285   5.700   1.139   7.509  0.9546  0.8480  1.3857
  192SLPC   H7Y22286   5.710   1.317   7.552  1.2577  0.6205  0.3398
  192SLPC   C3822287   5.876   1.209   7.618  1.0042 -0.9049  1.1701
  192SLPC   H8X22288   5.893   1.308   7.666  1.8421  0.4802 -1.8337
  192SLPC   H8Y22289   5.966   1.202   7.553 -0.0781  3.2098 -0.9471
  192SLPC   C3922290   5.858   1.094   7.719 -0.1000  0.3992 -0.1159
  192SLPC   H9X22291   5.882   0.995   7.673  1.6248  0.9492 -0.4420
  192SLPC   H9Y22292   5.754   1.087   7.757  0.4790 -1.9691  1.1778
  192SLPC  C31022293   5.943   1.099   7.845 -0.7345 -0.1292 -0.3994
  192SLPC  H10X22294   5.903   1.172   7.919  2.1760  1.1115 -0.0151
  192SLPC  H10Y22295   6.053   1.100   7.830 -0.5060  0.7190  1.1857
  192SLPC  C31122296   5.923   0.976   7.933 -0.2209  0.2086  0.1678
  192SLPC  H11X22297   6.014   0.954   7.994 -1.1210  1.6838  2.1049
  192SLPC  H11Y22298   5.915   0.887   7.867 -2.6517 -1.6208  2.8279
  192SLPC  C31222299   5.799   0.975   8.015  0.1025 -0.1138  0.3298
  192SLPC  H12X22300   5.715   1.019   7.956 -0.7917 -1.5516  0.5113
  192SLPC  H12Y22301   5.809   1.054   8.093  1.2294 -0.0608  0.1337
  192SLPC  C31322302   5.772   0.831   8.070 -0.4267  0.7696 -0.5306
  192SLPC  H13X22303   5.869   0.803   8.116 -1.1890  0.0794  0.6767
  192SLPC  H13Y22304   5.746   0.770   7.980 -1.3173 -1.1696  0.9847
  192SLPC  C31422305   5.668   0.827   8.182  1.4161  0.1935 -0.7229
  192SLPC  H14X22306   5.697   0.908   8.253 -3.0784  0.9316  0.4318
  192SLPC  H14Y22307   5.669   0.733   8.241 -1.1361 -0.1295 -1.1713
  192SLPC  C31522308   5.528   0.857   8.129 -0.3813 -0.0150 -0.4034
  192SLPC  H15X22309   5.531   0.935   8.050  0.0755  0.8306  0.4314
  192SLPC  H15Y22310   5.464   0.899   8.210 -0.7300 -1.0920 -0.1213
  192SLPC  C31622311   5.455   0.740   8.069  0.0511 -0.1998 -0.5631
  192SLPC  H16X22312   5.500   0.701   7.975  2.5048 -1.5019  1.0964
  192SLPC  H16Y22313   5.354   0.768   8.031  0.4719  2.8902  0.4680
  192SLPC  C31722314   5.444   0.621   8.161  0.0353  0.5609  0.2443
  192SLPC  H17X22315   5.405   0.663   8.257  1.4943  0.9258  0.6980
  192SLPC  H17Y22316   5.541   0.578   8.193 -2.5434 -3.2588  3.3712
  192SLPC  C31822317   5.357   0.511   8.108  0.6648 -0.3303  1.0214
  192SLPC  H18X22318   5.254   0.553   8.108  1.0771  0.7142 -0.8996
  192SLPC  H18Y22319   5.376   0.411   8.152 -1.6715 -1.8613 -1.3183
  192SLPC  H18Z22320   5.391   0.499   8.003  4.5861  2.7109  1.7899
  193SOD    SOD22321   0.837   0.181  16.234 -0.3683  0.2381  0.0210
  194SOD    SOD22322   1.438   2.829   4.714 -0.1878 -0.1821 -0.1717
  195SOD    SOD22323   2.050   5.299  10.737 -0.0022  0.0176  0.0200
  196SOD    SOD22324   1.814   5.103   1.420 -0.0369  0.1743  0.1852
  197SOD    SOD22325   1.808   5.105   0.786  0.3179  0.4513 -0.0827
  198SOD    SOD22326   5.828   0.219  12.082 -0.2001 -0.2273  0.1090
  199SOD    SOD22327   1.992   0.202   1.858  0.0681 -0.5371 -0.1239
  200SOD    SOD22328   5.878   1.997  12.768  0.1864 -0.1324  0.2627
  201SOD    SOD22329   1.101   2.118   1.701  0.2178 -0.4685  0.0089
  202SOD    SOD22330   5.411   4.544  11.514 -0.1408  0.0178 -0.2870
  203SOD    SOD22331   3.738   4.723   5.642  0.2598  0.2302  0.1669
  204SOD    SOD22332   3.138   0.618   0.559  0.1990  0.4572 -0.1882
  205SOD    SOD22333   3.059   1.402   5.496 -0.2673  0.0907 -0.1394
  206SOD    SOD22334   4.977   2.834  14.840  0.4042 -0.4449 -0.5880
  207SOD    SOD22335   5.852   3.561  13.731  0.4510 -0.4610 -0.1102
  208SOD    SOD22336   4.845   0.654   1.904 -0.1360 -0.3381  0.5161
  209SOD    SOD22337   3.711   3.192  12.063 -0.1650 -0.0918  0.2141
  210SOD    SOD22338   2.411   0.678  13.567 -0.5197  0.2301 -0.4067
  211SOD    SOD22339   2.308   6.108  13.764  0.1498  0.2717  0.0702
  212SOD    SOD22340   5.134   0.476  13.232 -0.2902 -0.4743 -0.3208
  213SOD    SOD22341   5.892   1.538  11.362  0.1473 -0.3557 -0.0647
  214SOD    SOD22342   2.227   5.848   2.595  0.1463 -0.2572  0.0516
  215SOD    SOD22343   6.557   0.356  12.408  0.0916 -0.1845  0.1850
  216SOD    SOD22344   2.367   0.265  12.465 -0.1746 -0.0506 -0.6786
  217SOD    SOD22345   3.891   0.428   5.402 -0.4866 -0.5043  0.4869
  218SOD    SOD22346   1.636   6.674   4.278 -0.0050 -0.1415  0.2186
  219SOD    SOD22347   0.646   1.542  12.574 -0.2666 -0.2795  0.2615
  220SOD    SOD22348   1.218   4.079   6.751 -0.4309 -0.0709  0.0843
  221SOD    SOD22349   0.218   1.606  14.811 -0.2542 -0.0211 -0.0693
  222SOD    SOD22350   3.064   2.015   3.451 -0.4964  0.0242  0.1387
  223SOD    SOD22351   3.872   4.043   3.759  0.4578 -0.0620  0.2557
  224SOD    SOD22352   0.965   4.042   6.202  0.0753 -0.0244 -0.3560
  225SOD    SOD22353   6.634   0.024   3.720 -0.1535 -0.0103  0.1332
  226SOD    SOD22354   0.434   2.386  11.097  0.2562 -0.0071  0.1458
  227SOD    SOD22355   5.499   5.653  12.831 -0.1942 -0.0393  0.2974
  228SOD    SOD22356   6.073   2.212  15.530 -0.0634 -0.3018 -1.0723
  229SOD    SOD22357   6.711   5.932   2.104  0.1859 -0.1924  0.0650
  230SOD    SOD22358   2.942   1.374  10.664  0.0662  0.1214 -0.1176
  231SOD    SOD22359   5.292   5.556  11.251 -0.2178 -0.2006  0.3577
  232SOD    SOD22360   0.630   4.013   5.174 -0.1175 -0.7243 -0.3435
  233SOD    SOD22361   0.014   4.788   0.200  0.4113  0.0589 -0.4430
  234SOD    SOD22362   6.256   5.796  14.448 -0.3425 -0.0323 -0.0714
  235SOD    SOD22363   6.680   4.660  12.333 -0.0055  0.6329 -0.2007
  236SOD    SOD22364   3.101   1.310   2.978  0.3381  0.0020  0.3525
  237SOD    SOD22365   3.336   5.099   0.606  0.4410  0.1573  0.0708
  238SOD    SOD22366   1.809   3.337  13.284  0.3693  0.0006  1.0037
  239SOD    SOD22367   0.488   4.841  15.930  0.4292 -0.2486 -0.1373
  240SOD    SOD22368   1.336   2.858   0.837 -0.1732 -0.3641 -0.5119
  241SOD    SOD22369   0.585   6.577   5.921  0.0719  0.0546  0.1688
  242SOD    SOD22370   3.915   0.947   3.816 -0.5228  0.1711  0.2345
  243SOD    SOD22371   5.308   6.546   1.192  0.0337  0.0460 -0.0089
  244SOD    SOD22372   4.258   1.132  12.821 -0.6481  0.2243 -0.6511
  245SOD    SOD22373   5.843   3.245   6.574  0.7810  0.2388  0.4420
  246SOD    SOD22374   2.751   3.742   2.811 -0.1612  0.4118 -0.4567
  247SOD    SOD22375   2.315   2.975  16.616  0.0676 -0.5201  0.0661
  248SOD    SOD22376   2.749   0.282   1.623 -0.4617  0.5302  0.0383
  249SOD    SOD22377   5.399   5.348   3.086  0.4387  0.3294 -0.4883
  250SOD    SOD22378   4.857   0.307  15.077 -0.0530 -0.0781 -0.0221
  251SOD    SOD22379   2.644   0.314   3.190 -0.3018  0.3468  0.2115
  252SOD    SOD22380   3.231   6.624  10.579  0.4314  0.4573 -0.0828
  253SOD    SOD22381   0.054   6.611   0.936  0.1815  0.5240  0.4811
  254SOD    SOD22382   5.507   5.684   1.568  0.5950 -0.3779 -0.3251
  255SOD    SOD22383   4.657   2.034   3.609 -0.4023 -0.2898  0.1231
  256SOD    SOD22384   1.569   6.178   5.894 -0.3592 -0.9461  0.0913
  257SOD    SOD22385   2.186   1.521  12.606 -0.3040 -0.0094  0.0406
  258SOD    SOD22386   4.818   6.189  13.397  0.0433  0.0537 -0.1502
  259SOD    SOD22387   1.145   6.300   4.157 -0.3540  0.5034 -0.3638
  260SOD    SOD22388   2.686   3.910  15.063 -0.0709 -0.1893 -0.2889
  261SOD    SOD22389   2.120   2.539   1.097 -0.0049 -0.2300 -0.4317
  262SOD    SOD22390   1.939   1.878   2.836  0.1756  0.0423  0.0185
  263SOD    SOD22391   0.926   6.539   6.722 -0.5088 -0.4501  0.0128
  264SOD    SOD22392   0.505   2.774   4.803  0.0039  0.1338 -0.0610
  265SOD    SOD22393   2.065   5.143   4.257  0.4189 -0.4221 -0.4985
  266CLA    CLA22394   0.905   2.441  15.107 -0.1242 -0.2341  0.2144
  267CLA    CLA22395   1.533   0.860  13.297  0.6599  0.1054 -0.2054
  268CLA    CLA22396   3.232   6.196   4.313 -0.3956 -0.3574 -0.0376
  269CLA    CLA22397   0.681   5.058  13.226 -0.3727  0.0904  0.0200
  270CLA    CLA22398   0.655   6.445   5.513 -0.0492 -0.1085 -0.2582
  271CLA    CLA22399   4.735   0.529  13.383  0.0066  0.1359  0.1119
  272CLA    CLA22400   2.707   2.858   3.792 -0.1177 -0.0394 -0.0281
  273CLA    CLA22401   6.474   2.767   0.102  0.0662 -0.1037  0.0358
  274CLA    CLA22402   3.259   6.601   5.056  0.2975 -0.2654 -0.1970
  275CLA    CLA22403   1.634   3.883  15.105 -0.0172 -0.1777  0.3640
  276CLA    CLA22404   4.988   4.374  11.730  0.1258 -0.0321 -0.2008
  277CLA    CLA22405   3.722   6.650  12.171  0.1740 -0.1557  0.3729
  278CLA    CLA22406   5.971   1.050  13.713 -0.1788 -0.5720  0.0066
  279CLA    CLA22407   0.926   3.664   5.032  0.2529 -0.1979 -0.3007
  280CLA    CLA22408   2.040   1.999  16.681  0.0371  0.1251 -0.1641
  281CLA    CLA22409   2.541   1.191  12.794  0.2763 -0.1013  0.1916
  282CLA    CLA22410   4.365   2.956   2.051  0.6575 -0.1441  0.4177
  283CLA    CLA22411   4.306   2.758  12.482 -0.1677 -0.1207 -0.0945
  284CLA    CLA22412   5.318   6.099  15.501  0.0057 -0.5608 -0.4433
  285CLA    CLA22413   1.777   1.601   1.183  0.0075  0.0110  0.4880
  286CLA    CLA22414   6.777   1.953   1.445  0.2335  0.0642 -0.0258
  287CLA    CLA22415   5.874   5.009   1.405 -0.0649 -0.4818  0.1838
  288CLA    CLA22416   0.097   0.264  12.883  0.0919  0.0382  0.3385
  289CLA    CLA22417   2.744   2.861   2.849 -0.0076  0.4366  0.2175
  290CLA    CLA22418   4.031   6.471  16.725 -0.5278  0.2765 -0.2255
  291CLA    CLA22419   2.089   2.836   1.518  0.2571 -0.2426  0.1706
  292CLA    CLA22420   4.038   3.268   1.229 -0.3680 -0.2367 -0.0085
  293CLA    CLA22421   6.220   4.299   3.550 -0.2052  0.1103 -0.2240
  294CLA    CLA22422   2.790   0.805   1.351 -0.1124  0.0434  0.3737
  295CLA    CLA22423   1.089   1.094   3.109  0.4584  0.3180  0.5350
  296CLA    CLA22424   2.185   1.012   3.406  0.2852 -0.3216 -0.0277
  297CLA    CLA22425   2.704   5.759  14.167  0.0523  0.0271 -0.2326
  298CLA    CLA22426   4.724   6.791   4.798  0.0779  0.7715 -0.5746
  299CLA    CLA22427   1.894   6.417   3.796  0.2899  0.0869 -0.6467
  300CLA    CLA22428   6.411   3.998   2.659 -0.0243 -0.3723 -0.2134
  301CLA    CLA22429   0.225   6.023   1.501  0.0278 -0.0793  0.2136
  302CLA    CLA22430   5.394   6.815   3.140  0.2582  0.0836  0.0577
  303CLA    CLA22431   5.843   3.823  13.175  0.2674  0.1849 -0.3602
  304CLA    CLA22432   0.169   6.570   2.506 -0.0355 -0.0831  0.1317
  305CLA    CLA22433   5.602   6.549   1.918  0.1488 -0.1580  0.6657
  306CLA    CLA22434   5.287   2.414   2.514 -0.2148 -0.0897 -0.2555
  307CLA    CLA22435   4.961   1.766   3.133 -0.4914  0.4747 -0.2858
  308CLA    CLA22436   5.385   4.278  14.346 -0.2803 -0.1450  0.0375
  309CLA    CLA22437   2.993   3.502  12.340  0.2090 -0.1498 -0.4716
  310CLA    CLA22438   3.237   4.522   3.505 -0.2606 -0.0486 -0.1294
  311CLA    CLA22439   4.095   1.703  15.265  0.0733  0.1659  0.3620
  312CLA    CLA22440   3.608   0.436   1.205  0.5578  0.2341  0.0140
  313CLA    CLA22441   3.785   5.857  13.090  0.1626 -0.4528  0.2778
  314CLA    CLA22442   2.421   4.369  16.702  0.0917 -0.0155  0.0488
  315CLA    CLA22443   4.921   5.440   3.897 -0.3676 -0.2461  0.5988
  316CLA    CLA22444   5.655   0.897   0.466 -0.1025 -0.1315  0.4321
  317CLA    CLA22445   0.626   3.068  15.013  0.1075 -0.1476  0.1456
  318CLA    CLA22446   4.740   6.394  13.537  0.3202 -0.1047  0.0873
  319TIP3   OH222447   3.650   4.540  13.428  0.5856 -0.2260  0.3794
  319TIP3    H122448   3.577   4.524  13.488 -0.4578 -1.3914 -1.1745
  319TIP3    H222449   3.643   4.633  13.406 -0.7592 -0.4483 -0.1825
  320TIP3   OH222450   2.574   5.935   4.941  0.5723  0.1127 -0.3935
  320TIP3    H122451   2.533   5.900   5.020 -1.7965  1.1552 -1.1215
  320TIP3    H222452   2.604   5.857   4.893  1.1885 -0.5631  1.0780
  321TIP3   OH222453   1.082   5.608   3.285 -0.1803 -0.7040 -0.0389
  321TIP3    H122454   1.062   5.700   3.269  0.6970 -0.6481 -0.8663
  321TIP3    H222455   1.134   5.608   3.365  1.5309 -0.2558 -1.1069
  322TIP3   OH222456   3.695   0.808   3.221  0.2417 -0.9403 -0.7472
  322TIP3    H122457   3.700   0.728   3.168 -0.6608 -1.2875 -0.3186
  322TIP3    H222458   3.700   0.880   3.159 -1.5687 -1.3424 -1.3849
  323TIP3   OH222459   2.158   5.328  10.536 -0.1481  0.1935  0.0672
  323TIP3    H122460   2.229   5.265  10.527 -0.1713  0.2784 -0.7161
  323TIP3    H222461   2.192   5.410  10.500 -0.8878  0.0391 -1.0303
  324TIP3   OH222462   0.628   3.652   1.579  0.2015 -0.2703  0.3420
  324TIP3    H122463   0.583   3.704   1.512 -0.2681  0.4393  1.2098
  324TIP3    H222464   0.609   3.696   1.661  2.0482 -0.2655  0.7892
  325TIP3   OH222465   0.225   3.290  14.434  0.1690 -0.5501 -0.4958
  325TIP3    H122466   0.181   3.372  14.412  3.2574  1.1764 -0.5453
  325TIP3    H222467   0.318   3.310  14.428  1.0875 -2.8241  3.9656
  326TIP3   OH222468   3.257   5.086  16.190 -0.0316  0.3708 -0.3139
  326TIP3    H122469   3.287   5.089  16.099  2.3255  0.5942  0.4128
  326TIP3    H222470   3.334   5.055  16.238 -1.7477 -1.3427  1.4102
  327TIP3   OH222471   6.221   1.448   4.801  0.3397 -0.0650 -0.4612
  327TIP3    H122472   6.255   1.460   4.890  0.4998  1.3094 -0.6885
  327TIP3    H222473   6.137   1.404   4.812 -0.8954  2.4679  0.5673
  328TIP3   OH222474   5.173   6.201   4.753 -0.6319 -0.0501 -0.9662
  328TIP3    H122475   5.219   6.284   4.761  0.1989 -0.4571 -1.4349
  328TIP3    H222476   5.236   6.143   4.710 -0.7813 -1.2413  0.3788
  329TIP3   OH222477   3.461   6.633   1.909  0.0672  0.5545  0.5545
  329TIP3    H122478   3.378   6.664   1.873 -0.1282 -0.6745 -0.0721
  329TIP3    H222479   3.469   6.678   1.993 -0.4335  1.9371 -0.1350
  330TIP3   OH222480   3.593   2.104   2.078  0.3030 -0.0603  0.0300
  330TIP3    H122481   3.573   2.197   2.076 -1.1488 -0.3705 -1.2680
  330TIP3    H222482   3.587   2.076   1.986  1.0255 -1.3757  0.3614
  331TIP3   OH222483   3.081   6.429  17.143  0.2725  0.3511  0.0291
  331TIP3    H122484   3.073   6.516  17.181  2.2882  1.6808 -2.3846
  331TIP3    H222485   3.156   6.390  17.188  0.2975  0.4390  0.0634
  332TIP3   OH222486   3.592   6.480  13.324 -0.0005 -0.1815 -0.0188
  332TIP3    H122487   3.675   6.436  13.310 -0.5580 -0.3592 -3.0531
  332TIP3    H222488   3.526   6.410  13.318 -0.5458  0.3425 -0.2249
  333TIP3   OH222489   6.578   0.209   4.491  0.2518 -0.2245  0.5331
  333TIP3    H122490   6.482   0.199   4.492  0.2009  0.1177 -0.6682
  333TIP3    H222491   6.611   0.119   4.489 -0.0651 -0.3328 -0.0818
  334TIP3   OH222492   5.486   5.668   2.813  0.3358  0.3198 -0.0124
  334TIP3    H122493   5.508   5.761   2.821  0.9188  0.1268  0.7101
  334TIP3    H222494   5.562   5.630   2.769 -0.0363  0.2406 -0.5811
  335TIP3   OH222495   3.705   4.566  16.129  0.1088  0.1598 -0.5628
  335TIP3    H122496   3.687   4.642  16.074  2.4460 -0.2887 -2.0051
  335TIP3    H222497   3.645   4.499  16.097  0.2555  0.4291 -1.4273
  336TIP3   OH222498   5.735   5.045  14.597 -0.1619 -0.4290 -0.4719
  336TIP3    H122499   5.643   5.055  14.620  0.3037  0.6962  0.9621
  336TIP3    H222500   5.775   5.005  14.674  0.4596 -1.3536 -1.2700
  337TIP3   OH222501   3.643   2.781  12.286 -0.8913 -0.9646  0.9243
  337TIP3    H122502   3.650   2.692  12.321 -0.0544 -1.1338  0.3483
  337TIP3    H222503   3.733   2.813  12.284 -1.1222 -0.3260  0.5632
  338TIP3   OH222504   1.217   1.617  12.876  0.4849  0.6261  0.0275
  338TIP3    H122505   1.136   1.618  12.825  1.7967  1.3409 -2.1006
  338TIP3    H222506   1.235   1.524  12.891 -1.2943  0.5041  1.4656
  339TIP3   OH222507   3.862   1.096  14.612  0.2221 -0.1607  0.1861
  339TIP3    H122508   3.819   1.014  14.588  0.2674  0.0674 -0.6897
  339TIP3    H222509   3.801   1.164  14.584  0.1299  0.1095  1.0198
  340TIP3   OH222510   4.349   6.698  13.676  0.3888  0.3641  0.2958
  340TIP3    H122511   4.306   6.632  13.622  3.7892 -1.9923  0.3097
  340TIP3    H222512   4.392   6.756  13.614 -0.3771  0.9631  0.3321
  341TIP3   OH222513   2.290   3.243  14.117 -0.0637  0.2315 -0.1749
  341TIP3    H122514   2.337   3.206  14.192  1.3218  2.6355  0.2000
  341TIP3    H222515   2.345   3.224  14.042 -0.1762  0.0588 -0.2129
  342TIP3   OH222516   2.777   3.641  12.133 -0.5975  0.1464  0.0671
  342TIP3    H122517   2.699   3.648  12.189 -0.0189 -1.6820  1.1278
  342TIP3    H222518   2.839   3.589  12.184  0.6046 -0.0742 -1.5789
  343TIP3   OH222519   4.082   4.740  11.336 -0.3540 -0.2701  1.2486
  343TIP3    H122520   4.132   4.658  11.347  0.3347  0.0796  0.7453
  343TIP3    H222521   4.030   4.726  11.257 -0.1249 -0.1705  1.0778
  344TIP3   OH222522   5.004   4.013   4.222  0.0800 -0.2095 -0.2591
  344TIP3    H122523   5.059   4.024   4.300 -0.4419  1.2151 -0.0809
  344TIP3    H222524   5.049   4.062   4.153 -0.6690  0.4930 -0.2547
  345TIP3   OH222525   4.057   5.969  11.640 -0.0782 -0.8351 -0.4822
  345TIP3    H122526   4.135   6.016  11.613 -0.3431  0.5179  1.0041
  345TIP3    H222527   4.031   6.010  11.723 -3.4818  0.1044 -1.8975
  346TIP3   OH222528   6.253   6.177   4.747  0.3449 -0.2207 -0.3378
  346TIP3    H122529   6.233   6.255   4.695  0.2040 -0.2073 -0.2644
  346TIP3    H222530   6.339   6.149   4.717  0.1890 -0.3155 -0.7069
  347TIP3   OH222531   4.595   3.729   1.927  0.3372 -0.3664 -0.2297
  347TIP3    H122532   4.577   3.718   1.834 -0.0314  1.4194 -0.3808
  347TIP3    H222533   4.689   3.745   1.932  0.6427 -2.1052 -0.1302
  348TIP3   OH222534   0.223   1.005  15.242 -0.2570  0.8720  0.3896
  348TIP3    H122535   0.216   1.010  15.338  2.8492  0.0307  0.7191
  348TIP3    H222536   0.316   1.020  15.224 -0.5978 -0.0831 -2.4290
  349TIP3   OH222537   5.266   3.524   0.396 -0.1226 -0.1265  0.5660
  349TIP3    H122538   5.281   3.561   0.310 -0.9663  0.8253  0.8220
  349TIP3    H222539   5.321   3.446   0.399 -0.5476 -0.4870 -1.0465
  350TIP3   OH222540   1.524   3.437   0.995 -0.0560 -0.4182 -0.1580
  350TIP3    H122541   1.480   3.517   0.968 -0.0490 -0.1207  0.6831
  350TIP3    H222542   1.504   3.374   0.926  0.9055  0.6255 -1.4200
  351TIP3   OH222543   5.889   1.340  10.485  0.0881  0.0329 -0.0606
  351TIP3    H122544   5.800   1.335  10.449  0.3145  0.2549 -0.6589
  351TIP3    H222545   5.917   1.249  10.493 -0.7141 -0.0938  1.4506
  352TIP3   OH222546   5.917   6.742  10.523  0.0699 -0.1084  0.3203
  352TIP3    H122547   5.937   6.665  10.576 -1.3914 -0.9200 -0.2765
  352TIP3    H222548   5.929   6.712  10.433 -1.9798 -0.1030  0.0214
  353TIP3   OH222549   2.070   1.409   2.142  0.2575  0.0414  0.2351
  353TIP3    H122550   2.043   1.500   2.147  1.6603  0.4042  1.7064
  353TIP3    H222551   2.152   1.412   2.091  0.6161 -0.3116  0.7857
  354TIP3   OH222552   6.491   2.509  15.056 -0.3155 -0.4875 -0.4680
  354TIP3    H122553   6.410   2.554  15.032  0.4075  0.4741 -1.1409
  354TIP3    H222554   6.561   2.562  15.018  0.7105 -0.6395  1.1158
  355TIP3   OH222555   1.103   5.453  12.600 -0.0953  0.5311 -0.6266
  355TIP3    H122556   1.027   5.504  12.627 -1.1783 -1.0693 -0.6056
  355TIP3    H222557   1.073   5.362  12.600  1.6726 -0.0801 -1.1042
  356TIP3   OH222558   3.788   4.274   5.402  0.0342  0.5567 -0.0460
  356TIP3    H122559   3.715   4.213   5.396  1.1101 -0.7089 -0.5487
  356TIP3    H222560   3.770   4.326   5.480 -1.3734  0.2219 -0.1464
  357TIP3   OH222561   0.818   1.568   4.299 -0.1034  0.3843 -0.2120
  357TIP3    H122562   0.866   1.514   4.362 -1.9481 -0.8542  0.1896
  357TIP3    H222563   0.746   1.605   4.350 -0.0391  1.5529 -0.9734
  358TIP3   OH222564   1.686   0.678   4.473  0.7964  0.0482 -0.1088
  358TIP3    H122565   1.759   0.618   4.455  0.2054 -0.4649 -0.8370
  358TIP3    H222566   1.645   0.691   4.387  0.1837  0.5365  0.2573
  359TIP3   OH222567   5.152   5.039   3.692 -0.0878  0.4503  0.0215
  359TIP3    H122568   5.221   5.084   3.643 -1.0751  2.3739  0.3565
  359TIP3    H222569   5.073   5.090   3.674 -1.5944 -2.0993 -0.8881
  360TIP3   OH222570   6.611   5.322   5.756 -0.0020 -0.0900 -0.1203
  360TIP3    H122571   6.696   5.321   5.800  0.5163  3.0095 -0.9799
  360TIP3    H222572   6.629   5.286   5.669  0.0547 -1.1246  0.3137
  361TIP3   OH222573   3.640   0.520   0.701  0.0280 -0.1097 -0.4449
  361TIP3    H122574   3.592   0.596   0.736  0.1563 -0.1658 -0.1431
  361TIP3    H222575   3.687   0.485   0.777 -0.3542 -0.7390 -0.4897
  362TIP3   OH222576   6.801   5.608  11.498  0.0776 -0.1616  0.9688
  362TIP3    H122577   6.879   5.631  11.547  1.7293 -1.6918 -0.8389
  362TIP3    H222578   6.834   5.558  11.423 -2.3256  2.2963 -1.8252
  363TIP3   OH222579   5.146   0.671  17.076  0.5985 -0.3559 -0.3839
  363TIP3    H122580   5.187   0.611  17.138  1.0329  0.0426 -0.2776
  363TIP3    H222581   5.158   0.758  17.116  0.1785 -0.1766 -0.6419
  364TIP3   OH222582   2.337   3.639   1.534  0.7738  0.5938 -0.0072
  364TIP3    H122583   2.375   3.590   1.607 -0.3354 -1.1870 -0.5938
  364TIP3    H222584   2.409   3.691   1.500  2.3750 -1.8153 -0.3407
  365TIP3   OH222585   5.974   4.090  14.860  0.0445  0.2164  0.4662
  365TIP3    H122586   6.068   4.071  14.854 -0.2828 -1.8814  1.4381
  365TIP3    H222587   5.941   4.080  14.771 -0.0624 -3.8667  0.8621
  366TIP3   OH222588   2.170   3.889  14.139  0.1346  0.1334 -0.3888
  366TIP3    H122589   2.173   3.984  14.128  0.6738  0.1576 -0.0728
  366TIP3    H222590   2.186   3.854  14.052  0.3966  0.3336 -0.4208
  367TIP3   OH222591   0.852   0.056   5.610  0.3393  0.1066 -0.2029
  367TIP3    H122592   0.845  -0.001   5.534 -0.1184  0.5328 -0.4895
  367TIP3    H222593   0.894   0.135   5.577  0.4221  0.1711  0.0551
  368TIP3   OH222594   4.912   4.134   0.728  0.0838 -0.4902 -0.5948
  368TIP3    H122595   4.899   4.226   0.706  0.0576 -0.9039 -2.4144
  368TIP3    H222596   4.875   4.087   0.653 -2.0305 -2.0303  1.3650
  369TIP3   OH222597   2.308   4.712   2.587  0.7862  0.3442  0.0542
  369TIP3    H122598   2.277   4.747   2.503  0.3605 -0.3601 -0.0875
  369TIP3    H222599   2.275   4.775   2.652  1.5116  1.1386 -0.3402
  370TIP3   OH222600   2.560   1.509   5.720 -0.5864 -0.3583  0.1770
  370TIP3    H122601   2.577   1.434   5.777 -0.2282 -0.6046 -0.2514
  370TIP3    H222602   2.630   1.506   5.654  2.3889  3.1587  2.9639
  371TIP3   OH222603   0.150   4.332  14.238 -0.0328  0.5855 -0.1743
  371TIP3    H122604   0.113   4.314  14.324  1.5831 -0.0846  0.4000
  371TIP3    H222605   0.074   4.339  14.180 -1.0341 -1.3331  0.8513
  372TIP3   OH222606   0.170   5.491  12.657  0.3648  0.4196 -0.3259
  372TIP3    H122607   0.162   5.509  12.563  0.5399 -0.0526 -0.4317
  372TIP3    H222608   0.150   5.398  12.665  0.4650  0.4350  0.0914
  373TIP3   OH222609   6.676   2.415  12.961  0.0330 -0.1885  0.3574
  373TIP3    H122610   6.718   2.460  12.888 -2.9661  0.8051 -0.8695
  373TIP3    H222611   6.717   2.329  12.964  3.0413  1.1909  0.1216
  374TIP3   OH222612   5.846   4.282  10.518  0.8849  0.8131  0.2932
  374TIP3    H122613   5.927   4.323  10.546  1.0488  0.9432 -0.3726
  374TIP3    H222614   5.801   4.349  10.467 -0.2098  1.1594  1.6840
  375TIP3   OH222615   0.775   1.510   2.923  0.1926 -0.0156  0.1395
  375TIP3    H122616   0.790   1.595   2.965  0.3715  0.7495 -1.4685
  375TIP3    H222617   0.846   1.455   2.957 -0.2770  0.2719  1.6591
  376TIP3   OH222618   0.710   3.203   1.473 -0.0928  0.5174 -0.1178
  376TIP3    H122619   0.700   3.275   1.411 -1.5873  1.4077  1.1389
  376TIP3    H222620   0.626   3.198   1.518  0.2709 -1.4868  0.3802
  377TIP3   OH222621   6.270   0.493  16.148  0.2302  0.3454  0.0490
  377TIP3    H122622   6.212   0.557  16.188 -0.0002  0.6854 -0.8183
  377TIP3    H222623   6.214   0.416  16.135  1.1901 -1.0665  3.6594
  378TIP3   OH222624   4.107   2.322  13.151 -0.0475 -0.0892 -0.0127
  378TIP3    H122625   4.125   2.370  13.070 -0.3056  0.3835  0.2047
  378TIP3    H222626   4.187   2.332  13.202 -0.5441  1.1576  0.5397
  379TIP3   OH222627   1.507   5.437   4.349  0.1001 -0.1549 -0.0281
  379TIP3    H122628   1.426   5.411   4.394  0.4309 -1.2342 -0.0291
  379TIP3    H222629   1.571   5.449   4.419  0.5514 -1.5979 -0.1800
  380TIP3   OH222630   0.336   4.191  14.104  0.1661  0.1088  0.1905
  380TIP3    H122631   0.280   4.232  14.170  0.2575  2.2532 -0.9795
  380TIP3    H222632   0.287   4.201  14.022  0.9602 -0.6515 -0.3909
  381TIP3   OH222633   4.668   4.764  11.687 -0.3459 -0.0755 -0.1888
  381TIP3    H122634   4.670   4.712  11.767  0.6266 -0.4341 -0.4429
  381TIP3    H222635   4.730   4.835  11.703 -1.5359  0.9129  0.0901
  382TIP3   OH222636   2.444   6.631  13.358  0.2800  0.2325 -0.1168
  382TIP3    H122637   2.462   6.561  13.295 -0.1091 -0.5267  0.6059
  382TIP3    H222638   2.529   6.672  13.373  0.7810 -0.9802  0.5001
  383TIP3   OH222639   3.097   5.472   5.117  0.2108  0.3001  0.4997
  383TIP3    H122640   3.121   5.484   5.209  1.8277 -1.5095  0.3413
  383TIP3    H222641   3.002   5.458   5.119  0.0599  1.3274  1.7741
  384TIP3   OH222642   6.445   5.694   4.984 -0.2548  0.0784 -0.2031
  384TIP3    H122643   6.466   5.658   5.070  2.1981  1.0583 -0.3486
  384TIP3    H222644   6.353   5.719   4.990  0.0640  0.7452  2.3745
  385TIP3   OH222645   5.865   2.061  15.132 -0.1109  0.2982  0.8223
  385TIP3    H122646   5.935   2.071  15.068  1.6675  0.5158  2.7273
  385TIP3    H222647   5.790   2.104  15.093  1.2503  1.4088 -0.6370
  386TIP3   OH222648   2.899   4.156  16.768  0.0094 -0.0313  0.5679
  386TIP3    H122649   2.809   4.151  16.801  0.1809 -1.6192  0.8320
  386TIP3    H222650   2.939   4.073  16.795  1.1607  0.1056 -0.6761
  387TIP3   OH222651   2.750   5.987   1.211  0.1335 -0.2136 -0.1798
  387TIP3    H122652   2.688   6.044   1.256  1.5954  0.9569  0.4144
  387TIP3    H222653   2.711   5.900   1.216 -1.7920  0.6164 -0.4599
  388TIP3   OH222654   0.584   4.495   5.852  0.1629 -0.6673 -0.0233
  388TIP3    H122655   0.567   4.418   5.905  1.2867 -0.8981  0.0113
  388TIP3    H222656   0.525   4.486   5.777  1.8795 -2.7398 -1.1876
  389TIP3   OH222657   6.184   3.054   5.311 -0.2704 -0.0132 -0.0243
  389TIP3    H122658   6.146   2.971   5.283 -0.9910  0.9884 -2.0918
  389TIP3    H222659   6.254   3.071   5.248  0.3561  0.5882  0.8266
  390TIP3   OH222660   5.533   5.469   0.052  0.6706  0.3004 -0.1559
  390TIP3    H122661   5.443   5.502   0.049  0.6356  0.1673 -0.5805
  390TIP3    H222662   5.569   5.489  -0.035  0.1869 -2.1423 -0.9407
  391TIP3   OH222663   1.641   4.229   4.605  0.2798  0.5362 -0.4189
  391TIP3    H122664   1.603   4.313   4.580 -0.1855  0.5044  0.1589
  391TIP3    H222665   1.711   4.252   4.667 -0.2546  0.4597  0.2124
  392TIP3   OH222666   3.568   6.555   2.395 -0.0172 -0.3578 -0.3255
  392TIP3    H122667   3.647   6.550   2.342 -1.5093 -0.4967 -2.5936
  392TIP3    H222668   3.585   6.498   2.469  1.7622 -0.8761 -1.1204
  393TIP3   OH222669   5.420   0.022  12.230  0.6319 -0.4598  0.4399
  393TIP3    H122670   5.360   0.096  12.236  0.6267 -0.3547 -0.8123
  393TIP3    H222671   5.408  -0.012  12.141  2.5614 -0.3249  0.1116
  394TIP3   OH222672   6.555   2.370  13.784 -0.5205 -0.3088 -0.0259
  394TIP3    H122673   6.473   2.322  13.786 -2.5252  2.9162 -0.9714
  394TIP3    H222674   6.541   2.444  13.843  1.9548 -0.0442  0.3062
  395TIP3   OH222675   4.917   1.331   1.763 -0.3243  0.6084 -0.0567
  395TIP3    H122676   4.947   1.244   1.792  0.5455  0.6642 -0.7743
  395TIP3    H222677   4.976   1.392   1.807 -2.5081  0.9903  2.4417
  396TIP3   OH222678   6.556   2.382  15.829 -0.4644 -0.4190 -0.5291
  396TIP3    H122679   6.575   2.433  15.908  0.4790 -1.3516 -0.1448
  396TIP3    H222680   6.574   2.292  15.853  0.5110 -0.6448 -2.0158
  397TIP3   OH222681   5.554   3.548  16.105 -0.2859  0.2046  0.4594
  397TIP3    H122682   5.533   3.484  16.173 -0.4264 -0.7179 -0.4341
  397TIP3    H222683   5.477   3.606  16.102 -1.4169 -1.3274 -0.7046
  398TIP3   OH222684   0.986   5.841   5.534  0.5476  0.2760 -0.1743
  398TIP3    H122685   1.069   5.889   5.536 -0.5172  2.2886 -1.7308
  398TIP3    H222686   1.001   5.765   5.589  2.3375  2.4163  2.4451
  399TIP3   OH222687   2.870   0.538  15.176  0.0396 -0.1459 -0.0433
  399TIP3    H122688   2.837   0.622  15.145  3.6738  1.3141 -0.2959
  399TIP3    H222689   2.845   0.475  15.109 -1.0359  1.0910 -0.8221
  400TIP3   OH222690   2.946   2.697  13.889 -0.0528 -0.1186 -0.1749
  400TIP3    H122691   2.900   2.685  13.806 -1.5984 -1.5553  0.8480
  400TIP3    H222692   3.037   2.674  13.870 -0.1034  0.9315 -1.7910
  401TIP3   OH222693   1.662   0.862  16.815  0.2325  0.6726  0.7361
  401TIP3    H122694   1.571   0.855  16.787  1.3254 -0.8310 -2.7859
  401TIP3    H222695   1.691   0.948  16.784  0.3436  0.6693  0.8242
  402TIP3   OH222696   1.780   1.397   3.761  0.4428 -0.4483 -0.1199
  402TIP3    H122697   1.842   1.378   3.691 -0.0140  0.9492 -0.9470
  402TIP3    H222698   1.694   1.395   3.718  0.3086  2.5158 -0.1117
  403TIP3   OH222699   4.611   4.484   2.777 -0.3485 -0.0886 -0.2447
  403TIP3    H122700   4.593   4.437   2.695  0.7566 -1.5872  0.3627
  403TIP3    H222701   4.704   4.504   2.773 -0.1159 -0.8719  1.0127
  404TIP3   OH222702   0.965   3.786   2.077 -0.8802  0.8307  0.0509
  404TIP3    H122703   1.043   3.742   2.043 -0.1562  1.2475  1.1523
  404TIP3    H222704   0.955   3.864   2.022 -1.0513  0.3185 -0.6608
  405TIP3   OH222705   6.363   3.645  12.024  0.1363  0.1525 -0.4351
  405TIP3    H122706   6.395   3.581  11.960  0.4731 -0.4375  0.3275
  405TIP3    H222707   6.268   3.643  12.015  0.2483  2.2799 -3.0839
  406TIP3   OH222708   5.306   3.770   0.548  0.2881 -0.2397 -0.3575
  406TIP3    H122709   5.288   3.749   0.640  1.9879  0.4618  0.1531
  406TIP3    H222710   5.290   3.688   0.501  1.0450 -1.0817  0.8059
  407TIP3   OH222711   0.875   0.702  15.892  0.2704  0.3760  0.3600
  407TIP3    H122712   0.950   0.645  15.908  0.8427  1.0676  0.1624
  407TIP3    H222713   0.878   0.765  15.964  0.9308  1.4991 -0.6412
  408TIP3   OH222714   6.730   2.796   3.558 -0.2925 -0.6360  0.7024
  408TIP3    H122715   6.648   2.781   3.510 -0.6266  1.4058  0.5913
  408TIP3    H222716   6.783   2.850   3.498  0.9085 -1.4498  1.0147
  409TIP3   OH222717   0.221   6.182   6.372 -0.1547  0.2264  0.1564
  409TIP3    H122718   0.161   6.205   6.443 -0.1218  0.5530  0.0808
  409TIP3    H222719   0.178   6.109   6.327  1.2893 -2.0455  2.3966
  410TIP3   OH222720   0.166   4.192  11.724 -0.2257 -0.0008  0.1619
  410TIP3    H122721   0.077   4.220  11.706 -0.1268  0.6280  0.6281
  410TIP3    H222722   0.218   4.229  11.652 -0.1807  0.5195  0.4653
  411TIP3   OH222723   5.850   0.109   3.172  0.1738  0.1060  0.5772
  411TIP3    H122724   5.871   0.179   3.234  0.2809 -0.1107  0.7889
  411TIP3    H222725   5.784   0.056   3.217 -2.3415  1.9118 -0.8627
  412TIP3   OH222726   0.881   4.616  16.753  0.2404  0.4383  0.0146
  412TIP3    H122727   0.869   4.524  16.731  1.6894  0.2295  0.0604
  412TIP3    H222728   0.815   4.633  16.820  0.9297 -0.9763  1.0955
  413TIP3   OH222729   0.009   1.823   4.679  0.4346  0.1755 -0.0722
  413TIP3    H122730   0.099   1.852   4.667  0.5618 -1.0796 -2.2528
  413TIP3    H222731   0.008   1.732   4.650 -1.3489 -0.1089  0.7877
  414TIP3   OH222732   6.575   2.232   2.744  0.4083 -0.7531 -0.4027
  414TIP3    H122733   6.517   2.268   2.811  0.3187  0.7849 -1.2671
  414TIP3    H222734   6.623   2.162   2.788  0.2830  0.1682  1.2382
  415TIP3   OH222735   2.946   1.194  14.703 -0.2591  0.3752  0.3517
  415TIP3    H122736   3.019   1.165  14.757  1.1031  0.5308 -1.3400
  415TIP3    H222737   2.920   1.116  14.653  1.0539  1.1005 -1.5610
  416TIP3   OH222738   5.548   2.855   1.651 -0.1596 -0.0063  0.2633
  416TIP3    H122739   5.565   2.764   1.627 -0.0810  0.5552 -1.8964
  416TIP3    H222740   5.614   2.905   1.604  1.1704  1.0407  3.1025
  417TIP3   OH222741   0.490   0.648  14.550  0.3014 -0.3046 -0.1229
  417TIP3    H122742   0.450   0.627  14.634  1.0103 -1.2144  0.0004
  417TIP3    H222743   0.428   0.615  14.485 -1.2417  2.2818  0.0069
  418TIP3   OH222744   4.858   1.657  15.206  0.0286 -0.2286  0.1209
  418TIP3    H122745   4.781   1.706  15.235  1.0162  0.6161  1.3800
  418TIP3    H222746   4.862   1.671  15.112 -0.5346  0.9118  0.2603
  419TIP3   OH222747   2.313   1.800  13.408  0.4220  0.0131 -0.0598
  419TIP3    H122748   2.310   1.893  13.431 -0.0428 -0.1556  0.5739
  419TIP3    H222749   2.269   1.756  13.481  1.6941 -0.8165  0.2040
  420TIP3   OH222750   2.237   2.420  13.694  0.0235 -0.2951 -0.4855
  420TIP3    H122751   2.311   2.359  13.695  1.5329  1.4988  0.3840
  420TIP3    H222752   2.172   2.378  13.637  0.8359 -2.8963  0.4380
  421TIP3   OH222753   4.081   0.364  16.467 -0.0992 -0.4642 -0.2719
  421TIP3    H122754   4.108   0.452  16.441  0.9105 -0.2466  1.4512
  421TIP3    H222755   4.006   0.378  16.525  0.4831 -0.6838  0.5467
  422TIP3   OH222756   0.987   2.327  12.210  0.3108 -0.2074 -0.5383
  422TIP3    H122757   0.956   2.408  12.251 -1.2814 -0.0453 -2.0225
  422TIP3    H222758   1.082   2.338  12.205  0.1202  1.6120 -0.7849
  423TIP3   OH222759   0.088   3.614  12.085 -0.2449  0.0099  0.7169
  423TIP3    H122760   0.146   3.672  12.037  0.4427  1.6604  3.4367
  423TIP3    H222761   0.146   3.546  12.119 -0.4844 -0.2973  0.5189
  424TIP3   OH222762   6.007   6.412  12.804 -0.1452 -0.6208  0.3977
  424TIP3    H122763   5.947   6.391  12.733 -1.1672  0.3154  0.9774
  424TIP3    H222764   6.065   6.479  12.768 -1.3348  0.6302  0.7658
  425TIP3   OH222765   2.848   6.327  11.672 -0.7311 -0.5104  0.9000
  425TIP3    H122766   2.822   6.252  11.618  1.5594 -1.2575  0.7856
  425TIP3    H222767   2.860   6.290  11.760 -1.3089  0.0782  1.2310
  426TIP3   OH222768   1.874   5.501  13.754  0.2867 -0.0957  0.1671
  426TIP3    H122769   1.784   5.475  13.735 -0.0101 -0.5097  1.9974
  426TIP3    H222770   1.893   5.461  13.839  1.6576  1.2833  0.5417
  427TIP3   OH222771   6.031   3.978  13.835  0.6034  0.2678 -0.1975
  427TIP3    H122772   6.013   4.053  13.779  1.6782 -0.1134 -1.0710
  427TIP3    H222773   6.057   4.016  13.919  0.2404  0.8512 -0.3486
  428TIP3   OH222774   1.999   6.398  12.289  0.1798 -0.0632 -0.4820
  428TIP3    H122775   2.021   6.315  12.330  1.3332 -0.5087 -1.9898
  428TIP3    H222776   2.072   6.417  12.230  0.0783  2.1634  0.0549
  429TIP3   OH222777   1.146   1.069  16.419 -0.3549  0.2307  0.3299
  429TIP3    H122778   1.163   1.055  16.512  3.0087 -0.2731 -0.2878
  429TIP3    H222779   1.121   0.983  16.386  0.2312  0.0172  0.4360
  430TIP3   OH222780   6.115   6.644   6.624 -0.0698  0.8118 -0.2319
  430TIP3    H122781   6.098   6.728   6.581  0.0227 -0.0136 -1.9009
  430TIP3    H222782   6.211   6.637   6.627 -0.0840 -0.2450 -2.0990
  431TIP3   OH222783   5.975   2.354  11.391  0.1315 -0.2876  0.0153
  431TIP3    H122784   5.944   2.422  11.451  1.1327  0.1071  0.1015
  431TIP3    H222785   5.975   2.274  11.443  1.1853  0.0911  0.6150
  432TIP3   OH222786   2.162   2.270   2.846 -0.7199 -0.2781 -0.0854
  432TIP3    H122787   2.123   2.355   2.867 -1.2514 -0.7193  0.7173
  432TIP3    H222788   2.178   2.229   2.931  0.3953 -0.5995 -0.4402
  433TIP3   OH222789   1.648   6.288  12.075 -0.2410  0.6913  0.2207
  433TIP3    H122790   1.630   6.254  12.162 -1.3853 -0.7118 -0.5501
  433TIP3    H222791   1.663   6.382  12.088  0.7764  0.2849  2.0712
  434TIP3   OH222792   0.280   3.010  11.622  0.5092  0.1779 -0.2819
  434TIP3    H122793   0.259   2.961  11.543  2.8688 -0.4661 -0.5365
  434TIP3    H222794   0.345   3.074  11.595  2.0993 -0.7149  1.3138
  435TIP3   OH222795   4.204   4.267  16.896  0.1343 -1.0369 -0.1279
  435TIP3    H122796   4.200   4.308  16.809 -1.5601 -1.3881 -0.2358
  435TIP3    H222797   4.265   4.323  16.946  0.9546 -0.7151 -1.4672
  436TIP3   OH222798   5.244   3.104  14.674  0.2457  0.2960 -0.2539
  436TIP3    H122799   5.233   3.022  14.721 -2.1570  0.5610 -0.3297
  436TIP3    H222800   5.243   3.080  14.582 -0.2404  0.3950 -0.2731
  437TIP3   OH222801   4.672   3.599   3.543 -0.2370 -0.0925  0.0581
  437TIP3    H122802   4.642   3.600   3.634  0.8746  2.1767  0.4088
  437TIP3    H222803   4.744   3.536   3.543  0.0303  0.2083  0.8177
  438TIP3   OH222804   5.113   3.492   2.213 -0.0011 -1.1549 -0.5378
  438TIP3    H122805   5.207   3.480   2.202  0.5179  1.8249  0.4734
  438TIP3    H222806   5.082   3.516   2.125  0.3361 -1.1362 -0.6531
  439TIP3   OH222807   4.144   6.709   2.425  0.0837 -0.0415  0.0894
  439TIP3    H122808   4.139   6.799   2.456  2.0591 -0.0066  0.3478
  439TIP3    H222809   4.131   6.715   2.331  2.0056  0.7443 -0.1522
  440TIP3   OH222810   5.098   4.455  10.634 -0.4951  0.0814 -0.1943
  440TIP3    H122811   5.066   4.383  10.689  0.1866 -1.4057 -1.6868
  440TIP3    H222812   5.172   4.491  10.682  0.2079 -1.3248 -0.1807
  441TIP3   OH222813   0.364   4.357   5.045  0.4999  0.1288  0.1059
  441TIP3    H122814   0.347   4.383   5.135  1.4880  1.6306 -0.1258
  441TIP3    H222815   0.457   4.335   5.044  0.5305  0.2765 -0.5771
  442TIP3   OH222816   4.807   5.138  12.811  0.1529  0.1441 -0.0265
  442TIP3    H122817   4.873   5.171  12.872  0.0655  1.5872 -0.7018
  442TIP3    H222818   4.772   5.216  12.768 -0.7363 -0.7480 -0.9629
  443TIP3   OH222819   3.470   0.553   6.085  0.5357 -0.0899 -0.1229
  443TIP3    H122820   3.502   0.640   6.107 -0.8000  0.0209  1.4484
  443TIP3    H222821   3.433   0.518   6.166  1.7540 -2.4564 -0.5207
  444TIP3   OH222822   2.811   1.240  11.029  0.4926  0.3365  0.0710
  444TIP3    H122823   2.812   1.327  10.990 -1.4653  0.0671 -0.6367
  444TIP3    H222824   2.811   1.180  10.954  1.3231 -0.2579  0.5433
  445TIP3   OH222825   2.044   2.777   3.897  0.1721  0.2620 -0.2197
  445TIP3    H122826   2.126   2.820   3.872  0.4264  0.3251  0.7369
  445TIP3    H222827   2.029   2.804   3.987 -1.1292  0.5954 -0.5240
  446TIP3   OH222828   0.916   0.218   1.423  0.1325  0.1103 -0.4590
  446TIP3    H122829   0.963   0.157   1.479  0.5572 -0.2313 -1.1748
  446TIP3    H222830   0.826   0.218   1.457  0.7576  1.1820  1.2487
  447TIP3   OH222831   2.009   6.348   5.594 -0.5809  0.2858 -0.6495
  447TIP3    H122832   2.031   6.308   5.679  0.6184  1.3480 -0.4477
  447TIP3    H222833   2.017   6.442   5.609 -0.6860  0.4943 -1.8613
  448TIP3   OH222834   1.666   6.337   3.590 -0.0700  0.1653  0.1890
  448TIP3    H122835   1.696   6.392   3.518  0.5668  1.0504  1.1320
  448TIP3    H222836   1.714   6.368   3.666 -0.6195 -0.8799  0.9747
  449TIP3   OH222837   1.705   6.061   3.641  0.1140 -0.1397  0.5968
  449TIP3    H122838   1.700   6.156   3.633  2.8576  0.2320  2.6682
  449TIP3    H222839   1.739   6.032   3.557 -1.0559  0.6454 -0.1694
  450TIP3   OH222840   0.108   6.007   4.418 -0.2729  0.6081  0.7331
  450TIP3    H122841   0.022   5.982   4.453 -1.2268  0.2627 -1.7125
  450TIP3    H222842   0.149   6.057   4.488 -1.5795 -1.0656  2.7763
  451TIP3   OH222843   1.150   3.596  12.918  0.3540 -0.1720 -0.1590
  451TIP3    H122844   1.181   3.578  13.007 -0.5805 -0.3556  0.1399
  451TIP3    H222845   1.163   3.690  12.906  1.6069 -0.3485 -0.2820
  452TIP3   OH222846   6.524   5.938   5.082  0.6611  0.3474 -0.2329
  452TIP3    H122847   6.457   5.963   5.146  2.4093  1.7612  1.1073
  452TIP3    H222848   6.480   5.877   5.023 -0.7559 -1.7442  2.8587
  453TIP3   OH222849   0.480   6.076  10.730 -0.2330  0.3481  0.0224
  453TIP3    H122850   0.411   6.114  10.784 -0.6811 -1.6012  0.8403
  453TIP3    H222851   0.558   6.127  10.752 -0.5604  0.0518  1.9842
  454TIP3   OH222852   3.388   3.619  13.749 -0.2544  0.1139  0.2548
  454TIP3    H122853   3.472   3.664  13.763 -0.6044  0.3030  1.8530
  454TIP3    H222854   3.393   3.587  13.659  1.7434 -0.2954  0.4798
  455TIP3   OH222855   2.476   4.424  13.526  0.0892 -0.7905  0.1173
  455TIP3    H122856   2.490   4.354  13.590  2.4458 -0.0364  0.4756
  455TIP3    H222857   2.546   4.413  13.462 -1.7814 -1.0569 -1.9592
  456TIP3   OH222858   3.368   1.101  15.391  0.9304  0.4581  0.4448
  456TIP3    H122859   3.375   1.104  15.295  1.2657  0.3047  0.4660
  456TIP3    H222860   3.440   1.155  15.422  2.1555 -1.2568  0.6504
  457TIP3   OH222861   3.291   4.408  15.731  0.1334  0.4647 -0.2310
  457TIP3    H122862   3.345   4.337  15.697  1.0082  1.0102  0.0045
  457TIP3    H222863   3.341   4.444  15.804 -0.6998  0.7647  0.2066
  458TIP3   OH222864   5.698   0.898   5.696 -0.0789  0.0689 -0.5093
  458TIP3    H122865   5.742   0.982   5.682 -0.5788  0.4804  0.3756
  458TIP3    H222866   5.770   0.837   5.716  0.3131  0.2067 -1.4580
  459TIP3   OH222867   5.601   4.912   4.258 -0.0491  0.1141 -0.3040
  459TIP3    H122868   5.664   4.847   4.290  0.5908 -0.5643 -2.8335
  459TIP3    H222869   5.640   4.996   4.281  1.2425 -0.3348 -0.8008
  460TIP3   OH222870   5.908   0.683  13.503 -0.3166  0.0252  0.0209
  460TIP3    H122871   5.853   0.690  13.426 -1.6305 -0.1185  0.9303
  460TIP3    H222872   5.857   0.724  13.573  1.6392  1.8787  0.4306
  461TIP3   OH222873   5.362   3.696   2.980  0.0669 -0.0630 -0.1197
  461TIP3    H122874   5.436   3.731   2.931 -1.7473  0.0541 -2.8683
  461TIP3    H222875   5.298   3.768   2.983 -0.7385 -0.7847  0.5018
  462TIP3   OH222876   1.194   2.898   2.512 -0.5499 -0.4985  0.2162
  462TIP3    H122877   1.115   2.862   2.472 -0.2995  1.1120 -1.8732
  462TIP3    H222878   1.166   2.982   2.549  0.4602  0.8297 -1.9322
  463TIP3   OH222879   1.631   0.782  14.746  0.2711  0.4952  0.3041
  463TIP3    H122880   1.712   0.747  14.783  1.0284  2.6331  0.7347
  463TIP3    H222881   1.657   0.867  14.708 -1.6042  0.8344 -0.2685
  464TIP3   OH222882   1.722   0.178   6.546 -0.2041  0.1217  0.6069
  464TIP3    H122883   1.678   0.227   6.615 -0.1406  0.2042  0.5885
  464TIP3    H222884   1.812   0.210   6.547 -0.5216  1.0579 -0.3746
  465TIP3   OH222885   2.990   5.675  12.886  0.4471  0.0611 -0.8906
  465TIP3    H122886   2.900   5.656  12.913  0.4777  0.1574 -0.7185
  465TIP3    H222887   3.034   5.589  12.889  0.5436  0.1262 -0.2632
  466TIP3   OH222888   4.869   0.060  14.152 -0.0485  0.0594 -0.2194
  466TIP3    H122889   4.852   0.045  14.059  0.1296  0.4252 -0.3114
  466TIP3    H222890   4.910   0.147  14.156 -0.7897  0.3906  0.2825
  467TIP3   OH222891   3.852   6.784   3.827  0.2172 -0.0724 -0.3948
  467TIP3    H122892   3.783   6.850   3.827 -0.3630 -0.6602  1.0844
  467TIP3    H222893   3.890   6.790   3.739 -0.9570  1.0333 -0.8561
  468TIP3   OH222894   0.799   0.662  16.399  0.0730  0.2486  0.2945
  468TIP3    H122895   0.866   0.689  16.462 -0.5613  0.3188  0.9509
  468TIP3    H222896   0.743   0.738  16.389 -0.1658  0.0457  0.0858
  469TIP3   OH222897   6.348   6.085  13.654 -0.8547 -0.9654 -0.1496
  469TIP3    H122898   6.396   6.004  13.670 -1.0509 -1.1171 -0.3194
  469TIP3    H222899   6.381   6.117  13.570 -0.8643 -0.9338 -0.1404
  470TIP3   OH222900   3.585   0.213  13.815 -0.0461 -0.4710 -0.2060
  470TIP3    H122901   3.620   0.282  13.872 -2.1753  1.2246 -0.8852
  470TIP3    H222902   3.660   0.187  13.761  1.5757 -0.9148  2.1709
  471TIP3   OH222903   3.478   4.689  12.568 -0.0102 -0.2785 -0.2700
  471TIP3    H122904   3.499   4.639  12.489  1.0419 -1.8732  0.9921
  471TIP3    H222905   3.543   4.760  12.569 -0.1712 -0.1198 -0.9575
  472TIP3   OH222906   2.550   5.861   3.420 -0.1310 -0.3773 -0.5597
  472TIP3    H122907   2.590   5.929   3.474  0.9107 -0.9432 -0.6110
  472TIP3    H222908   2.464   5.846   3.461  0.6861 -0.8731  1.0122
  473TIP3   OH222909   5.621   2.272  10.755 -0.0597  0.2839 -0.8181
  473TIP3    H122910   5.696   2.328  10.775 -1.4115  1.5565  0.9167
  473TIP3    H222911   5.608   2.220  10.834 -0.6132 -0.3712 -1.3335
  474TIP3   OH222912   4.473   5.783   0.608 -0.2124 -0.3713 -0.0735
  474TIP3    H122913   4.541   5.801   0.674  0.6340  0.8596 -1.2415
  474TIP3    H222914   4.501   5.703   0.565  0.4473  0.0676 -0.4690
  475TIP3   OH222915   2.957   4.079  14.130 -0.3469  0.2517 -0.2037
  475TIP3    H122916   2.962   3.991  14.168 -0.7837  0.0020 -0.7141
  475TIP3    H222917   2.922   4.065  14.043  3.6924  0.4450 -1.9812
  476TIP3   OH222918   0.214   0.997  17.251  0.1326 -0.5842  0.2168
  476TIP3    H122919   0.286   1.031  17.198  0.7587 -0.2813  1.2552
  476TIP3    H222920   0.220   0.902  17.243  1.5137 -0.6153  1.4203
  477TIP3   OH222921   2.528   6.726  11.649 -0.0196  0.1782  0.2131
  477TIP3    H122922   2.565   6.762  11.729  0.0870 -0.2790  0.3685
  477TIP3    H222923   2.594   6.666  11.616  0.0238  0.5170 -0.3295
  478TIP3   OH222924   5.546   2.369   5.692  0.6890  0.1195  0.3895
  478TIP3    H122925   5.627   2.403   5.653  0.7481 -0.1490  0.2757
  478TIP3    H222926   5.477   2.395   5.630  0.7347  0.0254  0.2988
  479TIP3   OH222927   3.499   4.733  13.097 -0.1417  0.3468 -0.0053
  479TIP3    H122928   3.405   4.739  13.079  0.0554  2.0532 -0.5665
  479TIP3    H222929   3.506   4.754  13.190 -0.1898  1.5790 -0.2761
  480TIP3   OH222930   1.271   0.712  10.844 -0.7564  0.0445  0.0929
  480TIP3    H122931   1.333   0.668  10.785 -2.4782 -1.3940 -0.7082
  480TIP3    H222932   1.248   0.645  10.909 -0.8911  0.8026  0.8411
  481TIP3   OH222933   6.567   0.866   4.669  0.1116 -0.0650  0.2067
  481TIP3    H122934   6.561   0.895   4.578 -0.2710 -0.2995  0.1608
  481TIP3    H222935   6.661   0.848   4.681  0.1687 -0.0102 -0.1314
  482TIP3   OH222936   4.516   0.022  16.141  0.2201 -0.1962 -0.1645
  482TIP3    H122937   4.488  -0.043  16.205 -0.5701  1.5008  1.2646
  482TIP3    H222938   4.435   0.055  16.103  0.4290  1.7836  1.0072
  483TIP3   OH222939   2.937   5.817   2.393 -0.5680  0.6015  0.1913
  483TIP3    H122940   2.953   5.902   2.353 -2.2089  1.8108  2.0251
  483TIP3    H222941   3.023   5.777   2.399 -0.1076  0.8422 -3.3944
  484TIP3   OH222942   4.928   2.975   4.181 -0.1651 -0.6201  0.3282
  484TIP3    H122943   4.871   3.029   4.236  0.1863  0.4673 -0.3427
  484TIP3    H222944   4.909   3.003   4.091  0.7103 -0.9290  0.0352
  485TIP3   OH222945   4.950   5.652  13.845 -0.2653 -0.0017 -0.5321
  485TIP3    H122946   5.008   5.576  13.838 -0.1397  0.0938 -0.5275
  485TIP3    H222947   4.938   5.664  13.940 -0.3595 -0.0721 -0.5361
  486TIP3   OH222948   3.579   5.851   4.582  0.0891  0.2435 -0.8728
  486TIP3    H122949   3.509   5.840   4.519  0.2891 -1.7190 -0.7690
  486TIP3    H222950   3.535   5.870   4.665 -0.3100 -0.7313 -0.8617
  487TIP3   OH222951   6.124   5.247   3.950 -0.6271  0.0449 -0.2960
  487TIP3    H122952   6.104   5.158   3.978 -0.9905 -0.1525 -1.1895
  487TIP3    H222953   6.057   5.301   3.992  0.7970  0.1741  1.9328
  488TIP3   OH222954   4.074   3.420  12.207 -0.2185 -0.3543 -0.0006
  488TIP3    H122955   4.169   3.409  12.208 -0.1373  0.3080 -0.4477
  488TIP3    H222956   4.048   3.398  12.118 -0.7714 -2.8660  0.7504
  489TIP3   OH222957   4.590   2.972   5.553  0.3788  0.4197 -0.0319
  489TIP3    H122958   4.523   3.039   5.537 -0.5908 -0.1886  1.3917
  489TIP3    H222959   4.664   3.020   5.590  0.0093  0.8370  0.1729
  490TIP3   OH222960   1.994   1.961   1.401  0.7931 -0.3993  0.3885
  490TIP3    H122961   2.075   1.911   1.400 -0.2149 -2.1075  1.3512
  490TIP3    H222962   1.987   1.992   1.492  1.6214  1.9090 -0.2875
  491TIP3   OH222963   0.326   3.840  11.033 -0.0579  0.7059  0.0614
  491TIP3    H122964   0.289   3.857  11.119 -0.2343 -0.3396  0.1958
  491TIP3    H222965   0.418   3.819  11.050 -0.1211  0.3840  0.0031
  492TIP3   OH222966   0.687   3.294  12.134 -0.3181 -0.2718 -0.3609
  492TIP3    H122967   0.659   3.213  12.091 -1.8095  0.1510 -0.2156
  492TIP3    H222968   0.744   3.337  12.070  1.1856 -1.8326 -0.1081
  493TIP3   OH222969   5.077   3.370  10.377 -0.5140 -0.3132 -0.4600
  493TIP3    H122970   5.002   3.320  10.407 -0.7088  0.2535 -0.0040
  493TIP3    H222971   5.040   3.438  10.320 -0.5100  0.9292  0.9852
  494TIP3   OH222972   6.035   5.913  14.394  0.3564  0.4630 -0.0042
  494TIP3    H122973   6.068   6.001  14.376  1.7218 -0.4879 -2.2570
  494TIP3    H222974   5.969   5.898  14.327  0.1553 -0.2509  0.3546
  495TIP3   OH222975   6.679   2.690   3.192 -0.1499 -0.5268 -0.1218
  495TIP3    H122976   6.667   2.622   3.258  0.4242  1.9367  2.6243
  495TIP3    H222977   6.766   2.725   3.209 -0.7266  1.3925 -0.9856
  496TIP3   OH222978   2.716   1.419   6.389  0.4986  0.1975  0.7200
  496TIP3    H122979   2.751   1.469   6.463  0.5731  1.2302 -0.0002
  496TIP3    H222980   2.637   1.378   6.423  0.2013  1.1604  1.2198
  497TIP3   OH222981   4.283   0.580   3.367 -0.0508  0.2055 -0.9261
  497TIP3    H122982   4.327   0.665   3.372  0.8332 -0.2540 -0.5521
  497TIP3    H222983   4.355   0.516   3.375 -0.8637 -0.5634  0.5059
  498TIP3   OH222984   0.678   0.674   4.105  0.1961  0.1168  0.5809
  498TIP3    H122985   0.746   0.669   4.172 -0.2746  0.3529  1.0858
  498TIP3    H222986   0.612   0.733   4.143 -0.1184  0.1747 -0.0495
  499TIP3   OH222987   6.341   3.937  13.586 -0.1070  0.0702  0.1229
  499TIP3    H122988   6.340   4.012  13.646 -0.6589  0.8488 -0.8518
  499TIP3    H222989   6.385   3.868  13.636  2.1264  1.5997  0.3604
  500TIP3   OH222990   4.889   4.580   0.019  0.2889 -0.0799  0.5495
  500TIP3    H122991   4.905   4.609  -0.071 -0.9409 -2.2390 -0.4019
  500TIP3    H222992   4.959   4.517   0.037  0.2347 -0.0345  0.9248
  501TIP3   OH222993   0.000   5.402   4.859 -0.1594  0.0007  0.0756
  501TIP3    H122994   0.001   5.471   4.926 -0.7946  1.0393 -0.9669
  501TIP3    H222995  -0.001   5.449   4.776 -1.0148 -1.2704 -0.6530
  502TIP3   OH222996   4.949   2.852  17.142 -0.1408 -0.2068 -0.6056
  502TIP3    H122997   4.983   2.791  17.207 -1.8251 -0.6797 -0.1540
  502TIP3    H222998   4.944   2.801  17.061 -0.5954 -0.3929 -0.4632
  503TIP3   OH222999   2.769   0.593   2.136 -0.0131  0.3715  0.8251
  503TIP3    H123000   2.757   0.634   2.050  2.4580 -0.1309  0.1797
  503TIP3    H223001   2.688   0.545   2.151 -1.8562  3.2348  0.3694
  504TIP3   OH223002   3.945   5.176  14.686 -0.2079 -0.0876  0.1044
  504TIP3    H123003   3.852   5.162  14.705 -0.7955  2.3090 -0.7964
  504TIP3    H223004   3.984   5.194  14.772 -0.6091 -0.9811  0.4732
  505TIP3   OH223005   1.568   4.489   5.634  0.1556  0.5041 -0.1560
  505TIP3    H123006   1.507   4.532   5.694 -2.3696 -1.7301 -1.0004
  505TIP3    H223007   1.575   4.549   5.559 -1.4165  0.5612 -0.2641
  506TIP3   OH223008   2.378   2.868  15.384  0.2439  0.3763  0.1156
  506TIP3    H123009   2.351   2.886  15.474  0.1996  1.4987 -0.1108
  506TIP3    H223010   2.462   2.912  15.375  0.5839 -0.3203 -0.1877
  507TIP3   OH223011   2.054   3.657  14.534 -0.1626 -0.3752 -0.0783
  507TIP3    H123012   1.971   3.611  14.545  0.2404 -1.0236  0.3076
  507TIP3    H223013   2.099   3.609  14.464  0.4690 -0.8880  0.6642
  508TIP3   OH223014   4.164   4.629  16.736 -0.0131 -0.0410 -0.4645
  508TIP3    H123015   4.096   4.670  16.682 -1.2533 -0.4416  0.7660
  508TIP3    H223016   4.131   4.637  16.826  2.3402  1.2259  0.3260
  509TIP3   OH223017   5.062   4.642  11.366 -0.1836  0.0435  0.3998
  509TIP3    H123018   4.992   4.630  11.431 -0.7456  0.4105 -0.1363
  509TIP3    H223019   5.100   4.555  11.356 -0.0097  0.0019  1.3160
  510TIP3   OH223020   1.894   5.943   0.307 -0.4548 -0.4198  0.1894
  510TIP3    H123021   1.949   5.877   0.265 -1.0010 -1.2706  0.8065
  510TIP3    H223022   1.806   5.926   0.274 -0.8482 -0.9366  1.4747
  511TIP3   OH223023   4.472   1.488  13.378 -0.2081 -0.0809 -0.3068
  511TIP3    H123024   4.426   1.487  13.462 -2.0543 -0.0975 -1.3087
  511TIP3    H223025   4.485   1.581  13.360 -0.2980 -0.0614 -0.2722
  512TIP3   OH223026   5.328   1.901   1.744  0.0656  0.2341  0.4236
  512TIP3    H123027   5.234   1.914   1.754 -0.0967 -1.5928  1.4489
  512TIP3    H223028   5.360   1.887   1.833  1.3241  0.9230  0.0875
  513TIP3   OH223029   3.553   5.278  13.865  0.1752  0.1939  0.1703
  513TIP3    H123030   3.471   5.325  13.877  0.8142  1.7044 -1.1781
  513TIP3    H223031   3.527   5.195  13.824 -0.6421  0.8841 -0.7327
  514TIP3   OH223032   3.477   3.624  15.903  0.1047  0.0524  0.1468
  514TIP3    H123033   3.449   3.662  15.820 -1.8666 -2.0834 -0.2131
  514TIP3    H223034   3.408   3.647  15.966  0.9653  0.5827  0.9205
  515TIP3   OH223035   5.986   5.070  13.560 -0.0153 -0.4826  0.1388
  515TIP3    H123036   5.931   5.124  13.503  0.6897 -0.4886 -0.5572
  515TIP3    H223037   5.967   4.980  13.533 -0.4257 -0.5366  0.5997
  516TIP3   OH223038   6.163   2.665  13.954  0.0610  0.2926  0.0589
  516TIP3    H123039   6.147   2.654  14.047 -2.1970 -1.3747 -0.4846
  516TIP3    H223040   6.153   2.758  13.938  0.2096  0.5483  1.4113
  517TIP3   OH223041   4.973   0.433   1.892 -0.1640 -0.2973 -0.0220
  517TIP3    H123042   4.931   0.356   1.930  0.4608 -1.5372 -1.7723
  517TIP3    H223043   5.050   0.398   1.845  1.1891  1.5890  0.7114
  518TIP3   OH223044   3.508   5.814  17.251  0.0867  0.1531  0.3525
  518TIP3    H123045   3.430   5.858  17.218  0.4149  0.7923  0.4204
  518TIP3    H223046   3.542   5.766  17.176  0.0913  0.5468  0.0979
  519TIP3   OH223047   5.336   0.498  11.618 -0.6087  0.1676 -0.0246
  519TIP3    H123048   5.429   0.516  11.612 -0.6074  0.3435  0.4922
  519TIP3    H223049   5.324   0.415  11.572 -0.0600 -0.2947  0.6599
  520TIP3   OH223050   6.033   4.419   5.761  0.3938 -0.0372  0.2009
  520TIP3    H123051   6.033   4.324   5.769 -0.3829  0.0545  1.5548
  520TIP3    H223052   6.052   4.436   5.669 -1.2605 -1.5465 -0.4463
  521TIP3   OH223053   4.337   0.969  12.668  0.3290  0.2919  0.2294
  521TIP3    H123054   4.382   0.935  12.591  2.0438  0.1273  1.2570
  521TIP3    H223055   4.277   0.900  12.695 -1.5886  1.0497 -1.9669
  522TIP3   OH223056   6.142   2.414  16.363  0.1823  0.0456  0.3509
  522TIP3    H123057   6.107   2.490  16.409  1.4622  2.4096 -2.3675
  522TIP3    H223058   6.080   2.398  16.292  0.6352 -0.5359  0.0759
  523TIP3   OH223059   5.538   6.231   2.189 -0.3371  0.4670  0.0189
  523TIP3    H123060   5.476   6.281   2.136 -0.8224  0.7796  0.8567
  523TIP3    H223061   5.484   6.192   2.258  0.0398 -1.2031 -0.6067
  524TIP3   OH223062   2.889   2.576  12.730 -0.6739  0.6560  0.5176
  524TIP3    H123063   2.810   2.553  12.777 -2.8543  0.8728 -2.8610
  524TIP3    H223064   2.916   2.660  12.767 -1.9909  0.5544  1.7433
  525TIP3   OH223065   2.232   0.431  10.190  0.0808 -0.1704  0.1049
  525TIP3    H123066   2.273   0.347  10.168  0.1719 -0.3339  0.8738
  525TIP3    H223067   2.221   0.428  10.285 -0.6416  0.3623  0.0414
  526TIP3   OH223068   6.044   3.820   3.057 -0.0686  0.4618  0.2593
  526TIP3    H123069   6.082   3.902   3.088  0.1825  0.6239 -0.4633
  526TIP3    H223070   6.016   3.839   2.967 -0.1666 -0.1889  0.1479
  527TIP3   OH223071   6.354   5.062  11.542 -0.1562  0.6944 -0.2307
  527TIP3    H123072   6.300   4.984  11.529 -0.0888  0.8575 -1.5956
  527TIP3    H223073   6.327   5.096  11.627  0.2764 -1.1824  0.6958
  528TIP3   OH223074   0.838   0.206   2.357  0.1367  0.0367  0.2720
  528TIP3    H123075   0.809   0.117   2.377  0.9174 -0.2446  0.1691
  528TIP3    H223076   0.759   0.250   2.326 -0.2382 -0.6482  0.2365
  529TIP3   OH223077   4.198   1.411   1.255 -0.1329 -0.0696  0.2427
  529TIP3    H123078   4.246   1.445   1.180  0.3041 -1.0887  0.0503
  529TIP3    H223079   4.138   1.346   1.219 -0.6971  0.2213  0.6454
  530TIP3   OH223080   2.003   6.727  15.172  0.0608 -0.1852 -0.1294
  530TIP3    H123081   1.972   6.637  15.170 -1.2646  0.2490 -0.0876
  530TIP3    H223082   2.097   6.721  15.154  0.6104 -1.8220  2.9318
  531TIP3   OH223083   6.267   0.199  15.884  0.1824 -0.0214  0.1153
  531TIP3    H123084   6.176   0.174  15.899 -0.4120  2.0597  0.2066
  531TIP3    H223085   6.287   0.165  15.797 -2.0001  2.8917 -1.6291
  532TIP3   OH223086   6.713   6.723  12.279 -0.4275  0.0466  0.5173
  532TIP3    H123087   6.787   6.766  12.236  0.1446 -1.4591 -0.0241
  532TIP3    H223088   6.734   6.726  12.372  0.2947 -0.3661  0.3663
  533TIP3   OH223089   1.713   4.137   3.070  0.6104  0.0074 -0.0752
  533TIP3    H123090   1.638   4.192   3.092  0.7597  0.2750 -0.2387
  533TIP3    H223091   1.729   4.085   3.150  0.1859 -0.1277 -0.0780
  534TIP3   OH223092   0.110   3.877   4.392  0.1844  0.0552  0.1142
  534TIP3    H123093   0.148   3.906   4.475 -1.4385  2.3626  0.0978
  534TIP3    H223094   0.104   3.956   4.339 -4.9516 -0.0765  0.2675
  535TIP3   OH223095   0.092   6.317  14.399  0.1016 -0.8740  0.3774
  535TIP3    H123096   0.091   6.229  14.438  0.2356 -0.4659  1.2965
  535TIP3    H223097   0.181   6.325  14.363  1.0833  0.0297  2.9155
  536TIP3   OH223098   1.399   1.658  14.214  0.2742  0.0109 -0.3734
  536TIP3    H123099   1.416   1.610  14.134 -0.0741 -0.6941 -0.0270
  536TIP3    H223100   1.476   1.715  14.225 -0.2722  1.0785 -1.8938
  537TIP3   OH223101   2.787   6.249  13.738  0.9377 -0.5193 -0.3521
  537TIP3    H123102   2.821   6.162  13.761  0.6551 -0.6107 -0.2781
  537TIP3    H223103   2.759   6.241  13.647  1.9334 -0.1931 -0.7030
  538TIP3   OH223104   3.879   4.633  15.745 -0.2944  0.1168 -0.4135
  538TIP3    H123105   3.834   4.652  15.827  0.3196 -3.0554  0.7213
  538TIP3    H223106   3.827   4.565  15.704 -0.3438  1.3529 -2.4911
  539TIP3   OH223107   5.502   0.835   3.459 -0.7535  0.3935 -0.1372
  539TIP3    H123108   5.527   0.816   3.549  0.0326  0.0506 -0.4239
  539TIP3    H223109   5.407   0.825   3.457 -0.6109 -1.1344  0.2851
  540TIP3   OH223110   5.654   5.118  11.496 -0.3309 -0.8636 -0.7667
  540TIP3    H123111   5.745   5.111  11.465  0.1293 -0.1093  0.3887
  540TIP3    H223112   5.646   5.049  11.562  0.2424  0.8043  1.1012
  541TIP3   OH223113   2.552   4.870  11.510  0.1011  0.0332 -0.1868
  541TIP3    H123114   2.517   4.941  11.564  1.5809 -0.0839  0.9663
  541TIP3    H223115   2.511   4.883  11.425 -0.2706  1.8005  0.2260
  542TIP3   OH223116   2.786   1.476   5.030  0.2456 -0.4489  0.6308
  542TIP3    H123117   2.868   1.432   5.010 -0.8557 -1.8383 -0.9722
  542TIP3    H223118   2.794   1.562   4.990  2.2005  0.6937  3.3207
  543TIP3   OH223119   6.463   1.338  13.593  0.3340  0.6073 -0.0868
  543TIP3    H123120   6.435   1.423  13.628 -1.0573 -0.1264  0.6655
  543TIP3    H223121   6.493   1.290  13.671 -0.7572 -0.2726 -0.1843
  544TIP3   OH223122   5.169   5.129   3.271  0.2496  0.9019 -0.6116
  544TIP3    H123123   5.098   5.128   3.206 -0.0970  0.3278 -0.2302
  544TIP3    H223124   5.125   5.143   3.355  0.4279 -0.8688 -0.2025
  545TIP3   OH223125   5.158   2.012   6.601 -0.1320  0.8674 -0.4200
  545TIP3    H123126   5.183   1.919   6.601  1.7221  1.3431 -0.1670
  545TIP3    H223127   5.109   2.023   6.519  0.2541 -0.1799 -0.8029
  546TIP3   OH223128   0.654   0.457  16.540 -0.2657  0.0418 -0.2954
  546TIP3    H123129   0.650   0.472  16.635  1.1631  0.4603 -0.2852
  546TIP3    H223130   0.713   0.524  16.508  0.6036 -1.1548 -1.2442
  547TIP3   OH223131   5.959   0.819   4.928 -0.2060 -0.0989 -0.1764
  547TIP3    H123132   5.883   0.856   4.882  0.1580 -0.5168 -1.1229
  547TIP3    H223133   5.922   0.780   5.007 -0.6515  1.9355  0.6524
  548TIP3   OH223134   0.889   5.969   1.422  0.6874  0.0454 -0.5629
  548TIP3    H123135   0.847   5.955   1.507  0.0250  0.9784 -0.7287
  548TIP3    H223136   0.948   6.043   1.438  0.4246  0.3398 -0.9635
  549TIP3   OH223137   1.489   2.465   4.029 -0.6466  0.0364 -0.7187
  549TIP3    H123138   1.515   2.555   4.048  0.6549 -0.2441 -1.0647
  549TIP3    H223139   1.404   2.454   4.071 -0.4611  1.1871 -0.0313
  550TIP3   OH223140   1.548   3.999  16.065 -0.3339 -0.1901 -0.4462
  550TIP3    H123141   1.601   4.029  15.991  1.2593  0.3766  0.8866
  550TIP3    H223142   1.601   4.020  16.142 -1.7702 -1.1749  0.8341
  551TIP3   OH223143   1.759   1.400  17.036  0.1388 -0.5219  0.3703
  551TIP3    H123144   1.813   1.321  17.026  0.5535 -0.3628  1.3511
  551TIP3    H223145   1.752   1.435  16.947 -0.9379 -2.2433 -0.2433
  552TIP3   OH223146   1.859   1.872   4.356  0.1398 -0.2681 -0.1538
  552TIP3    H123147   1.859   1.890   4.450 -2.7843  1.6307 -0.4796
  552TIP3    H223148   1.785   1.921   4.321  1.0590 -1.0738 -3.4572
  553TIP3   OH223149   6.348   5.617   0.660 -0.0495 -0.0520 -0.4050
  553TIP3    H123150   6.426   5.652   0.617 -0.5172  0.3175 -0.9553
  553TIP3    H223151   6.352   5.651   0.750  0.8180 -0.6563 -0.2138
  554TIP3   OH223152   5.963   4.814   5.429  0.3947 -0.1909 -0.1622
  554TIP3    H123153   5.962   4.886   5.492  0.6000  0.5309 -0.9811
  554TIP3    H223154   5.987   4.737   5.481 -3.2127 -0.3274  1.3968
  555TIP3   OH223155   0.819   1.473   0.524  0.3963  0.9023 -0.5067
  555TIP3    H123156   0.779   1.390   0.498  0.1166  0.9062 -0.0974
  555TIP3    H223157   0.751   1.516   0.576  0.3909  1.5722 -1.0734
  556TIP3   OH223158   5.656   6.472  14.869  0.3478  0.0042  0.2935
  556TIP3    H123159   5.593   6.414  14.910  0.5142 -0.7405 -0.4935
  556TIP3    H223160   5.620   6.489  14.781  1.3758 -0.6562 -0.2667
  557TIP3   OH223161   3.116   6.100  14.311 -0.6316 -0.6972  0.0010
  557TIP3    H123162   3.103   6.069  14.400  0.4268  0.0029  0.4105
  557TIP3    H223163   3.206   6.075  14.289 -0.4931  0.1632 -0.4401
  558TIP3   OH223164   2.724   3.206  11.331 -0.1070 -0.5721  0.0883
  558TIP3    H123165   2.722   3.216  11.236  0.5586  0.2297  0.1616
  558TIP3    H223166   2.707   3.293  11.365  0.6048 -0.6798  0.7158
  559TIP3   OH223167   2.063   6.503  14.575 -0.0774 -0.0106 -0.4955
  559TIP3    H123168   2.006   6.579  14.574 -0.3952 -0.2500 -1.3445
  559TIP3    H223169   2.134   6.526  14.635 -2.7057 -0.9613  3.1488
  560TIP3   OH223170   2.936   0.281   1.018 -0.5016  0.3915  0.3814
  560TIP3    H123171   3.006   0.290   1.084  1.9796  0.5912 -2.1951
  560TIP3    H223172   2.947   0.192   0.985 -0.8055  0.7794 -0.7688
  561TIP3   OH223173   0.275   5.942  16.515  0.0487 -0.2718 -0.0573
  561TIP3    H123174   0.225   5.931  16.435  1.5527  1.7713 -1.3250
  561TIP3    H223175   0.209   5.955  16.583 -1.1938 -0.7544 -1.1555
  562TIP3   OH223176   4.296   0.733  16.608  0.1712  0.0452  0.0665
  562TIP3    H123177   4.254   0.648  16.620 -2.2753  0.6658 -3.3617
  562TIP3    H223178   4.235   0.795  16.648  1.6480  0.2845  2.0009
  563TIP3   OH223179   2.309   4.326  12.491 -0.2692 -0.5367 -0.0625
  563TIP3    H123180   2.290   4.281  12.409  2.5799 -1.3336 -0.3571
  563TIP3    H223181   2.228   4.320  12.542 -2.2880  0.5516 -3.0479
  564TIP3   OH223182   2.944   2.278  15.641 -0.6388 -0.6320  0.0367
  564TIP3    H123183   2.982   2.206  15.592  0.1716 -0.6236  0.6354
  564TIP3    H223184   2.866   2.241  15.682 -0.5427 -1.0156 -0.1262
  565TIP3   OH223185   6.708   1.213   2.608 -0.2915 -0.8732 -0.3804
  565TIP3    H123186   6.626   1.210   2.558 -1.6841 -0.3482  1.7733
  565TIP3    H223187   6.711   1.301   2.644  1.3125 -0.8464 -0.5646
  566TIP3   OH223188   2.297   0.053  10.523  0.1814 -0.4643  0.2758
  566TIP3    H123189   2.281  -0.041  10.532 -0.7868 -0.4068 -0.8395
  566TIP3    H223190   2.246   0.080  10.447  0.1471  1.0448  0.8086
  567TIP3   OH223191   3.612   4.039   5.444  0.1677  0.8995  0.2389
  567TIP3    H123192   3.575   4.049   5.531  1.0314 -0.3299  0.7661
  567TIP3    H223193   3.563   3.966   5.405  1.5106 -0.2733  0.6810
  568TIP3   OH223194   5.575   6.464   5.330  0.1853 -0.2235 -0.1279
  568TIP3    H123195   5.490   6.494   5.362  0.6960  0.1197  0.9051
  568TIP3    H223196   5.583   6.374   5.362  1.5400  0.7603  2.3849
  569TIP3   OH223197   5.129   0.764  14.481  0.5214  0.4684 -0.5179
  569TIP3    H123198   5.192   0.775  14.552  1.6161 -0.9877 -1.2551
  569TIP3    H223199   5.049   0.804  14.515  1.6930  1.9682  0.5968
  570TIP3   OH223200   1.369   3.213   5.890 -0.0761  0.4539  0.0983
  570TIP3    H123201   1.435   3.190   5.825 -0.5525  1.0827 -0.6091
  570TIP3    H223202   1.414   3.273   5.950  0.2629  0.1444  0.1520
  571TIP3   OH223203   4.712   6.724  15.547 -0.0860  0.0022 -0.0458
  571TIP3    H123204   4.798   6.708  15.586  0.0395  1.0466  0.1406
  571TIP3    H223205   4.692   6.645  15.498 -0.3095 -1.3950  2.2382
  572TIP3   OH223206   4.403   3.635  13.796 -0.4317  0.3652  0.0315
  572TIP3    H123207   4.321   3.591  13.821 -0.2517  1.0495  1.9572
  572TIP3    H223208   4.399   3.642  13.701 -1.1068 -2.5326 -0.1794
  573TIP3   OH223209   2.278   2.372   1.137  0.1273 -0.1102  0.1608
  573TIP3    H123210   2.240   2.291   1.103  2.0237 -0.8285 -0.2967
  573TIP3    H223211   2.368   2.349   1.158  0.6616  1.8732  0.0946
  574TIP3   OH223212   2.176   0.091   0.325  0.3166 -0.0529  0.1203
  574TIP3    H123213   2.142   0.049   0.404  0.5010 -1.4142 -0.5210
  574TIP3    H223214   2.173   0.023   0.258 -1.5302  1.5549 -1.5293
  575TIP3   OH223215   4.042   5.610   2.374 -0.4706  0.2207  0.8674
  575TIP3    H123216   4.018   5.520   2.396 -1.0685  0.2830  0.4611
  575TIP3    H223217   4.137   5.612   2.388 -0.4120 -0.5421  0.6433
  576TIP3   OH223218   0.373   3.796   0.953 -0.2549 -0.0503  0.5099
  576TIP3    H123219   0.347   3.871   0.899 -0.3280  0.6208  1.4593
  576TIP3    H223220   0.310   3.797   1.025  0.2429 -0.5519  0.9424
  577TIP3   OH223221   1.490   0.228  13.096  0.4455 -0.4413 -0.1709
  577TIP3    H123222   1.575   0.268  13.114 -0.1174  1.6357 -1.9850
  577TIP3    H223223   1.426   0.292  13.128 -0.4508 -0.3469 -2.0737
  578TIP3   OH223224   5.595   2.231   5.953 -0.7414  0.3423  0.0508
  578TIP3    H123225   5.585   2.238   5.858  3.1712 -3.2557 -0.7916
  578TIP3    H223226   5.672   2.284   5.973  0.3033 -1.3477  0.6708
  579TIP3   OH223227   1.894   4.515  14.580 -0.5125 -0.0460  0.3775
  579TIP3    H123228   1.923   4.574  14.650 -0.7154  0.6830 -0.1425
  579TIP3    H223229   1.913   4.563  14.499  0.0515 -1.0324 -0.0803
  580TIP3   OH223230   0.261   0.793  13.567 -0.3572  0.0975  0.0955
  580TIP3    H123231   0.185   0.845  13.541  1.3057  2.4037 -0.2987
  580TIP3    H223232   0.278   0.818  13.657  1.1623  1.1510 -0.4621
  581TIP3   OH223233   4.082   5.814  14.649 -0.1535  0.0546 -0.0904
  581TIP3    H123234   4.022   5.888  14.655  0.7710  0.7987  0.2292
  581TIP3    H223235   4.026   5.738  14.638 -1.1451  0.7382  0.1572
  582TIP3   OH223236   4.483   0.958   0.784 -0.3184 -0.0434  0.1044
  582TIP3    H123237   4.396   0.920   0.791 -0.6085  0.5831 -0.0287
  582TIP3    H223238   4.540   0.885   0.761 -0.6430 -0.6391  1.1755
  583TIP3   OH223239   6.626   3.797   5.144 -1.0548 -0.0278  0.3762
  583TIP3    H123240   6.577   3.769   5.221  1.1580 -3.3168  0.6629
  583TIP3    H223241   6.641   3.891   5.159 -0.9732 -0.5139  3.7871
  584TIP3   OH223242   2.425   5.444  11.860  0.0765 -1.0152 -0.0843
  584TIP3    H123243   2.367   5.519  11.849  0.6853 -0.5554 -0.1665
  584TIP3    H223244   2.369   5.368  11.843 -0.5464 -0.5819  0.0334
  585TIP3   OH223245   1.417   5.757   3.930  0.1814 -0.2294 -0.3501
  585TIP3    H123246   1.489   5.810   3.895  0.8253 -0.0235  1.2315
  585TIP3    H223247   1.429   5.671   3.889 -0.6023  0.6946 -2.5851
  586TIP3   OH223248   2.614   5.482   5.020 -0.0548 -0.2940 -0.6680
  586TIP3    H123249   2.702   5.474   4.984  0.4599 -1.2062  0.7579
  586TIP3    H223250   2.576   5.395   5.008 -0.1282 -0.4040  0.3557
  587TIP3   OH223251   6.497   6.234   5.377 -0.5277 -0.2627 -0.4415
  587TIP3    H123252   6.559   6.300   5.409  0.5240 -2.1706  1.5525
  587TIP3    H223253   6.540   6.196   5.301 -0.3267  0.1071 -0.5155
  588TIP3   OH223254   4.131   4.608  12.813  0.0046 -0.5007 -0.1479
  588TIP3    H123255   4.132   4.515  12.835 -1.0922 -0.7285 -1.0102
  588TIP3    H223256   4.096   4.611  12.724 -2.3788  0.8932  0.7741
  589TIP3   OH223257   0.576   0.465   6.040  0.7075  0.2914 -0.1978
  589TIP3    H123258   0.578   0.534   6.106  1.1452 -1.0981  1.2593
  589TIP3    H223259   0.668   0.437   6.032  0.1849 -1.8698  1.1070
  590TIP3   OH223260   5.124   2.136  12.800  0.3154 -0.3485  0.1174
  590TIP3    H123261   5.029   2.137  12.786  0.2579  0.3374  0.4932
  590TIP3    H223262   5.135   2.099  12.887  0.3660 -0.0419  0.2420
  591TIP3   OH223263   4.793   5.506   2.253  0.1584 -0.0474  0.3965
  591TIP3    H123264   4.715   5.457   2.228 -0.1381  0.4535  0.3393
  591TIP3    H223265   4.811   5.476   2.342  0.5468 -0.9739  0.0127
  592TIP3   OH223266   3.927   2.480  14.265 -0.5645 -0.0317  0.5855
  592TIP3    H123267   3.889   2.393  14.280  0.2318 -0.9520 -2.3218
  592TIP3    H223268   4.020   2.469  14.282 -0.4899  0.2846  0.3801
  593TIP3   OH223269   1.235   0.386  16.094 -0.1374 -0.3900  0.1671
  593TIP3    H123270   1.277   0.307  16.063  2.3345  0.8934  0.1436
  593TIP3    H223271   1.279   0.407  16.176 -1.0405  0.7400  0.3850
  594TIP3   OH223272   6.069   0.850   3.918  0.0104  0.2438 -0.3978
  594TIP3    H123273   6.046   0.850   3.825  0.3626  1.2359 -0.4845
  594TIP3    H223274   5.984   0.847   3.963 -0.3282  3.5020 -0.7234
  595TIP3   OH223275   6.775   3.929   3.654  0.5795  0.9401 -0.2768
  595TIP3    H123276   6.762   3.855   3.595  0.9031  0.3240  0.4250
  595TIP3    H223277   6.805   4.000   3.596 -3.0764  1.5937 -1.5171
  596TIP3   OH223278   4.801   5.862   5.197  0.0002 -0.3395  0.0938
  596TIP3    H123279   4.819   5.814   5.278  0.5250 -1.9187 -0.9259
  596TIP3    H223280   4.803   5.954   5.222 -0.8170 -0.8316  2.0709
  597TIP3   OH223281   3.872   3.291  10.903  0.0601 -0.0019 -0.2554
  597TIP3    H123282   3.833   3.219  10.853 -0.1419  0.8204 -1.2964
  597TIP3    H223283   3.802   3.356  10.908  0.3562  0.2692  0.3938
  598TIP3   OH223284   6.120   0.888  13.063  0.4375 -0.0728 -0.3136
  598TIP3    H123285   6.061   0.823  13.024 -1.9478  2.1924 -0.6850
  598TIP3    H223286   6.126   0.863  13.155 -0.9277 -0.5096 -0.3273
  599TIP3   OH223287   2.160   3.128  12.840 -0.3604 -0.2209 -0.0159
  599TIP3    H123288   2.066   3.148  12.842 -1.2695 -4.0503  0.5278
  599TIP3    H223289   2.183   3.135  12.747 -0.8406  2.0026  0.0017
  600TIP3   OH223290   1.572   4.615   6.002 -0.0554 -0.6656 -0.1834
  600TIP3    H123291   1.654   4.569   6.014  0.2892 -0.1224 -0.4159
  600TIP3    H223292   1.574   4.685   6.067 -0.7780 -1.2501  0.4798
  601TIP3   OH223293   1.517   4.798  12.231  0.1008  0.3471 -0.2356
  601TIP3    H123294   1.592   4.823  12.177 -1.7685  1.7001 -2.2707
  601TIP3    H223295   1.461   4.875  12.232 -1.7988 -1.0100  0.3772
  602TIP3   OH223296   2.652   0.566   3.455 -0.2871  0.6666 -0.2101
  602TIP3    H123297   2.593   0.617   3.511 -0.1889  0.9847 -0.3924
  602TIP3    H223298   2.602   0.549   3.376 -0.8198 -0.7560  0.4292
  603TIP3   OH223299   2.107   4.089  15.905 -0.2841  0.5271  0.2277
  603TIP3    H123300   2.098   4.115  15.813  0.7611  2.0821  0.5366
  603TIP3    H223301   2.020   4.063  15.932 -0.8840  1.4081 -0.8244
  604TIP3   OH223302   1.786   1.264   4.690  0.0334 -0.8703 -0.3976
  604TIP3    H123303   1.811   1.352   4.663  1.6852 -1.0438  0.5205
  604TIP3    H223304   1.733   1.231   4.617 -2.1743  1.5077  0.0310
  605TIP3   OH223305   4.291   4.475   0.964 -0.2038 -0.0411 -0.4982
  605TIP3    H123306   4.214   4.460   1.018  0.0129 -0.3737 -0.2761
  605TIP3    H223307   4.312   4.389   0.928  0.8268 -0.2068  0.4764
  606TIP3   OH223308   5.618   5.138   2.020  0.0547 -0.1150 -0.7154
  606TIP3    H123309   5.698   5.089   1.997 -0.6939 -1.9739  0.5586
  606TIP3    H223310   5.642   5.188   2.098 -0.8241 -2.8597  1.3550
  607TIP3   OH223311   1.455   1.273  13.878  0.5559  0.8801  0.6621
  607TIP3    H123312   1.453   1.179  13.859 -0.6267  0.9210  0.5759
  607TIP3    H223313   1.480   1.314  13.795  2.7418  0.5471  1.1080
  608TIP3   OH223314   5.940   4.074  16.804  0.3059 -0.3781  0.0367
  608TIP3    H123315   5.926   4.122  16.885  1.3455  0.6298 -0.3720
  608TIP3    H223316   5.854   4.076  16.760 -0.2229 -0.8231  1.0474
  609TIP3   OH223317   3.368   5.003   3.266 -0.0936 -0.2692  0.2035
  609TIP3    H123318   3.364   5.071   3.334  0.0556 -1.7343  1.7161
  609TIP3    H223319   3.326   4.927   3.306  0.5391 -1.3463 -1.1405
  610TIP3   OH223320   1.007   3.944   3.633  0.2518 -0.0186 -0.1936
  610TIP3    H123321   1.000   4.032   3.597 -1.3523  0.2904  0.8156
  610TIP3    H223322   1.077   3.949   3.698 -0.2855  0.6770  0.3313
  611TIP3   OH223323   3.218   3.668  15.396  0.0115 -0.0796 -0.9967
  611TIP3    H123324   3.232   3.664  15.301  0.9555 -2.8947 -0.7828
  611TIP3    H223325   3.166   3.590  15.415  0.0558  0.3286  0.8371
  612TIP3   OH223326   6.034   6.788  14.927  0.5655 -0.4371 -0.6670
  612TIP3    H123327   6.068   6.744  14.848  2.2021 -0.7247  0.1656
  612TIP3    H223328   6.015   6.716  14.988 -1.3938 -0.2626 -1.0326
  613TIP3   OH223329   0.276   0.888   4.979 -0.0547  0.3031  0.3706
  613TIP3    H123330   0.253   0.800   5.008 -0.5716 -0.0824 -1.1771
  613TIP3    H223331   0.332   0.875   4.903  0.0140  1.3022  0.2365
  614TIP3   OH223332   1.979   5.595  14.371 -0.1960  0.4000  0.3698
  614TIP3    H123333   2.044   5.555  14.427 -0.6027  0.0472  0.5935
  614TIP3    H223334   1.990   5.689  14.384 -0.6160  0.3057  1.4195
  615TIP3   OH223335   0.556   2.202  11.169  0.4040 -0.5403  0.0751
  615TIP3    H123336   0.486   2.156  11.216  0.2220  0.6281  0.9651
  615TIP3    H223337   0.634   2.148  11.184 -0.1085 -1.3433 -0.1227
  616TIP3   OH223338   1.866   2.455  14.655  0.5236 -0.4329  0.3956
  616TIP3    H123339   1.807   2.504  14.713  1.1198  0.3113  0.3844
  616TIP3    H223340   1.876   2.511  14.578  1.5070 -0.3950  0.5404
  617TIP3   OH223341   3.669   6.201  12.817 -0.1742 -0.1361  0.0475
  617TIP3    H123342   3.628   6.127  12.773  1.1630 -1.6060  1.2234
  617TIP3    H223343   3.706   6.254  12.746 -0.3707 -1.0603 -0.7579
  618TIP3   OH223344   2.679   2.653   0.098 -0.1216 -0.3280 -0.3784
  618TIP3    H123345   2.639   2.711   0.033  1.0504  0.3052 -0.5544
  618TIP3    H223346   2.649   2.686   0.182  0.7989  0.7605 -0.4606
  619TIP3   OH223347   6.361   3.241   3.205  0.2506  0.0758 -0.5638
  619TIP3    H123348   6.298   3.214   3.139  0.0862  0.8731 -0.7292
  619TIP3    H223349   6.441   3.191   3.184 -0.4209 -1.1945 -0.1441
  620TIP3   OH223350   2.675   6.155   0.825 -0.0996 -0.5130  0.1196
  620TIP3    H123351   2.705   6.176   0.914  0.8253 -2.1173  0.2071
  620TIP3    H223352   2.745   6.188   0.769  0.7997 -2.2820  0.1865
  621TIP3   OH223353   5.842   3.581  12.370 -0.1904 -0.2476 -0.6543
  621TIP3    H123354   5.751   3.562  12.394  0.6103 -0.5881  2.2913
  621TIP3    H223355   5.888   3.498  12.382  0.9262  0.4659  0.1332
  622TIP3   OH223356   2.297   1.669   0.919  0.3205  0.2479  0.6480
  622TIP3    H123357   2.294   1.585   0.964 -0.4562  0.6199  1.2889
  622TIP3    H223358   2.343   1.650   0.836 -0.1699 -0.8663  0.6255
  623TIP3   OH223359   2.181   1.840   4.755 -0.3813  0.5401  0.8670
  623TIP3    H123360   2.129   1.852   4.834  1.1666  2.8638  1.5942
  623TIP3    H223361   2.271   1.860   4.782  0.4574 -0.4914 -1.0393
  624TIP3   OH223362   5.491   0.986  15.664  0.0033  0.4748 -0.6613
  624TIP3    H123363   5.538   0.944  15.592 -0.0838 -0.8149  0.0251
  624TIP3    H223364   5.404   1.006  15.627  0.1246  0.2642 -1.0610
  625TIP3   OH223365   1.184   1.236   6.785  0.1088  0.0524 -0.1060
  625TIP3    H123366   1.234   1.186   6.721 -0.3511 -1.7019  0.8956
  625TIP3    H223367   1.093   1.229   6.755  0.2053  1.5846 -0.8163
  626TIP3   OH223368   3.977   0.943   4.051  0.5815  0.1357 -0.7105
  626TIP3    H123369   4.044   0.876   4.036 -0.3699 -1.0216  0.0312
  626TIP3    H223370   3.986   0.965   4.144 -0.4880 -0.5416 -0.4250
  627TIP3   OH223371   4.357   6.132  10.304 -1.0168  0.7468 -0.1004
  627TIP3    H123372   4.295   6.201  10.281 -1.4544  0.1798 -0.6268
  627TIP3    H223373   4.364   6.078  10.225 -0.9163  0.0048  0.4079
  628TIP3   OH223374   1.240   2.737   3.901  0.2040  0.2399  0.2258
  628TIP3    H123375   1.277   2.694   3.824  1.1175  2.5672 -0.6647
  628TIP3    H223376   1.214   2.665   3.959 -0.7408 -1.5315 -2.3468
  629TIP3   OH223377   6.033   1.572   4.212  0.0440  0.0867  0.3172
  629TIP3    H123378   6.000   1.490   4.246  2.0071 -0.5129  0.8329
  629TIP3    H223379   6.101   1.547   4.150 -0.8074  1.2751 -1.1422
  630TIP3   OH223380   4.052   6.371   3.496 -0.2177  0.3533  0.4411
  630TIP3    H123381   4.048   6.288   3.449 -0.0681  0.2510  0.6090
  630TIP3    H223382   4.000   6.358   3.575  0.6055  0.1045  0.9479
  631TIP3   OH223383   3.399   0.647  13.588 -0.3029 -0.4572 -0.0626
  631TIP3    H123384   3.452   0.597  13.651  1.7254  0.1541 -1.2430
  631TIP3    H223385   3.444   0.635  13.504 -3.3466 -1.8278 -1.5722
  632TIP3   OH223386   5.315   6.708  12.019 -0.1156 -0.1122  0.2492
  632TIP3    H123387   5.220   6.716  12.025 -0.1711  0.8752 -1.6250
  632TIP3    H223388   5.329   6.647  11.947  0.6722 -0.5418  0.7594
  633TIP3   OH223389   3.239   2.552   1.695  0.9176  0.0750 -0.4224
  633TIP3    H123390   3.164   2.548   1.754  1.5448 -0.8827  0.3321
  633TIP3    H223391   3.306   2.599   1.745  1.4603 -0.7644 -0.3519
  634TIP3   OH223392   3.594   5.288  16.819  0.2668  0.2220  0.1135
  634TIP3    H123393   3.539   5.245  16.884 -0.4152  2.1494  0.8656
  634TIP3    H223394   3.682   5.285  16.855 -0.0916  1.1844  1.1194
  635TIP3   OH223395   2.205   6.145  16.346  0.3058  0.6542 -0.4541
  635TIP3    H123396   2.244   6.097  16.419  0.4195 -0.4598 -1.2439
  635TIP3    H223397   2.267   6.216  16.329  1.1509 -0.0958 -0.5826
  636TIP3   OH223398   0.997   3.234   1.481  0.2327  0.1064 -0.2876
  636TIP3    H123399   0.904   3.237   1.502 -0.3325  1.2774 -2.7331
  636TIP3    H223400   1.040   3.211   1.564 -2.1935 -0.3127  0.9012
  637TIP3   OH223401   1.603   1.604  13.523  0.7713  0.0731 -0.3369
  637TIP3    H123402   1.642   1.692  13.522  2.5584 -0.6188  2.1466
  637TIP3    H223403   1.628   1.566  13.439  0.4569  1.7302 -1.2006
  638TIP3   OH223404   1.659   0.641  16.389  0.1116  0.0859  0.5716
  638TIP3    H123405   1.707   0.723  16.375 -1.1670  0.5172 -1.3738
  638TIP3    H223406   1.597   0.637  16.317 -0.4181 -2.2008  1.1380
  639TIP3   OH223407   0.513   4.209  14.811  0.3769  0.6375  0.1018
  639TIP3    H123408   0.470   4.264  14.745  1.3213  1.7574  0.4014
  639TIP3    H223409   0.449   4.141  14.831 -0.0511  0.4838 -1.7152
  640TIP3   OH223410   0.177   0.103  13.821  0.2536  0.3298  0.3495
  640TIP3    H123411   0.099   0.109  13.766  0.9236  0.6499 -0.5593
  640TIP3    H223412   0.238   0.048  13.772  0.5100 -0.1284  1.1680
  641TIP3   OH223413   1.882   5.431  14.761 -0.3778  1.2790 -0.0679
  641TIP3    H123414   1.860   5.412  14.852 -1.1817  0.8627 -0.3412
  641TIP3    H223415   1.898   5.526  14.760 -1.4174  1.4666  0.3043
  642TIP3   OH223416   4.592   1.363   0.731 -0.0121 -0.1099 -0.3446
  642TIP3    H123417   4.668   1.402   0.687  0.5317 -1.1932 -0.3842
  642TIP3    H223418   4.628   1.292   0.784 -0.7578  0.6884  1.2658
  643TIP3   OH223419   4.083   3.157   2.606 -0.1418 -0.4343 -0.7046
  643TIP3    H123420   3.998   3.133   2.644 -0.2923  0.2042 -0.6157
  643TIP3    H223421   4.131   3.075   2.600  0.1062 -0.4820  1.4337
  644TIP3   OH223422   1.254   5.883   5.425 -0.3214  0.4976 -0.2697
  644TIP3    H123423   1.295   5.820   5.366  0.4360 -0.0167  0.7821
  644TIP3    H223424   1.233   5.958   5.370  0.6583  0.1448 -1.1315
  645TIP3   OH223425   5.868   0.437  12.009  0.0968 -0.1165  0.4753
  645TIP3    H123426   5.818   0.501  11.959 -0.6651 -1.1431 -0.1104
  645TIP3    H223427   5.958   0.469  12.006 -0.1715  0.5856 -0.3371
  646TIP3   OH223428   5.757   1.605  11.189 -0.0175  0.2508 -0.2433
  646TIP3    H123429   5.814   1.664  11.140 -1.0559  0.6123 -1.0232
  646TIP3    H223430   5.674   1.652  11.198 -1.4745 -1.7732 -2.5055
  647TIP3   OH223431   1.265   5.815   4.145  0.3770  0.1398  0.2469
  647TIP3    H123432   1.287   5.774   4.062  0.0595  1.4556 -0.5016
  647TIP3    H223433   1.298   5.755   4.211 -0.8158 -1.7338 -0.8136
  648TIP3   OH223434   4.761   4.174   3.272 -0.6452  0.1839 -0.5909
  648TIP3    H123435   4.725   4.232   3.205 -0.2501  1.7184  0.4968
  648TIP3    H223436   4.713   4.092   3.261 -2.7781  1.4108 -0.7175
  649TIP3   OH223437   1.133   2.897   2.082  0.0641  0.2866  0.0246
  649TIP3    H123438   1.182   2.880   2.163 -1.5728 -0.0137  0.9902
  649TIP3    H223439   1.183   2.855   2.013  1.5795  0.6822  0.8679
  650TIP3   OH223440   6.656   5.963  13.318 -0.6702  0.4576  0.3482
  650TIP3    H123441   6.676   6.050  13.286 -0.1487  0.0933 -0.3169
  650TIP3    H223442   6.653   5.908  13.239  1.7396 -0.6670  0.9876
  651TIP3   OH223443   3.190   1.190  13.653  0.2717  0.0538  0.1640
  651TIP3    H123444   3.155   1.139  13.726  1.6248 -0.8134  0.2413
  651TIP3    H223445   3.124   1.185  13.585 -0.1867 -0.6949  0.6650
  652TIP3   OH223446   5.000   1.778   2.024 -0.6726  0.0214  0.3722
  652TIP3    H123447   4.927   1.830   1.992  0.1575  1.2197  0.3867
  652TIP3    H223448   4.981   1.762   2.116 -0.9017  0.3524  0.3800
  653TIP3   OH223449   4.672   5.197   0.011  0.3693  0.0648  0.6387
  653TIP3    H123450   4.595   5.239  -0.026  0.3936  0.1007  0.6275
  653TIP3    H223451   4.660   5.203   0.105 -0.2106 -0.9673  0.6416
  654TIP3   OH223452   0.544   3.479   6.198 -0.4224 -0.2356 -0.1841
  654TIP3    H123453   0.576   3.456   6.285  1.5425 -1.2055 -1.1335
  654TIP3    H223454   0.565   3.572   6.189  1.1831 -0.6010 -0.3702
  655TIP3   OH223455   0.305   6.742  11.612 -0.2110  0.0646 -0.6949
  655TIP3    H123456   0.281   6.664  11.561  0.0196  0.1005 -0.8562
  655TIP3    H223457   0.317   6.709  11.701  0.5288 -0.1986 -0.8904
  656TIP3   OH223458   4.296   1.600  15.672 -0.3884  0.3017  0.4263
  656TIP3    H123459   4.337   1.532  15.620  0.1266 -0.1085  1.3478
  656TIP3    H223460   4.252   1.553  15.743  2.4017  1.0445  2.7372
  657TIP3   OH223461   0.135   5.573  10.448  0.4096  0.1793  0.0290
  657TIP3    H123462   0.040   5.571  10.450  0.4083  0.3721  0.2569
  657TIP3    H223463   0.162   5.482  10.465  0.2606  0.0140 -0.6384
  658TIP3   OH223464   5.124   4.507   4.764  0.0400  0.0641 -0.3148
  658TIP3    H123465   5.109   4.536   4.854 -1.9265  1.7084 -1.1373
  658TIP3    H223466   5.049   4.451   4.744 -0.8661  1.7703 -1.7699
  659TIP3   OH223467   1.897   2.338  13.069 -0.2419 -0.2106 -0.2175
  659TIP3    H123468   1.892   2.284  12.990 -0.9958 -0.9364  0.3206
  659TIP3    H223469   1.807   2.365  13.086  0.1819  1.4682 -0.6496
  660TIP3   OH223470   4.652   0.428  15.106 -0.2178 -0.4922 -0.0708
  660TIP3    H123471   4.622   0.448  15.017 -1.4256  1.2676  0.6949
  660TIP3    H223472   4.659   0.514  15.148 -0.4082 -1.3648  1.7653
  661TIP3   OH223473   0.319   5.738  16.215 -0.3242  0.5825  0.4773
  661TIP3    H123474   0.361   5.680  16.279 -0.8915 -0.4837 -0.1099
  661TIP3    H223475   0.238   5.766  16.257 -0.0267  0.9760  0.7829
  662TIP3   OH223476   0.859   3.529  12.815  0.2377 -0.1380 -0.3151
  662TIP3    H123477   0.774   3.527  12.773  0.2779 -0.7816 -0.3671
  662TIP3    H223478   0.884   3.621  12.814 -0.6173  0.1032  0.0269
  663TIP3   OH223479   6.070   4.180  11.684  0.3583 -0.0145 -0.2445
  663TIP3    H123480   6.129   4.200  11.757  2.0229 -3.2836 -0.5937
  663TIP3    H223481   6.128   4.165  11.610 -1.1866  0.7696 -1.6312
  664TIP3   OH223482   3.119   0.387  15.033  0.0308 -1.0406  0.4301
  664TIP3    H123483   3.075   0.378  14.948  1.8031 -1.4325 -0.4900
  664TIP3    H223484   3.090   0.471  15.067 -0.6260 -0.8328 -0.6302
  665TIP3   OH223485   1.234   6.036  13.852  0.1916 -0.3047 -0.3316
  665TIP3    H123486   1.184   6.058  13.773  3.4262  0.5338 -2.2404
  665TIP3    H223487   1.266   5.947  13.836 -1.2553 -1.1303  1.2061
  666TIP3   OH223488   5.392   0.971  12.086 -0.3388  0.2353 -0.7514
  666TIP3    H123489   5.304   0.992  12.055 -0.3445 -1.1744 -1.7376
  666TIP3    H223490   5.382   0.890  12.135 -0.0849  1.7164  1.8387
  667TIP3   OH223491   3.436   1.996  10.653  0.4242  0.0336  0.0743
  667TIP3    H123492   3.449   2.090  10.660 -0.8349  0.0436  3.0809
  667TIP3    H223493   3.343   1.983  10.672  0.8432 -1.8866  0.9886
  668TIP3   OH223494   5.867   4.448   5.352 -0.0214 -0.5988  0.7825
  668TIP3    H123495   5.810   4.431   5.427 -1.3393 -0.6036 -0.2057
  668TIP3    H223496   5.956   4.433   5.386 -0.2925  3.0712  3.3489
  669TIP3   OH223497   2.647   1.213   2.587  0.0040 -0.1761 -0.1523
  669TIP3    H123498   2.699   1.241   2.512 -1.0853 -0.7032 -1.1191
  669TIP3    H223499   2.590   1.288   2.605  1.0856  0.4101  0.9202
  670TIP3   OH223500   5.103   3.371  12.085 -0.0364 -0.1251 -0.2585
  670TIP3    H123501   5.089   3.324  12.003  1.1485 -1.8468  0.4771
  670TIP3    H223502   5.154   3.448  12.060 -1.0127  0.1884 -1.3325
  671TIP3   OH223503   5.087   2.151  14.321 -0.1729  0.2005  0.4341
  671TIP3    H123504   5.123   2.210  14.255  1.1709 -1.1310 -0.0730
  671TIP3    H223505   5.024   2.097  14.272  2.1865 -2.0389 -0.2224
  672TIP3   OH223506   4.270   5.262  15.469 -0.1650 -0.1251 -0.2444
  672TIP3    H123507   4.258   5.182  15.519 -0.3712 -0.2841 -0.5427
  672TIP3    H223508   4.183   5.281  15.434  0.2937 -0.8578 -1.8036
  673TIP3   OH223509   4.342   5.838   2.880 -0.5777 -0.0527  0.3266
  673TIP3    H123510   4.268   5.872   2.830 -1.2473 -2.6891 -0.5837
  673TIP3    H223511   4.311   5.834   2.970 -0.3617  2.0187  0.5063
  674TIP3   OH223512   0.466   2.468  13.280 -1.0722 -0.3290 -0.3424
  674TIP3    H123513   0.382   2.511  13.297 -1.0552  0.7444 -2.7845
  674TIP3    H223514   0.521   2.493  13.355 -1.9529  1.5985 -0.3121
  675TIP3   OH223515   6.173   6.386  14.414  0.1552 -0.1580 -0.8296
  675TIP3    H123516   6.142   6.471  14.446 -0.0652 -1.0349  1.4219
  675TIP3    H223517   6.268   6.395  14.409  0.4932 -0.8583  2.9439
  676TIP3   OH223518   1.067   4.768  17.019 -0.3372  0.6275 -0.4116
  676TIP3    H123519   1.142   4.714  16.994  0.8099  2.1012 -0.2409
  676TIP3    H223520   1.045   4.815  16.939 -0.1991  1.2165 -0.1057
  677TIP3   OH223521   2.345   3.112   5.621 -0.2539 -0.6478  0.2130
  677TIP3    H123522   2.424   3.153   5.655 -0.2447  0.2167 -0.8298
  677TIP3    H223523   2.276   3.177   5.634 -0.5155 -0.8456 -0.1697
  678TIP3   OH223524   6.557   6.467   4.288 -0.8140 -0.3832  0.2385
  678TIP3    H123525   6.487   6.405   4.269 -0.2806 -0.4274 -1.7618
  678TIP3    H223526   6.548   6.486   4.381 -2.1750 -1.9812  0.4578
  679TIP3   OH223527   6.341   5.328   5.788  0.1466 -0.1862 -0.0409
  679TIP3    H123528   6.435   5.310   5.781  0.4298  0.9691  0.6290
  679TIP3    H223529   6.299   5.245   5.767  1.3393 -0.9062  0.3827
  680TIP3   OH223530   2.807   5.166  16.088 -0.4063 -0.4987 -0.6518
  680TIP3    H123531   2.745   5.136  16.154 -0.6583  0.2906 -0.5294
  680TIP3    H223532   2.753   5.208  16.021  0.0428  0.7311 -0.2557
  681TIP3   OH223533   3.066   1.476   1.947  0.1681  0.7269 -0.2464
  681TIP3    H123534   3.037   1.520   1.867  1.1292  1.1506 -0.3708
  681TIP3    H223535   3.014   1.396   1.951 -1.7231  1.9413  0.0648
  682TIP3   OH223536   0.174   5.393  13.251 -0.0911 -0.3920 -0.3298
  682TIP3    H123537   0.096   5.373  13.302 -0.5188 -0.2679 -0.9324
  682TIP3    H223538   0.159   5.482  13.217  1.2474  0.4940  1.3110
  683TIP3   OH223539   4.657   6.531  16.189 -0.2665 -0.3725 -0.0685
  683TIP3    H123540   4.676   6.614  16.233 -0.9610  0.1556 -0.7516
  683TIP3    H223541   4.743   6.490  16.177  0.0572  0.1171  0.5208
  684TIP3   OH223542   2.963   3.451  15.219 -0.2149  0.1170 -0.0749
  684TIP3    H123543   3.009   3.386  15.167 -0.4293  0.3493 -0.5527
  684TIP3    H223544   2.896   3.486  15.161 -1.4907 -0.7630  0.8443
  685TIP3   OH223545   2.014   1.253  12.845 -0.2804 -0.2966  0.5451
  685TIP3    H123546   2.068   1.330  12.828  0.0661 -0.5082  0.6820
  685TIP3    H223547   1.958   1.278  12.918 -1.7645  0.6159 -0.8764
  686TIP3   OH223548   2.479   1.965   2.504 -0.5029  0.0548 -0.5506
  686TIP3    H123549   2.550   2.029   2.504 -0.9171  0.5134 -0.4943
  686TIP3    H223550   2.421   1.993   2.575  0.2293 -1.3882  0.6463
  687TIP3   OH223551   2.662   4.693   4.442  0.5974  0.3968  0.3973
  687TIP3    H123552   2.641   4.778   4.403  1.0385  0.3571  0.0699
  687TIP3    H223553   2.595   4.634   4.408 -0.3657  0.8513  1.5016
  688TIP3   OH223554   3.644   5.421  10.962  0.1338  0.0741 -0.1349
  688TIP3    H123555   3.726   5.398  10.917  0.1822 -0.2483  0.1153
  688TIP3    H223556   3.627   5.511  10.935  2.2887  1.2977  2.3113
  689TIP3   OH223557   2.863   5.610   2.022 -0.0404 -0.4665  0.3274
  689TIP3    H123558   2.784   5.596   1.970  0.8960  0.8901 -1.5251
  689TIP3    H223559   2.905   5.524   2.025 -0.6259 -0.7817 -0.2779
  690TIP3   OH223560   3.552   0.981   5.358 -0.2539  0.1075  0.2633
  690TIP3    H123561   3.499   1.032   5.296 -1.1374  0.3893  1.2373
  690TIP3    H223562   3.640   1.016   5.349 -0.6945  1.2578  0.3325
  691TIP3   OH223563   0.803   6.202   2.984  0.0644 -0.2585 -0.1785
  691TIP3    H123564   0.806   6.263   2.910  0.5834  1.8135  1.5132
  691TIP3    H223565   0.728   6.230   3.036 -0.1143 -1.5096  0.2563
  692TIP3   OH223566   4.089   4.848  14.861  0.0887  0.7483 -0.3784
  692TIP3    H123567   4.140   4.873  14.784  2.2438 -1.2576  0.3287
  692TIP3    H223568   4.023   4.788  14.828  1.9211 -1.2486 -0.5039
  693TIP3   OH223569   0.947   3.199   0.995 -0.3542  0.0484  0.4833
  693TIP3    H123570   0.859   3.230   0.970 -0.1476  0.9456  0.8474
  693TIP3    H223571   1.007   3.253   0.944 -0.0103 -0.6157  0.1789
  694TIP3   OH223572   4.292   2.508   0.192 -0.0403 -0.3297 -0.1524
  694TIP3    H123573   4.205   2.477   0.165 -0.3495  2.5086 -2.6430
  694TIP3    H223574   4.305   2.590   0.144  3.0287  0.5682  2.0202
  695TIP3   OH223575   2.484   5.985  11.664 -0.5235 -0.4547  0.5978
  695TIP3    H123576   2.442   5.922  11.606  0.6514  0.1460 -0.9444
  695TIP3    H223577   2.500   5.936  11.745 -2.3728 -1.2400  0.5258
  696TIP3   OH223578   5.064   5.247   5.925  0.6748 -0.0303 -0.6579
  696TIP3    H123579   4.972   5.222   5.933  0.8689 -0.1902  1.4600
  696TIP3    H223580   5.065   5.320   5.863 -0.6534 -1.1800 -2.0637
  697TIP3   OH223581   6.365   1.748  12.736  0.1074  0.6645  0.5123
  697TIP3    H123582   6.363   1.703  12.820  0.3646 -0.0758  0.1217
  697TIP3    H223583   6.457   1.743  12.708 -0.3628 -0.9855 -0.8337
  698TIP3   OH223584   3.391   5.825   0.371 -0.2127 -0.4457  0.8418
  698TIP3    H123585   3.468   5.835   0.427 -0.6052  0.5028  1.2195
  698TIP3    H223586   3.412   5.751   0.314  0.6522 -0.6944  1.4767
  699TIP3   OH223587   1.591   2.548  13.881 -0.7927  0.1390 -0.4661
  699TIP3    H123588   1.640   2.629  13.867 -0.5236 -0.0663 -0.7123
  699TIP3    H223589   1.587   2.506  13.795 -1.2888  0.0902 -0.4208
  700TIP3   OH223590   1.804   3.050   5.162  0.1833  0.8432 -0.2205
  700TIP3    H123591   1.825   3.105   5.087  2.2006  0.5381  0.1014
  700TIP3    H223592   1.853   3.088   5.235 -1.3027  0.7912  0.8286
  701TIP3   OH223593   6.138   2.992   0.299  0.2017 -0.4429 -0.4434
  701TIP3    H123594   6.229   3.019   0.308  0.1095 -0.9972  2.9231
  701TIP3    H223595   6.141   2.897   0.289 -0.0689 -0.8637  2.8898
  702TIP3   OH223596   1.948   3.331  13.470  0.1180  0.2043  0.4404
  702TIP3    H123597   2.034   3.290  13.475 -0.5085 -1.0215  1.3924
  702TIP3    H223598   1.936   3.371  13.557  0.8350  2.6393 -0.5583
  703TIP3   OH223599   5.542   1.220  13.244 -0.2604  0.0488 -0.3452
  703TIP3    H123600   5.589   1.220  13.327 -0.1550  0.7925 -0.4077
  703TIP3    H223601   5.476   1.289  13.253  0.9128  1.3310 -1.5362
  704TIP3   OH223602   5.193   5.169  15.315  0.0118  0.9771  0.1366
  704TIP3    H123603   5.246   5.140  15.389 -1.6178 -0.5686  0.7357
  704TIP3    H223604   5.255   5.175  15.242  0.8780 -1.6303  0.5999
  705TIP3   OH223605   1.009   1.573   3.345  0.0737  0.1641  0.6651
  705TIP3    H123606   1.076   1.535   3.401 -1.3202 -1.5180  1.2493
  705TIP3    H223607   1.002   1.512   3.272 -0.6861  0.4248  0.5199
  706TIP3   OH223608   1.084   0.806  13.112 -0.2693 -0.4748 -0.1873
  706TIP3    H123609   1.117   0.876  13.169 -0.8538  0.3313 -0.8219
  706TIP3    H223610   1.152   0.739  13.114 -0.2430 -0.4045  1.3681
  707TIP3   OH223611   3.097   4.110  12.604 -0.1033 -0.5366 -0.4947
  707TIP3    H123612   3.095   4.112  12.508 -0.4218  0.3958 -0.4788
  707TIP3    H223613   3.157   4.038  12.625  1.2641  0.2995 -1.4082
  708TIP3   OH223614   3.832   2.739   0.467  0.3009 -0.5422 -0.0642
  708TIP3    H123615   3.743   2.720   0.438 -0.0780  0.0010  0.7276
  708TIP3    H223616   3.821   2.790   0.547  1.3291 -1.2578  0.5452
  709TIP3   OH223617   3.536   2.024   1.031  0.3229  0.3230 -0.3175
  709TIP3    H123618   3.496   2.110   1.021 -0.3919  0.1902  1.1886
  709TIP3    H223619   3.624   2.034   0.995 -0.0200  1.4732 -0.8522
  710TIP3   OH223620   5.847   3.997   6.599 -0.3132  0.0780 -0.7166
  710TIP3    H123621   5.930   4.019   6.558 -0.5826  1.3008 -0.6279
  710TIP3    H223622   5.795   4.077   6.593 -1.0271 -0.2893  0.3416
  711TIP3   OH223623   4.647   2.855  16.075  0.2127 -0.1666 -0.0001
  711TIP3    H123624   4.740   2.861  16.097 -0.1861 -0.1311  1.7488
  711TIP3    H223625   4.607   2.933  16.115 -0.6396 -0.4144 -0.3416
  712TIP3   OH223626   1.954   2.146  15.520  0.5436 -0.4199 -0.2986
  712TIP3    H123627   1.978   2.064  15.563 -2.3197 -0.9869  0.3299
  712TIP3    H223628   1.957   2.211  15.589  4.1655  0.3204 -1.0882
  713TIP3   OH223629   6.492   2.304  11.635  0.4293  0.2429  0.2727
  713TIP3    H123630   6.540   2.239  11.687 -1.3271 -0.5317  0.9521
  713TIP3    H223631   6.402   2.299  11.666 -0.2182  1.3408 -1.3207
  714TIP3   OH223632   2.711   4.203  10.887 -0.0271 -0.4409  0.3948
  714TIP3    H123633   2.773   4.132  10.873  0.0119 -0.2026 -0.6956
  714TIP3    H223634   2.765   4.278  10.913  0.1026 -0.3750 -0.0535
  715TIP3   OH223635   2.010   2.272   0.589  0.1114 -0.1786  0.1777
  715TIP3    H123636   1.960   2.223   0.653 -0.0236 -2.0337 -1.3067
  715TIP3    H223637   2.102   2.251   0.608  0.3341  2.2841  2.1386
  716TIP3   OH223638   3.630   0.245   2.004  0.3771  0.0932 -0.3826
  716TIP3    H123639   3.698   0.213   1.946  0.8888  1.6195 -0.6411
  716TIP3    H223640   3.552   0.251   1.949  0.1700 -1.0457 -0.2369
  717TIP3   OH223641   5.389   4.614  12.553  0.0658 -0.5727  0.1068
  717TIP3    H123642   5.302   4.646  12.575  1.2239  0.5140  3.3847
  717TIP3    H223643   5.384   4.519  12.567 -0.7040 -0.5904 -0.2506
  718TIP3   OH223644   1.792   1.514  16.768  0.0514 -0.6267 -0.3976
  718TIP3    H123645   1.884   1.523  16.792 -0.4769 -0.1018  1.5333
  718TIP3    H223646   1.764   1.603  16.746 -0.6104 -0.3579  1.4314
  719TIP3   OH223647   1.550   2.213   0.486  0.0937 -0.4366  0.6619
  719TIP3    H123648   1.630   2.252   0.449 -1.0766  2.6335  1.2285
  719TIP3    H223649   1.521   2.276   0.552 -1.4890 -2.6828  2.1781
  720TIP3   OH223650   1.584   5.969   1.689  0.1430 -0.0285  0.1628
  720TIP3    H123651   1.564   6.058   1.720  0.2852 -0.0709  0.3759
  720TIP3    H223652   1.554   5.968   1.598  2.9851  1.2196 -0.8459
  721TIP3   OH223653   1.404   0.916   5.926  0.3497 -0.0177 -0.7720
  721TIP3    H123654   1.320   0.909   5.881  0.4741 -2.6898 -0.6696
  721TIP3    H223655   1.469   0.913   5.855  0.4264  0.0002 -0.7029
  722TIP3   OH223656   2.287   1.249   0.525  0.2406 -0.0843  0.4327
  722TIP3    H123657   2.192   1.257   0.538  0.0105 -0.2093 -1.0574
  722TIP3    H223658   2.299   1.266   0.431  1.4716 -2.0121  0.2208
  723TIP3   OH223659   1.187   6.111  12.885 -0.2364  0.5786  0.2431
  723TIP3    H123660   1.115   6.173  12.894  0.2749  1.3148 -0.6625
  723TIP3    H223661   1.266   6.165  12.889  0.2505 -0.1475  0.5763
  724TIP3   OH223662   0.393   4.112   3.150 -0.4884  0.3705 -0.3867
  724TIP3    H123663   0.446   4.064   3.215  0.6257  3.1314  0.8047
  724TIP3    H223664   0.312   4.061   3.144  0.6881 -1.7294  0.7386
  725TIP3   OH223665   4.771   6.083   5.339  0.1262 -0.2157 -0.0822
  725TIP3    H123666   4.701   6.071   5.404  0.2617 -1.2629 -0.1112
  725TIP3    H223667   4.730   6.130   5.267 -0.0889  0.7517  0.6649
  726TIP3   OH223668   2.086   1.514   0.295  0.7721  0.3861 -0.4044
  726TIP3    H123669   2.099   1.515   0.200  1.3351 -1.7539 -0.3789
  726TIP3    H223670   2.004   1.562   0.309  0.6546  0.6602 -1.9826
  727TIP3   OH223671   2.076   3.013   5.009 -0.5150 -0.1883 -0.3595
  727TIP3    H123672   1.994   3.060   5.024  0.6354  1.1620  1.9485
  727TIP3    H223673   2.109   3.049   4.926 -1.1335  0.9116 -0.1462
  728TIP3   OH223674   2.382   4.761   0.532  0.2210 -0.4609  0.0578
  728TIP3    H123675   2.309   4.719   0.578 -0.3452  0.2918 -0.1474
  728TIP3    H223676   2.447   4.777   0.601 -0.7027  0.8319  0.6669
  729TIP3   OH223677   1.240   0.627  15.551 -0.0134 -0.1516 -0.6272
  729TIP3    H123678   1.315   0.673  15.588  1.3814 -1.6087 -1.5523
  729TIP3    H223679   1.233   0.547  15.602 -1.5125  0.3737  0.0262
  730TIP3   OH223680   5.191   1.560  14.865  0.4491 -0.1786  0.1154
  730TIP3    H123681   5.107   1.602  14.847  1.0860  0.8626 -0.4562
  730TIP3    H223682   5.237   1.622  14.922  0.0980 -1.5786  1.9800
  731TIP3   OH223683   6.052   6.279   1.191 -0.0733  0.4165 -0.4164
  731TIP3    H123684   6.065   6.355   1.134 -1.2571  0.0655 -1.1529
  731TIP3    H223685   6.092   6.305   1.274  1.0894  1.1742 -1.2000
  732TIP3   OH223686   0.302   6.266   3.605 -0.4774 -0.1018  0.0262
  732TIP3    H123687   0.345   6.226   3.681  1.5812 -0.3150 -1.2348
  732TIP3    H223688   0.284   6.192   3.546 -2.1352  0.0557  0.3184
  733TIP3   OH223689   2.267   1.836   0.440 -0.1401 -0.7610  0.0118
  733TIP3    H123690   2.288   1.748   0.473 -0.4247 -1.4327 -1.5443
  733TIP3    H223691   2.308   1.840   0.354 -0.7357  0.3819 -0.2328
  734TIP3   OH223692   1.570   1.062   6.328 -0.8753  0.5490  0.0540
  734TIP3    H123693   1.544   0.995   6.391  0.1943 -1.1770 -1.2897
  734TIP3    H223694   1.489   1.086   6.284 -1.0170 -1.1979 -0.6923
  735TIP3   OH223695   5.072   1.992   5.344 -0.1259  0.3489 -0.6620
  735TIP3    H123696   5.122   1.911   5.350 -0.5246  0.1268 -0.2960
  735TIP3    H223697   4.984   1.968   5.374 -0.0583  1.0741  0.1327
  736TIP3   OH223698   5.405   3.577  12.528 -0.8460  0.2435  0.0230
  736TIP3    H123699   5.371   3.558  12.615 -1.7557  0.2373 -0.3232
  736TIP3    H223700   5.338   3.634  12.489  0.0718  1.1353 -0.2730
  737TIP3   OH223701   4.275   3.276  17.080  0.4118  0.0643 -0.3805
  737TIP3    H123702   4.219   3.300  17.154  0.3302  1.3067 -0.8355
  737TIP3    H223703   4.253   3.338  17.011  0.8563 -0.7553 -1.2894
  738TIP3   OH223704   5.094   6.071  16.553  0.0613 -0.5930  0.1206
  738TIP3    H123705   5.112   6.149  16.605 -0.4596  0.1194 -0.7628
  738TIP3    H223706   5.011   6.038  16.588  0.7058 -1.2313  1.0592
  739TIP3   OH223707   0.928   2.713   6.207  0.7235 -0.4097  0.4556
  739TIP3    H123708   1.008   2.746   6.247  0.9976  1.4579 -1.5043
  739TIP3    H223709   0.945   2.619   6.192  2.6798  0.0240 -0.2076
  740TIP3   OH223710   2.227   2.101   1.339 -0.2890  0.0851 -0.1988
  740TIP3    H123711   2.132   2.090   1.344 -0.5391  2.1440  0.1640
  740TIP3    H223712   2.243   2.187   1.378  1.5113  0.6800 -2.1434
  741TIP3   OH223713   3.698   4.255   0.977 -0.1973  0.3878  0.1188
  741TIP3    H123714   3.788   4.223   0.970 -0.8486 -2.2657  3.0248
  741TIP3    H223715   3.644   4.176   0.978 -2.5193  1.9237 -0.7140
  742TIP3   OH223716   2.397   3.657   5.925 -0.0561 -0.2464  0.0784
  742TIP3    H123717   2.381   3.745   5.892  0.0365 -0.0918  0.4342
  742TIP3    H223718   2.337   3.648   5.999  1.0999  0.1464  1.0922
  743TIP3   OH223719   6.712   5.818   1.897  0.1132  0.1586  0.1593
  743TIP3    H123720   6.680   5.732   1.871 -1.1202  0.1164  1.7485
  743TIP3    H223721   6.744   5.857   1.816 -2.1657 -0.5948 -1.1464
  744TIP3   OH223722   4.042   2.638   5.090  0.2049 -0.3458 -0.0099
  744TIP3    H123723   4.055   2.546   5.065  1.2372 -0.2699  0.2468
  744TIP3    H223724   3.999   2.633   5.175  0.1054 -0.5895 -0.0720
  745TIP3   OH223725   1.008   5.032   3.786 -0.0294 -0.6204 -0.4008
  745TIP3    H123726   0.995   5.038   3.881  0.2302 -0.4789 -0.3747
  745TIP3    H223727   0.943   4.968   3.757 -0.3593 -0.3878 -0.1778
  746TIP3   OH223728   0.910   5.018   1.828  0.2281 -0.3636 -0.0096
  746TIP3    H123729   0.851   5.057   1.764 -0.2358 -1.3915 -0.2210
  746TIP3    H223730   0.852   4.980   1.895  0.7090  0.8798  1.1458
  747TIP3   OH223731   3.415   6.502  15.297  0.7818  0.5586  0.4854
  747TIP3    H123732   3.453   6.433  15.242  0.2310 -0.3771  1.2448
  747TIP3    H223733   3.478   6.573  15.293  1.3400  0.0368 -0.3716
  748TIP3   OH223734   3.368   6.724   5.877 -0.2238 -0.5147 -0.6325
  748TIP3    H123735   3.377   6.650   5.938  2.3476  1.7180  1.8736
  748TIP3    H223736   3.457   6.757   5.866 -1.4735  3.3321 -0.1855
  749TIP3   OH223737   2.796   3.245   1.397  0.5167 -0.0143 -0.4369
  749TIP3    H123738   2.818   3.183   1.467  1.9302  0.9637  0.0029
  749TIP3    H223739   2.875   3.248   1.342 -0.3153 -0.2088 -1.6586
  750TIP3   OH223740   2.788   6.074  13.248  0.1096 -0.6877 -0.5303
  750TIP3    H123741   2.818   5.985  13.268  2.2701  0.0475 -0.3587
  750TIP3    H223742   2.818   6.089  13.158  1.0357  0.3632 -0.0659
  751TIP3   OH223743   0.321   4.986  11.947  0.0333 -0.0269  0.5319
  751TIP3    H123744   0.359   5.073  11.936  0.1390 -0.2350 -0.8173
  751TIP3    H223745   0.353   4.936  11.872  0.5792 -1.4539  1.6982
  752TIP3   OH223746   3.023   4.303  16.564 -0.8509 -0.7156 -0.4011
  752TIP3    H123747   2.953   4.268  16.619 -0.4623 -2.9211 -1.2573
  752TIP3    H223748   3.097   4.243  16.578  0.3218  0.6091 -0.7843
  753TIP3   OH223749   4.507   3.434  11.076  0.0871 -0.5549  0.5559
  753TIP3    H123750   4.522   3.514  11.027 -0.2530 -0.4317  0.6526
  753TIP3    H223751   4.475   3.371  11.011 -0.3719 -0.3890  0.6169
  754TIP3   OH223752   6.034   3.604  13.928  0.2289  0.2187 -0.6304
  754TIP3    H123753   5.985   3.644  14.000  0.8424  1.1829 -0.7401
  754TIP3    H223754   6.062   3.519  13.963 -2.4894 -0.8593 -0.9657
  755TIP3   OH223755   0.714   2.273  14.914 -0.3600  0.0181 -0.2769
  755TIP3    H123756   0.728   2.300  14.823  0.1857 -0.6529 -0.3985
  755TIP3    H223757   0.758   2.340  14.966  0.2666 -0.1775 -0.5480
  756TIP3   OH223758   3.470   4.211  14.465  0.0062 -0.1071 -0.7466
  756TIP3    H123759   3.393   4.260  14.435  0.8262  1.7202  0.0428
  756TIP3    H223760   3.508   4.266  14.533  1.3962 -1.5199 -0.3537
  757TIP3   OH223761   3.195   5.654  11.737  0.3642 -0.6049  0.1505
  757TIP3    H123762   3.258   5.656  11.809 -0.9625  0.0853  1.3129
  757TIP3    H223763   3.140   5.578  11.755 -0.5919  0.1389  0.4305
  758TIP3   OH223764   2.372   1.646  12.555  0.0442 -0.6742 -0.5719
  758TIP3    H123765   2.379   1.738  12.528 -1.1956 -0.3802  0.0674
  758TIP3    H223766   2.462   1.620  12.574  0.3242  0.6564  0.0222
  759TIP3   OH223767   3.346   1.762  15.708  0.4134 -0.2371  0.0426
  759TIP3    H123768   3.334   1.764  15.613 -2.3401  0.0192  0.3418
  759TIP3    H223769   3.326   1.852  15.736  0.2768 -0.5489  0.9570
  760TIP3   OH223770   5.046   3.060   2.191  0.1880  0.2645 -0.4168
  760TIP3    H123771   5.104   2.988   2.169  0.6407  0.6691 -0.5706
  760TIP3    H223772   5.091   3.106   2.262 -0.1108  0.3699 -0.2969
  761TIP3   OH223773   3.585   3.840   1.257  0.1732 -0.3155 -0.8877
  761TIP3    H123774   3.531   3.764   1.277  0.2275 -0.9662 -3.1662
  761TIP3    H223775   3.584   3.891   1.338 -2.6578 -1.0379 -0.4085
  762TIP3   OH223776   1.316   1.545   4.602  0.0101 -0.1560 -0.0769
  762TIP3    H123777   1.344   1.455   4.617 -0.0258  0.0511  1.2688
  762TIP3    H223778   1.297   1.549   4.508  2.1545 -0.9498 -0.5651
  763TIP3   OH223779   5.632   2.985  10.825 -0.8095 -1.0448  1.1567
  763TIP3    H123780   5.580   3.001  10.746 -1.2331 -0.7101  1.5058
  763TIP3    H223781   5.721   3.011  10.800 -1.3193  1.0401  1.4273
  764TIP3   OH223782   3.159   1.307   1.234  0.1603  0.4618  0.3198
  764TIP3    H123783   3.100   1.334   1.164  0.5695 -1.5089 -0.8157
  764TIP3    H223784   3.123   1.224   1.265  0.5932  0.7837  1.7230
  765TIP3   OH223785   6.563   0.595   4.889 -0.3751  0.0315  0.0884
  765TIP3    H123786   6.542   0.587   4.796  0.9135  1.9805 -0.3985
  765TIP3    H223787   6.480   0.578   4.933 -0.9702 -1.0832 -1.3865
  766TIP3   OH223788   5.679   3.802   4.255 -0.2211 -0.1148  0.7323
  766TIP3    H123789   5.593   3.791   4.296 -0.7334  2.0899  0.3079
  766TIP3    H223790   5.661   3.853   4.177  1.4355 -0.0394  0.3939
  767TIP3   OH223791   0.581   0.772  10.867 -0.3285 -0.1698  0.1606
  767TIP3    H123792   0.591   0.678  10.856 -0.9439 -0.3566  1.1707
  767TIP3    H223793   0.487   0.786  10.874 -0.2151  0.4622  0.5274
  768TIP3   OH223794   1.926   3.831   0.390 -0.2888  0.0979 -0.0057
  768TIP3    H123795   1.955   3.764   0.453 -2.6266  0.8310  1.8941
  768TIP3    H223796   1.913   3.782   0.309  1.6198 -1.0832  0.3573
  769TIP3   OH223797   0.286   2.844   0.052 -0.4275 -0.1389 -0.5603
  769TIP3    H123798   0.240   2.761   0.067 -2.4594  0.9137 -0.7234
  769TIP3    H223799   0.288   2.853  -0.043  1.3213 -0.8187 -0.5914
  770TIP3   OH223800   5.633   0.551   4.270 -0.6077 -0.1279 -0.1899
  770TIP3    H123801   5.593   0.465   4.278 -1.2647  0.2053  0.1836
  770TIP3    H223802   5.590   0.590   4.194 -1.0269  0.2405  0.2276
  771TIP3   OH223803   4.738   0.122  11.089 -0.2542  0.9297  0.7184
  771TIP3    H123804   4.766   0.053  11.029 -0.3591  1.1134  0.4547
  771TIP3    H223805   4.797   0.115  11.164  1.5290  2.3055 -0.4953
  772TIP3   OH223806   2.654   4.815  12.878  0.2589  0.1212 -0.0726
  772TIP3    H123807   2.670   4.909  12.884 -0.0091  0.1023  1.0971
  772TIP3    H223808   2.575   4.801  12.931  1.2387 -0.9847  1.1245
  773TIP3   OH223809   4.712   3.162   5.262 -0.4847  0.2071 -0.2634
  773TIP3    H123810   4.704   3.199   5.349 -1.8796 -0.8499  0.0769
  773TIP3    H223811   4.805   3.141   5.252 -0.7262 -2.0877  1.9821
  774TIP3   OH223812   6.819   0.379  15.682 -0.3376 -0.1668  0.0250
  774TIP3    H123813   6.734   0.400  15.719 -0.1088  0.0708  0.4221
  774TIP3    H223814   6.871   0.348  15.756  0.4729  1.3740  0.1340
  775TIP3   OH223815   3.470   4.386   1.619 -0.2454  0.0547 -0.1771
  775TIP3    H123816   3.404   4.327   1.654  0.9990  0.1840  2.4634
  775TIP3    H223817   3.500   4.437   1.694  1.2761  1.5537 -1.7418
  776TIP3   OH223818   0.018   1.331  15.674 -0.2478 -0.1629  0.5172
  776TIP3    H123819  -0.030   1.256  15.707 -1.2757  1.1222  2.0335
  776TIP3    H223820   0.060   1.368  15.751  0.0829  0.9266 -0.1735
  777TIP3   OH223821   1.159   5.188  17.036 -0.0259 -0.3345 -0.1500
  777TIP3    H123822   1.091   5.252  17.018 -0.9646 -1.9813 -2.7978
  777TIP3    H223823   1.241   5.232  17.013 -0.5643  0.2773 -0.9197
  778TIP3   OH223824   6.688   0.086  14.516  0.6540  0.1287  0.4816
  778TIP3    H123825   6.732   0.114  14.596  1.4577  2.4609 -0.7275
  778TIP3    H223826   6.732   0.004  14.492  1.7867  0.4747  1.3315
  779TIP3   OH223827   4.657   1.262  14.578  0.4100  0.1689 -0.4308
  779TIP3    H123828   4.580   1.249  14.523  0.6025 -0.6899 -0.5044
  779TIP3    H223829   4.715   1.190  14.555  1.0106  0.5079  0.0119
  780TIP3   OH223830   3.233   6.815   2.180 -0.4624 -0.4005 -0.0561
  780TIP3    H123831   3.258   6.741   2.235 -0.9606  0.1263  0.8968
  780TIP3    H223832   3.314   6.840   2.135  0.7979  1.2980  2.9976
  781TIP3   OH223833   2.910   1.942   2.659 -0.2093  0.0609  0.2813
  781TIP3    H123834   2.976   1.989   2.711  0.1671 -1.1686  0.9272
  781TIP3    H223835   2.949   1.856   2.644 -0.6782  0.1146 -1.3327
  782TIP3   OH223836   1.415   3.430   6.080 -0.5005  0.3663  0.6813
  782TIP3    H123837   1.472   3.469   6.014 -0.1945 -0.8368  0.2230
  782TIP3    H223838   1.474   3.397   6.147 -0.6014 -1.1252  0.0754
  783TIP3   OH223839   5.277   0.139   1.983 -0.3054  0.2722  0.3427
  783TIP3    H123840   5.273   0.120   2.077  0.2203  1.6543  0.6589
  783TIP3    H223841   5.246   0.059   1.941  0.3807 -0.7120  1.6690
  784TIP3   OH223842   4.815   3.091   0.200  0.3514  0.0503 -0.1726
  784TIP3    H123843   4.813   3.175   0.153  1.2653 -0.0731 -0.4438
  784TIP3    H223844   4.814   3.025   0.131 -0.4088 -0.1738  0.0415
  785TIP3   OH223845   4.687   6.384  14.354 -0.2365 -0.4433  0.0367
  785TIP3    H123846   4.647   6.442  14.289  0.4373  0.0468  0.0449
  785TIP3    H223847   4.647   6.409  14.437 -1.0828 -1.0552 -0.1840
  786TIP3   OH223848   0.934   4.412   4.168 -0.3872 -0.4264 -0.1295
  786TIP3    H123849   0.980   4.393   4.250 -0.4832 -0.1115 -0.0018
  786TIP3    H223850   0.842   4.420   4.193 -0.2450  1.0723 -0.0362
  787TIP3   OH223851   5.985   2.006  16.308  0.5224 -0.0688  0.0602
  787TIP3    H123852   6.053   2.067  16.284  1.5222 -0.8283  0.8894
  787TIP3    H223853   6.032   1.933  16.349 -0.7537 -0.7451  0.3455
  788TIP3   OH223854   4.993   0.635   3.169  0.2920  0.1218  0.2659
  788TIP3    H123855   5.035   0.689   3.236  0.9739 -0.2680  0.1563
  788TIP3    H223856   5.028   0.547   3.183 -0.8398 -0.2986  0.4536
  789TIP3   OH223857   0.437   0.077  12.574  0.0604  0.5568  0.5266
  789TIP3    H123858   0.532   0.073  12.573  0.0099 -0.9027 -0.2772
  789TIP3    H223859   0.416   0.150  12.516  0.6664 -0.5967 -1.2121
  790TIP3   OH223860   6.018   5.366   5.763 -0.5311  0.2705  0.1243
  790TIP3    H123861   6.007   5.314   5.843  2.7096 -0.2728  0.2887
  790TIP3    H223862   6.105   5.342   5.731 -0.9484  2.0420 -2.4396
  791TIP3   OH223863   0.647   6.363   0.242  0.3208 -0.1781  0.1127
  791TIP3    H123864   0.636   6.332   0.152 -1.7979  0.0065  0.2728
  791TIP3    H223865   0.572   6.327   0.289 -0.1295  2.0257  1.1595
  792TIP3   OH223866   4.141   2.367  10.399 -0.0413  0.9053  0.0180
  792TIP3    H123867   4.235   2.379  10.391  0.0554 -0.1381 -0.4872
  792TIP3    H223868   4.116   2.317  10.321 -1.0782  1.5762 -0.0852
  793TIP3   OH223869   3.249   4.520  15.064  0.0197  0.3365 -0.4148
  793TIP3    H123870   3.335   4.486  15.086 -0.0328 -0.7890 -1.9052
  793TIP3    H223871   3.224   4.574  15.139  1.8398  0.3444  0.1897
  794TIP3   OH223872   6.517   3.109  12.775  1.1495 -0.2917 -0.7637
  794TIP3    H123873   6.546   3.154  12.696  1.0440 -0.0267 -0.6530
  794TIP3    H223874   6.542   3.167  12.846  0.0268  0.1187 -0.6889
  795TIP3   OH223875   6.115   2.491   1.064  0.3513 -0.4813 -0.0129
  795TIP3    H123876   6.183   2.480   1.131  1.3522 -1.6044 -1.1679
  795TIP3    H223877   6.136   2.574   1.022  0.9240 -0.7509 -0.2656
  796TIP3   OH223878   2.909   3.078  16.103  0.5390  0.2704 -0.0094
  796TIP3    H123879   2.935   3.097  16.013  0.2801  0.0685 -0.1303
  796TIP3    H223880   2.956   3.143  16.156 -0.3731  1.2878 -0.4169
  797TIP3   OH223881   5.831   0.541  13.155  0.0858  0.4131  0.0016
  797TIP3    H123882   5.782   0.604  13.208  0.5601 -1.5685  2.9207
  797TIP3    H223883   5.878   0.487  13.219  1.8370 -1.1689 -2.5188
  798TIP3   OH223884   0.165   2.190   5.874  0.1147  0.0311 -0.6250
  798TIP3    H123885   0.222   2.119   5.904 -1.8479 -1.2225  0.1985
  798TIP3    H223886   0.177   2.191   5.779  1.3408 -0.3469 -0.4885
  799TIP3   OH223887   5.281   4.018  16.698 -0.3284 -0.4213  0.5444
  799TIP3    H123888   5.216   4.066  16.646 -1.7396 -1.8719  0.9130
  799TIP3    H223889   5.287   3.933  16.656 -0.0097 -0.9212  1.5810
  800TIP3   OH223890   5.331   0.804   0.443 -0.4682  0.0815  0.5476
  800TIP3    H123891   5.401   0.864   0.469  0.1799 -0.1117 -0.7156
  800TIP3    H223892   5.331   0.736   0.510  0.4353  0.1807  0.6528
  801TIP3   OH223893   3.922   2.662  15.829 -0.5433  0.2948 -0.0092
  801TIP3    H123894   3.986   2.594  15.807 -2.3013 -0.7307 -2.2987
  801TIP3    H223895   3.860   2.618  15.888 -0.5851  0.4829  0.0849
  802TIP3   OH223896   1.842   0.296   0.646  0.5904 -0.3947  0.6609
  802TIP3    H123897   1.831   0.387   0.672 -0.3057 -0.6914  1.3151
  802TIP3    H223898   1.936   0.278   0.659  1.6419  1.6050 -3.2492
  803TIP3   OH223899   2.021   2.373   4.288  0.1028 -0.3165  0.0772
  803TIP3    H123900   1.978   2.396   4.205  0.5880 -0.2327 -0.1515
  803TIP3    H223901   2.113   2.394   4.274  0.3045 -0.9914  0.3875
  804TIP3   OH223902   1.019   5.821   4.297 -0.7184  0.2216 -0.6332
  804TIP3    H123903   1.085   5.792   4.234  0.0665  0.4536  0.0750
  804TIP3    H223904   0.991   5.741   4.341 -0.9168  0.1215 -0.9399
  805TIP3   OH223905   3.477   5.522  15.968 -0.7774  0.2559 -0.7688
  805TIP3    H123906   3.438   5.569  15.894 -2.1847 -0.6189 -0.6014
  805TIP3    H223907   3.494   5.591  16.033 -2.6161  0.6017 -0.6168
  806TIP3   OH223908   6.235   0.023  17.129  0.1967  0.0013  0.1140
  806TIP3    H123909   6.158   0.064  17.168  0.2489 -0.4788  0.7126
  806TIP3    H223910   6.222   0.033  17.035 -0.5638 -0.0221  0.2141
  807TIP3   OH223911   0.728   2.618   3.986 -0.7843  0.3918 -0.4746
  807TIP3    H123912   0.751   2.643   3.896 -0.7126  0.4366 -0.4438
  807TIP3    H223913   0.640   2.583   3.979  0.5948 -3.1854 -1.2194
  808TIP3   OH223914   5.799   3.040   4.215 -0.2585 -0.1449  0.6046
  808TIP3    H123915   5.843   3.098   4.153 -1.7360 -1.3917 -1.6687
  808TIP3    H223916   5.749   3.100   4.271 -1.0971  0.8610 -1.1799
  809TIP3   OH223917   1.903   1.975   3.230 -0.1147 -0.3960  0.0592
  809TIP3    H123918   1.891   1.977   3.325 -0.9194 -0.4293 -0.0393
  809TIP3    H223919   1.843   1.907   3.200 -0.6192  0.3244 -0.5755
  810TIP3   OH223920   5.808   2.362   2.118  0.3853 -0.6887  0.1629
  810TIP3    H123921   5.881   2.403   2.071  0.5244  0.4445  1.3536
  810TIP3    H223922   5.772   2.299   2.055  1.9534 -0.7695 -0.6736
  811TIP3   OH223923   6.712   6.671  16.530 -0.0744  0.2484  0.2960
  811TIP3    H123924   6.656   6.714  16.595  1.6051  0.1452  1.8323
  811TIP3    H223925   6.759   6.604  16.579 -0.1203 -1.0725 -1.3943
  812TIP3   OH223926   3.548   1.009  13.942  0.2771 -0.6884 -0.3261
  812TIP3    H123927   3.613   1.001  13.872  1.7184  2.6589  0.5059
  812TIP3    H223928   3.468   0.973  13.906  1.0637  0.6973 -3.6380
  813TIP3   OH223929   1.350   0.813   0.592  0.3682 -0.2347 -0.4523
  813TIP3    H123930   1.394   0.833   0.510  2.7392 -0.6086  0.7091
  813TIP3    H223931   1.359   0.892   0.645 -0.9413 -0.0839 -0.4248
  814TIP3   OH223932   0.844   5.765   3.500 -0.4756  0.1918  0.1933
  814TIP3    H123933   0.905   5.790   3.430 -1.3932 -1.2877 -1.1695
  814TIP3    H223934   0.763   5.810   3.478 -0.4218  0.6825  0.9863
  815TIP3   OH223935   4.813   2.615   2.814 -0.0841  0.7695  0.0044
  815TIP3    H123936   4.792   2.709   2.811 -0.9609  0.5563 -0.8632
  815TIP3    H223937   4.908   2.612   2.825  0.1326  1.7652 -1.4033
  816TIP3   OH223938   1.055   1.371  12.744 -0.4048  0.2846  0.4724
  816TIP3    H123939   1.017   1.337  12.825  0.9431 -1.1964  0.5053
  816TIP3    H223940   1.001   1.334  12.674  0.8758 -1.7819  0.5233
  817TIP3   OH223941   2.896   0.289  16.333 -0.0635 -0.8202  0.6734
  817TIP3    H123942   2.953   0.305  16.258 -0.0531 -1.5213  0.5281
  817TIP3    H223943   2.831   0.227  16.302 -2.2543  1.6426  0.2189
  818TIP3   OH223944   1.527   4.290  12.008 -0.0617 -0.1976  0.0495
  818TIP3    H123945   1.609   4.251  11.979  2.2914  2.5981  2.6684
  818TIP3    H223946   1.504   4.242  12.088  0.0754  0.3390  0.4095
  819TIP3   OH223947   4.192   1.341   4.872  0.6334 -0.7072 -0.2700
  819TIP3    H123948   4.170   1.360   4.963  2.1682 -0.9807  0.1654
  819TIP3    H223949   4.235   1.256   4.875  0.9182 -0.6008 -1.2272
  820TIP3   OH223950   6.017   6.589   2.379 -0.8732  0.2363  1.0306
  820TIP3    H123951   6.068   6.632   2.311  0.3005  1.1072  2.4350
  820TIP3    H223952   6.079   6.576   2.451 -2.0262 -0.9011  1.8372
  821TIP3   OH223953   1.511   6.548  12.126  0.2381 -0.0794  0.7680
  821TIP3    H123954   1.589   6.534  12.073  0.2935  0.5714  0.6777
  821TIP3    H223955   1.534   6.515  12.213 -0.0141 -1.5984  0.2701
  822TIP3   OH223956   3.269   3.150   3.491  0.2228 -0.2481 -0.2974
  822TIP3    H123957   3.207   3.220   3.511 -0.7074 -1.3388  0.6772
  822TIP3    H223958   3.321   3.184   3.418 -0.5107  1.2747 -0.1233
  823TIP3   OH223959   5.594   3.283  12.904  0.1460  0.3638  0.0768
  823TIP3    H123960   5.545   3.324  12.975 -1.4850 -0.8050 -0.3370
  823TIP3    H223961   5.594   3.190  12.925  1.3942  0.2503 -0.4134
  824TIP3   OH223962   2.970   3.628   4.429  0.1442  0.0726 -0.3594
  824TIP3    H123963   3.004   3.689   4.494 -0.7818 -1.7728  1.9129
  824TIP3    H223964   2.914   3.682   4.373 -0.2404  1.4002  1.2774
  825TIP3   OH223965   3.114   6.141  14.623  0.3638 -0.2680 -0.0247
  825TIP3    H123966   3.177   6.070  14.616  0.6768 -0.1615  1.6359
  825TIP3    H223967   3.035   6.100  14.660  0.4288  0.1736  0.6071
  826TIP3   OH223968   3.468   6.039  12.346 -0.3497 -0.2901  0.7098
  826TIP3    H123969   3.429   6.124  12.364 -1.8756 -0.7045 -0.5120
  826TIP3    H223970   3.561   6.057  12.334 -0.7633  1.3166 -0.2327
  827TIP3   OH223971   1.888   1.690   3.741  0.0251 -0.0801  0.3566
  827TIP3    H123972   1.794   1.706   3.742 -0.1094 -0.8314 -0.1876
  827TIP3    H223973   1.902   1.621   3.806  0.2766  0.4413  0.8597
  828TIP3   OH223974   6.686   5.706   2.487  0.2999  0.0480  0.0267
  828TIP3    H123975   6.637   5.627   2.465 -0.3465  0.8670 -1.5391
  828TIP3    H223976   6.772   5.674   2.514  0.6390 -1.1177 -2.2679
  829TIP3   OH223977   1.739   6.433   2.854  0.0577 -0.1061  0.1724
  829TIP3    H123978   1.682   6.367   2.815 -0.5742  1.5323 -1.7189
  829TIP3    H223979   1.721   6.513   2.805  4.1945  0.3902 -0.7149
  830TIP3   OH223980   6.368   5.058   0.980  0.6261  0.3092 -0.3503
  830TIP3    H123981   6.424   5.089   1.051  2.0102 -1.0198 -0.8151
  830TIP3    H223982   6.286   5.106   0.990  0.3713 -0.7009  2.8556
  831TIP3   OH223983   1.481   5.461  14.856 -0.0057 -0.2027 -1.1709
  831TIP3    H123984   1.504   5.437  14.946  0.6226  0.5869 -1.1154
  831TIP3    H223985   1.388   5.481  14.859 -0.7011 -3.1275 -1.3295
  832TIP3   OH223986   6.531   5.499   5.985 -0.0325 -0.0623  0.5251
  832TIP3    H123987   6.560   5.463   5.901 -0.8924  0.0450  0.1726
  832TIP3    H223988   6.571   5.443   6.051  1.4444  0.4443  0.0715
  833TIP3   OH223989   0.685   4.628   1.336  0.1684 -0.5242 -0.2343
  833TIP3    H123990   0.683   4.692   1.407 -1.6264 -0.7702 -0.0303
  833TIP3    H223991   0.689   4.680   1.256  1.4374 -0.2292  0.0143
  834TIP3   OH223992   0.359   2.463   4.617  0.2430  0.9806 -0.7077
  834TIP3    H123993   0.303   2.511   4.678  0.8093  0.2687  0.3941
  834TIP3    H223994   0.311   2.383   4.598  0.7296  0.5044  0.0086
  835TIP3   OH223995   6.002   3.415   4.259  0.2026 -0.3940 -0.0190
  835TIP3    H123996   5.945   3.364   4.202 -2.0661  0.7275  1.1651
  835TIP3    H223997   6.017   3.359   4.335 -1.1054  0.0901  0.6229
  836TIP3   OH223998   3.062   0.772  12.063  0.4192  0.7171 -0.4550
  836TIP3    H123999   3.112   0.739  12.138  0.3903  1.8106  0.0555
  836TIP3    H224000   3.095   0.723  11.988  1.0570  0.2240  0.1470
  837TIP3   OH224001   6.686   5.814  15.034 -0.5536  0.7338  0.5796
  837TIP3    H124002   6.605   5.816  14.984 -0.5064 -2.1680  0.2503
  837TIP3    H224003   6.756   5.825  14.969 -0.5638 -1.0545  0.2372
  838TIP3   OH224004   2.549   1.513   1.094  0.2364  0.2177 -0.0318
  838TIP3    H124005   2.467   1.465   1.095 -0.0522  0.6552 -1.3169
  838TIP3    H224006   2.612   1.456   1.138  0.3205 -2.0884 -2.9936
  839TIP3   OH224007   1.229   1.368  16.359 -0.7811 -0.2758 -0.2039
  839TIP3    H124008   1.275   1.288  16.385 -0.6030 -0.8697 -2.2356
  839TIP3    H224009   1.283   1.439  16.394  0.4970 -1.0093 -0.6507
  840TIP3   OH224010   2.735   4.846  12.283  0.6249  0.1997  0.7577
  840TIP3    H124011   2.759   4.887  12.366  1.0533 -0.5414  1.0099
  840TIP3    H224012   2.715   4.755  12.306  1.3438 -0.1731 -0.0360
  841TIP3   OH224013   4.397   0.518  13.250 -0.0795  0.0700  0.3010
  841TIP3    H124014   4.349   0.580  13.195 -0.8225  1.0370  1.9697
  841TIP3    H224015   4.480   0.563  13.270  1.0234 -1.0802 -1.5647
  842TIP3   OH224016   0.729   6.024   0.299  0.0804 -0.4816  0.6354
  842TIP3    H124017   0.687   5.990   0.220 -2.7036  2.1077  0.8913
  842TIP3    H224018   0.685   5.980   0.371  0.1676 -0.2689  0.8199
  843TIP3   OH224019   0.844   4.551  11.316  0.0556 -0.5186  0.0566
  843TIP3    H124020   0.832   4.644  11.299  1.0867 -0.3946  0.0046
  843TIP3    H224021   0.914   4.547  11.382  1.3367 -1.3387 -1.3355
  844TIP3   OH224022   4.829   2.432  16.686  0.0513  0.5304  0.4852
  844TIP3    H124023   4.908   2.378  16.681  1.8314  2.9633  1.1807
  844TIP3    H224024   4.848   2.506  16.628 -1.2619  1.7049  1.5205
  845TIP3   OH224025   0.071   0.759   3.179 -0.2936  0.1673 -0.0376
  845TIP3    H124026   0.028   0.712   3.250  2.4937 -0.5621  1.2302
  845TIP3    H224027   0.043   0.713   3.100  0.2378 -1.9336  0.9697
  846TIP3   OH224028   5.196   0.123   5.476 -0.2416 -0.7447 -0.6427
  846TIP3    H124029   5.140   0.127   5.399 -0.0984 -0.2312 -0.7171
  846TIP3    H224030   5.144   0.075   5.540 -0.3230 -1.2567 -1.0881
  847TIP3   OH224031   0.079   4.177   2.219  0.3106  0.2349 -0.2819
  847TIP3    H124032   0.122   4.200   2.137 -0.4367  1.6648 -0.2936
  847TIP3    H224033  -0.014   4.191   2.202 -0.2087 -2.7083 -0.2258
  848TIP3   OH224034   3.739   4.629   6.220  0.2397 -0.4991 -0.3482
  848TIP3    H124035   3.655   4.668   6.245  0.7772 -1.4924  3.4123
  848TIP3    H224036   3.718   4.538   6.201  0.5242 -0.9465  1.3680
  849TIP3   OH224037   1.119   0.532  13.990  0.2133  0.7156 -0.0102
  849TIP3    H124038   1.102   0.516  14.083 -2.1492 -0.3601 -0.5821
  849TIP3    H224039   1.037   0.509  13.947  1.4526  0.6874 -2.4281
  850TIP3   OH224040   1.577   3.239  12.174 -0.8709 -0.5882  0.0527
  850TIP3    H124041   1.525   3.181  12.118 -0.6247  0.0383 -0.8348
  850TIP3    H224042   1.580   3.322  12.126 -1.9027  0.4129  1.6958
  851TIP3   OH224043   0.994   3.316   5.009 -0.1963 -0.4283 -0.7739
  851TIP3    H124044   1.034   3.313   5.096  0.9706 -0.1844 -1.2937
  851TIP3    H224045   0.972   3.408   4.996  1.2569 -0.1516 -1.4424
  852TIP3   OH224046   2.886   4.023  11.908 -0.2518  0.1939 -0.2785
  852TIP3    H124047   2.836   4.078  11.967 -0.1981  0.3184 -0.3505
  852TIP3    H224048   2.821   3.985  11.849 -0.6867 -2.0981  1.5704
  853TIP3   OH224049   6.480   1.927   5.273 -0.2396  0.4181  0.3179
  853TIP3    H124050   6.445   1.875   5.345  0.6266  0.9605  1.1512
  853TIP3    H224051   6.411   1.989   5.251 -1.5266 -1.4933 -1.1110
  854TIP3   OH224052   3.538   4.085  12.113  0.4158  0.0511 -0.8409
  854TIP3    H124053   3.501   4.031  12.183  2.2254  0.6731  0.6623
  854TIP3    H224054   3.555   4.025  12.041  2.5283 -1.4159  0.8518
  855TIP3   OH224055   2.488   5.402   0.614 -0.2698 -0.1589 -0.7318
  855TIP3    H124056   2.578   5.370   0.624 -1.0442 -2.4106 -0.6508
  855TIP3    H224057   2.444   5.334   0.563 -1.7578  1.2788 -1.4102
  856TIP3   OH224058   4.200   2.620   3.398 -0.3062  0.4245  0.4636
  856TIP3    H124059   4.269   2.623   3.331 -0.4737  0.2827  0.2863
  856TIP3    H224060   4.203   2.531   3.432  1.3393  1.1164  2.2746
  857TIP3   OH224061   1.938   2.403  12.585 -0.0715 -0.1481 -0.4392
  857TIP3    H124062   1.872   2.356  12.534  0.1950  0.7332 -1.6240
  857TIP3    H224063   1.893   2.483  12.613  0.2646  0.1056 -0.6223
  858TIP3   OH224064   6.811   1.986   4.046  0.0142  0.2908 -0.1857
  858TIP3    H124065   6.883   2.040   4.078 -0.3036  1.1580 -0.9103
  858TIP3    H224066   6.812   1.999   3.951 -0.0428 -1.0126 -0.3746
  859TIP3   OH224067   0.391   3.230  14.887  0.2646  0.1254 -0.0890
  859TIP3    H124068   0.324   3.162  14.891  0.3345 -0.0400 -1.7947
  859TIP3    H224069   0.453   3.207  14.956  0.1051 -1.3344 -0.4320
  860TIP3   OH224070   4.854   1.626   2.229  0.2842  0.3540  0.1167
  860TIP3    H124071   4.844   1.588   2.317 -0.5279  0.9456  0.2949
  860TIP3    H224072   4.839   1.553   2.169  0.6890 -0.0211  0.4742
  861TIP3   OH224073   0.908   1.951  15.177 -0.1983  0.4866 -0.3343
  861TIP3    H124074   0.949   2.015  15.235  0.1386  0.3508 -0.4164
  861TIP3    H224075   0.944   1.867  15.205 -1.0258  0.2767  0.1029
  862TIP3   OH224076   2.526   6.323   1.533  0.3158 -0.2007  0.5419
  862TIP3    H124077   2.575   6.252   1.491 -0.2630 -0.5721  0.4905
  862TIP3    H224078   2.535   6.397   1.472 -1.2271 -0.9797 -0.6939
  863TIP3   OH224079   2.798   4.247  12.404 -0.0253  0.2342  0.1582
  863TIP3    H124080   2.882   4.271  12.364  0.7964 -0.2405  1.5523
  863TIP3    H224081   2.820   4.226  12.495 -1.8837  1.4875  0.9207
  864TIP3   OH224082   5.729   6.462   3.245 -0.0951  0.5377 -0.2755
  864TIP3    H124083   5.793   6.495   3.183  0.2052  0.9422  0.2463
  864TIP3    H224084   5.737   6.366   3.240  0.1723  0.5778 -0.5973
  865TIP3   OH224085   6.493   4.974  15.429  0.0164  0.3503  0.7096
  865TIP3    H124086   6.402   4.945  15.437  0.1391 -0.5532 -0.9101
  865TIP3    H224087   6.488   5.058  15.384 -0.0845  0.9030  1.7410
  866TIP3   OH224088   6.271   6.384  16.251 -0.0325 -0.2166 -0.1459
  866TIP3    H124089   6.218   6.397  16.329 -0.2072 -1.1776 -0.1049
  866TIP3    H224090   6.256   6.294  16.225  0.0253  0.0875 -1.2969
  867TIP3   OH224091   0.688   0.352   0.505  0.1749  0.4572 -0.2688
  867TIP3    H124092   0.679   0.386   0.595 -0.0117  0.6389 -0.3559
  867TIP3    H224093   0.711   0.429   0.454 -1.9084  0.7700 -0.7631
  868TIP3   OH224094   3.003   3.785  12.454  0.4541 -0.0802 -0.0015
  868TIP3    H124095   3.077   3.823  12.406  0.1425  0.4018 -0.1041
  868TIP3    H224096   3.001   3.693  12.426 -0.5338  0.4975 -1.9361
  869TIP3   OH224097   0.767   3.560   3.677 -0.2087 -0.6800  0.2301
  869TIP3    H124098   0.777   3.539   3.584 -1.3878  0.8906 -0.2771
  869TIP3    H224099   0.742   3.653   3.679 -1.2260 -0.9460  2.0445
  870TIP3   OH224100   5.404   4.645   5.784 -0.5166  0.1561 -0.1110
  870TIP3    H124101   5.477   4.615   5.729 -0.0194  0.1787  0.5301
  870TIP3    H224102   5.328   4.596   5.753 -0.3108  0.4035 -1.0372
  871TIP3   OH224103   0.620   2.054  13.374  0.6669  0.3511 -0.1159
  871TIP3    H124104   0.668   2.080  13.453  0.0604 -0.0435  0.3939
  871TIP3    H224105   0.547   2.001  13.407 -0.4005  1.3305 -0.8256
  872TIP3   OH224106   3.454   1.075  12.208 -0.7697 -0.7170 -0.0744
  872TIP3    H124107   3.506   1.135  12.154  0.9712 -1.0781  1.1506
  872TIP3    H224108   3.488   0.988  12.186 -1.3047 -1.0110  0.2734
  873TIP3   OH224109   6.138   6.227   0.558  0.0027  0.3773  0.3349
  873TIP3    H124110   6.087   6.157   0.517  2.2876 -0.8587 -0.4987
  873TIP3    H224111   6.125   6.215   0.652  1.1446 -1.8439  0.2577
  874TIP3   OH224112   5.269   5.085  13.695  0.4117 -0.0172  0.6997
  874TIP3    H124113   5.298   5.033  13.620  0.2557  0.6531  0.1659
  874TIP3    H224114   5.175   5.096  13.681  0.4367  0.3738  0.8364
  875TIP3   OH224115   6.760   0.370   2.060 -0.2477 -0.4987 -0.1588
  875TIP3    H124116   6.851   0.365   2.029  0.4987  1.1098  1.6151
  875TIP3    H224117   6.762   0.331   2.147 -1.6565 -2.0516 -0.7871
  876TIP3   OH224118   5.202   5.509  11.695  0.0186  0.2739 -0.6509
  876TIP3    H124119   5.242   5.547  11.773 -1.3303  0.8427 -0.2194
  876TIP3    H224120   5.214   5.415  11.704  2.1076  0.4822 -1.0090
  877TIP3   OH224121   0.812   1.995   3.145  0.0532  0.0030 -0.0828
  877TIP3    H124122   0.822   2.022   3.054  1.8831  2.3775  0.7929
  877TIP3    H224123   0.898   2.006   3.184 -1.5249  2.7934  2.9096
  878TIP3   OH224124   1.038   2.952  16.571  0.1030  0.1117 -0.3523
  878TIP3    H124125   1.068   2.868  16.537  0.9925  0.3664 -0.2138
  878TIP3    H224126   1.118   3.003  16.583 -0.1374 -0.0844  2.4240
  879TIP3   OH224127   4.934   1.581  14.732 -0.4978  0.6482  0.0427
  879TIP3    H124128   4.962   1.496  14.697  0.8165  0.5845  1.2112
  879TIP3    H224129   4.861   1.606  14.676 -1.0021 -1.3159 -0.2272
  880TIP3   OH224130   1.303   4.978  12.392  0.9911  0.8524 -0.3832
  880TIP3    H124131   1.229   4.918  12.401 -0.0383  2.4495  2.4677
  880TIP3    H224132   1.313   4.989  12.297 -1.6550 -0.3598 -0.8553
  881TIP3   OH224133   3.241   6.115  13.998 -0.0813  0.1076  0.4357
  881TIP3    H124134   3.273   6.144  13.912 -2.4017 -0.4236 -0.6518
  881TIP3    H224135   3.176   6.181  14.023 -0.8699 -0.8017  0.8331
  882TIP3   OH224136   3.285   1.500   2.912  0.1732 -0.1237 -0.0451
  882TIP3    H124137   3.330   1.557   2.975 -0.6647  0.7631 -0.2415
  882TIP3    H224138   3.349   1.486   2.842  0.5619  0.1618  0.2550
  883TIP3   OH224139   3.520   0.336  12.806  0.1027  0.2508  0.6231
  883TIP3    H124140   3.569   0.314  12.885 -0.6388 -0.5002  0.8712
  883TIP3    H224141   3.431   0.353  12.836  0.5427  3.2232  0.3973
  884TIP3   OH224142   5.880   0.191   2.868  0.3476 -0.0902  0.2296
  884TIP3    H124143   5.854   0.275   2.830  1.0758 -0.0047 -0.0770
  884TIP3    H224144   5.802   0.135   2.856  1.3215 -0.7914 -3.5801
  885TIP3   OH224145   2.804   0.204  13.855 -0.6657  0.0834  0.1635
  885TIP3    H124146   2.856   0.191  13.775  0.7648  1.7378  0.8149
  885TIP3    H224147   2.766   0.117  13.872 -1.9256 -0.0463 -2.9382
  886TIP3   OH224148   1.312   5.573   2.691 -0.0242 -1.1477  0.4318
  886TIP3    H124149   1.281   5.604   2.776 -0.5738  0.8957 -0.4846
  886TIP3    H224150   1.343   5.483   2.707 -0.0878 -0.7630  2.7702
  887TIP3   OH224151   4.379   0.520  14.998 -0.5625 -0.7593 -0.0175
  887TIP3    H124152   4.447   0.582  15.026 -1.2825  0.1440 -0.2473
  887TIP3    H224153   4.375   0.530  14.903 -0.9218 -0.9108 -0.0210
  888TIP3   OH224154   3.690   1.201   1.996  0.1572  0.2212 -0.0562
  888TIP3    H124155   3.658   1.122   1.952  0.5675 -0.3434  0.6355
  888TIP3    H224156   3.642   1.202   2.080  1.8241 -0.5577  0.9270
  889TIP3   OH224157   2.023   4.762  11.763 -0.0141  0.0453 -0.4010
  889TIP3    H124158   2.048   4.804  11.846 -1.3054  1.3325 -0.6448
  889TIP3    H224159   2.106   4.732  11.726  0.8610  1.6531  0.1932
  890TIP3   OH224160   5.980   3.725   6.261 -0.0383  0.4031 -0.0268
  890TIP3    H124161   6.027   3.642   6.268 -0.8836  0.0154  1.0768
  890TIP3    H224162   6.049   3.790   6.244  0.6139 -0.5190 -1.0132
  891TIP3   OH224163   2.813   1.256  13.943  0.0387 -0.1450 -0.1989
  891TIP3    H124164   2.788   1.235  14.033  1.8971 -0.0685  0.3661
  891TIP3    H224165   2.780   1.345  13.929 -0.4958 -0.2575  0.3237
  892TIP3   OH224166   3.607   3.880   1.798  0.5112  0.2155 -0.0438
  892TIP3    H124167   3.637   3.816   1.733 -0.8060  2.3966 -2.8607
  892TIP3    H224168   3.688   3.913   1.838  1.3839 -0.5015 -1.1752
  893TIP3   OH224169   6.709   6.781  15.346  0.2109  0.3400 -0.0447
  893TIP3    H124170   6.666   6.866  15.349  0.1198  0.4288 -2.9153
  893TIP3    H224171   6.638   6.717  15.343  0.2282  0.4211 -3.2181
  894TIP3   OH224172   1.640   1.029   1.386 -0.0894  0.3112  0.0598
  894TIP3    H124173   1.671   1.020   1.476  1.4999 -0.4202 -0.5287
  894TIP3    H224174   1.699   1.095   1.348 -0.3112  0.1072 -0.6318
  895TIP3   OH224175   1.336   1.671  15.881 -0.2295 -0.0756  0.5300
  895TIP3    H124176   1.420   1.704  15.914  0.0271 -0.1764 -0.0277
  895TIP3    H224177   1.360   1.614  15.808 -0.8936  1.3748 -0.8488
  896TIP3   OH224178   1.634   0.199  12.809 -0.5251  0.0536 -0.3203
  896TIP3    H124179   1.595   0.156  12.885 -2.8897  3.3849  0.4582
  896TIP3    H224180   1.576   0.177  12.737 -1.3855  1.3532 -0.0415
  897TIP3   OH224181   4.760   5.674  16.345 -0.2123 -0.3886 -0.3884
  897TIP3    H124182   4.786   5.591  16.385 -0.2308 -1.1182 -1.8636
  897TIP3    H224183   4.705   5.716  16.411  0.0565 -1.3975  0.4960
  898TIP3   OH224184   0.636   1.862  13.797  0.0900  0.3470  0.2244
  898TIP3    H124185   0.716   1.823  13.764 -0.3272 -1.2216  1.0193
  898TIP3    H224186   0.649   1.956  13.788  1.3120  0.0396 -1.2640
  899TIP3   OH224187   0.348   1.875   3.856 -0.1332  0.3635  0.2573
  899TIP3    H124188   0.394   1.959   3.862  0.5123 -0.1013  2.4054
  899TIP3    H224189   0.417   1.810   3.869 -1.1401 -0.3870  2.0588
  900TIP3   OH224190   5.011   2.514   5.543 -0.3170  0.0681  0.3247
  900TIP3    H124191   5.048   2.482   5.460  1.2313  0.2608  0.9146
  900TIP3    H224192   5.029   2.608   5.542 -1.2807  0.2581  0.3933
  901TIP3   OH224193   2.288   6.111   0.068  0.1426 -0.3324 -0.2608
  901TIP3    H124194   2.198   6.115   0.038  0.2846  2.0449 -0.4880
  901TIP3    H224195   2.286   6.053   0.144 -1.9220  1.2526  0.9336
  902TIP3   OH224196   2.170   0.527   2.694  0.1941 -0.2396  0.2036
  902TIP3    H124197   2.182   0.579   2.615  1.8332  1.1024  1.2754
  902TIP3    H224198   2.106   0.577   2.746  0.1931 -0.3651  0.3234
  903TIP3   OH224199   2.726   2.487  14.176  0.1409 -0.6393 -0.2972
  903TIP3    H124200   2.689   2.460  14.092 -0.3778 -1.1513  0.0918
  903TIP3    H224201   2.813   2.446  14.179 -0.3321 -1.6422 -0.0481
  904TIP3   OH224202   3.861   0.556   1.887 -0.0896  0.1531 -0.4430
  904TIP3    H124203   3.865   0.463   1.864  2.6007  0.5419 -1.7648
  904TIP3    H224204   3.860   0.601   1.803 -0.6403  1.3621  0.2038
  905TIP3   OH224205   2.402   4.663  13.654  0.5545  0.4611  0.8351
  905TIP3    H124206   2.451   4.581  13.660 -0.3156  0.0038  1.7278
  905TIP3    H224207   2.468   4.728  13.629  0.8691 -0.8859 -2.0996
  906TIP3   OH224208   5.629   1.626   4.678 -0.8527  0.3945  0.0179
  906TIP3    H124209   5.704   1.589   4.725  0.9187  0.5011 -2.6114
  906TIP3    H224210   5.579   1.550   4.648 -0.8409  0.2833  0.2841
  907TIP3   OH224211   0.795   3.784  16.155  0.3916  0.2546  0.5420
  907TIP3    H124212   0.817   3.775  16.062 -0.6511  0.9671  0.2163
  907TIP3    H224213   0.721   3.724  16.168 -0.3079  1.1209  0.6019
  908TIP3   OH224214   3.484   0.105   0.572  0.1294 -0.3583 -0.0194
  908TIP3    H124215   3.442   0.188   0.551 -1.1822 -1.3019 -1.1779
  908TIP3    H224216   3.545   0.127   0.643 -0.2593  1.5649 -0.2469
  909TIP3   OH224217   0.118   3.072   3.822 -0.3110 -0.0096  0.2793
  909TIP3    H124218   0.092   3.156   3.784 -0.7048 -0.0987  0.3585
  909TIP3    H224219   0.148   3.020   3.748 -2.8142 -0.8505 -0.1610
  910TIP3   OH224220   1.282   2.787   2.767  0.1980 -0.2197  0.3022
  910TIP3    H124221   1.223   2.784   2.691  0.2257 -0.8519  0.3039
  910TIP3    H224222   1.224   2.786   2.842  0.1735  0.3193  0.2904
  911TIP3   OH224223   5.153   4.167  16.348 -0.3331  0.4734  0.4557
  911TIP3    H124224   5.145   4.262  16.343  0.4430  0.5088 -0.1776
  911TIP3    H224225   5.248   4.150  16.346 -0.4540 -0.2973  0.8124
  912TIP3   OH224226   2.467   2.789  13.972  0.1623  0.0305  0.2658
  912TIP3    H124227   2.436   2.808  14.061  0.6407  1.1589  0.1959
  912TIP3    H224228   2.423   2.854  13.917 -0.5072 -0.9658 -0.4034
  913TIP3   OH224229   2.345   2.253  14.862  0.3096 -0.7380 -0.4327
  913TIP3    H124230   2.368   2.339  14.898 -2.2978  0.0909 -0.6411
  913TIP3    H224231   2.384   2.253  14.774  0.6935  0.0535 -0.2711
  914TIP3   OH224232   0.882   5.945   5.012  0.3381 -0.2730  0.2316
  914TIP3    H124233   0.842   6.021   5.054  1.3896  2.1541 -2.9975
  914TIP3    H224234   0.883   5.878   5.080 -3.4014  1.5958  2.2510
  915TIP3   OH224235   1.031   1.571   2.797 -0.0021  0.9230  0.9786
  915TIP3    H124236   1.011   1.486   2.836  0.9537 -0.1931 -0.8665
  915TIP3    H224237   1.120   1.591   2.828 -0.5192  1.6058  2.0154
  916TIP3   OH224238   4.270   6.738   6.040 -0.5272  0.1382 -0.5687
  916TIP3    H124239   4.291   6.644   6.042 -1.1473 -0.0263 -1.3409
  916TIP3    H224240   4.185   6.741   5.996 -0.9931  0.9756  0.3845
  917TIP3   OH224241   3.138   0.321   5.912  0.2236  0.7067  0.5896
  917TIP3    H124242   3.201   0.264   5.956  0.6532  1.6729  1.2367
  917TIP3    H224243   3.181   0.346   5.830  0.4294  0.8764  0.7498
  918TIP3   OH224244   4.758   5.171  16.499 -0.3699  0.7581  0.5138
  918TIP3    H124245   4.667   5.160  16.527 -0.0663 -0.8792  0.9081
  918TIP3    H224246   4.806   5.105  16.549  0.8510  0.8055 -0.5910
  919TIP3   OH224247   4.053   1.141   5.234  0.7695 -0.8873 -0.6366
  919TIP3    H124248   4.120   1.133   5.166  0.2949 -0.7385 -1.1224
  919TIP3    H224249   4.091   1.203   5.297  0.1936  0.9239 -2.0244
  920TIP3   OH224250   5.229   0.229  12.207 -0.0005 -0.7874  0.0483
  920TIP3    H124251   5.134   0.228  12.198 -0.0078  0.7461 -0.1572
  920TIP3    H224252   5.245   0.279  12.286  0.6741 -0.2557 -0.4229
  921TIP3   OH224253   4.795   3.991  12.125  0.2392 -0.8220  0.5279
  921TIP3    H124254   4.759   4.059  12.182 -3.3070 -1.9908 -0.1964
  921TIP3    H224255   4.867   4.035  12.078 -0.5146  1.7573  1.7046
  922TIP3   OH224256   1.496   2.751  12.653  0.5649 -0.3021  0.2902
  922TIP3    H124257   1.572   2.697  12.673  0.0638 -0.9720  0.3831
  922TIP3    H224258   1.445   2.698  12.592  0.7330  0.6056 -0.6617
  923TIP3   OH224259   5.273   0.485  17.244 -0.9261  0.3215  0.2305
  923TIP3    H124260   5.311   0.535  17.315  0.2992 -1.2079  0.6855
  923TIP3    H224261   5.232   0.409  17.286 -1.3657  0.1045 -0.5631
  924TIP3   OH224262   1.969   1.577  15.071 -0.3545 -0.0050 -0.6279
  924TIP3    H124263   1.992   1.648  15.130 -0.4511 -0.2584 -0.2842
  924TIP3    H224264   2.016   1.501  15.105  0.0618 -0.0220 -1.2244
  925TIP3   OH224265   1.063   2.507   2.547  0.4353 -0.4753 -0.4182
  925TIP3    H124266   1.068   2.484   2.454  1.5871 -0.4376 -0.3731
  925TIP3    H224267   1.051   2.602   2.547  0.6543 -0.4462 -0.5314
  926TIP3   OH224268   5.231   4.229  11.039 -0.6315 -0.0678 -0.2279
  926TIP3    H124269   5.264   4.154  10.991 -0.5777 -0.1190 -0.1093
  926TIP3    H224270   5.309   4.277  11.067 -0.6556 -0.1685  0.0172
  927TIP3   OH224271   4.361   2.644  10.709 -0.2164  0.0878 -0.0446
  927TIP3    H124272   4.367   2.733  10.744  2.4918  0.3901 -1.1423
  927TIP3    H224273   4.384   2.588  10.783 -2.1490  0.2465  0.7118
  928TIP3   OH224274   5.630   0.466  16.325 -0.2984  0.0840 -0.0596
  928TIP3    H124275   5.546   0.469  16.280 -0.5303  0.4855  0.3993
  928TIP3    H224276   5.618   0.520  16.403  0.0689 -0.7015  0.5412
  929TIP3   OH224277   1.118   5.840   2.898 -0.3091 -0.3364  0.2850
  929TIP3    H124278   1.188   5.847   2.964  0.1533 -0.3040 -0.2024
  929TIP3    H224279   1.165   5.835   2.815 -0.9540  3.4745 -0.3865
  930TIP3   OH224280   1.986   1.077   4.715  0.0161  0.6044 -0.2263
  930TIP3    H124281   1.924   1.150   4.722 -0.9993 -0.1682 -1.1182
  930TIP3    H224282   1.945   1.016   4.653  0.7672 -0.8081  0.6446
  931TIP3   OH224283   3.013   2.852   3.870 -0.2582  0.1975  0.0170
  931TIP3    H124284   2.922   2.857   3.841 -0.2807 -0.0788  0.0373
  931TIP3    H224285   3.055   2.929   3.831 -0.4479  0.2028 -0.1767
  932TIP3   OH224286   3.011   6.411   0.986  0.5567  0.5199  0.3343
  932TIP3    H124287   3.017   6.319   0.960 -0.2365  0.0154  1.8824
  932TIP3    H224288   2.984   6.408   1.077 -0.7884  2.3183  0.0141
  933TIP3   OH224289   1.101   3.572   3.623 -0.4803  0.0807  0.7093
  933TIP3    H124290   1.082   3.522   3.702  1.2646  0.1755  1.2299
  933TIP3    H224291   1.146   3.651   3.655 -0.2108  0.3651 -0.3366
  934TIP3   OH224292   6.771   2.043   2.793  0.2906 -0.1349  0.4646
  934TIP3    H124293   6.741   1.976   2.855 -0.3939 -1.3797 -1.1925
  934TIP3    H224294   6.825   1.995   2.730 -0.6467  0.7548 -1.0437
  935TIP3   OH224295   5.854   3.882   0.844 -0.5744 -0.0486  0.2259
  935TIP3    H124296   5.771   3.928   0.831 -0.7246 -0.0526  1.1377
  935TIP3    H224297   5.838   3.826   0.920 -0.3420 -1.4938 -0.7783
  936TIP3   OH224298   0.474   3.289  10.526 -0.0384  0.6234 -0.2901
  936TIP3    H124299   0.453   3.358  10.463 -0.5915  2.0185  1.3552
  936TIP3    H224300   0.388   3.257  10.556  0.2161 -0.7445 -1.0030
  937TIP3   OH224301   1.440   0.854   0.338  0.1372 -0.4642  0.1996
  937TIP3    H124302   1.530   0.856   0.306  0.0156 -0.0631 -0.1176
  937TIP3    H224303   1.405   0.771   0.306  0.3066 -0.4918  0.0850
  938TIP3   OH224304   3.104   2.390   2.147  0.1010 -0.2073 -0.4226
  938TIP3    H124305   3.055   2.432   2.218 -2.1470 -0.5827 -1.7096
  938TIP3    H224306   3.177   2.449   2.131 -0.2841  0.7214  1.0896
  939TIP3   OH224307   4.560   6.246   3.139  0.2388 -0.2553  0.1906
  939TIP3    H124308   4.647   6.228   3.102  0.4847 -0.2727  0.7724
  939TIP3    H224309   4.569   6.330   3.183 -0.9091  1.3728 -2.5164
  940TIP3   OH224310   0.098   5.172   4.090 -0.2369 -0.2237 -0.3993
  940TIP3    H124311   0.030   5.193   4.026 -0.4362  1.8244  0.4512
  940TIP3    H224312   0.074   5.085   4.122 -1.0433 -0.5843 -1.9144
  941TIP3   OH224313   6.540   2.744  14.129 -0.2805 -0.4998  0.1313
  941TIP3    H124314   6.623   2.723  14.172 -0.0226  0.0174 -0.1099
  941TIP3    H224315   6.488   2.787  14.196  0.1324  0.3315 -0.0754
  942TIP3   OH224316   1.708   3.117   2.673  0.0880 -0.4079 -0.1316
  942TIP3    H124317   1.689   3.024   2.674  0.2503 -0.4327  0.6627
  942TIP3    H224318   1.705   3.141   2.580 -0.8016 -1.0219 -0.2640
  943TIP3   OH224319   3.734   1.027  13.471  0.4007 -0.1529 -0.3488
  943TIP3    H124320   3.787   0.953  13.442 -0.1335  0.4349 -2.9395
  943TIP3    H224321   3.777   1.104  13.434 -0.6221  0.5935 -0.0191
  944TIP3   OH224322   2.287   5.995  13.552 -0.1112  0.0056 -0.1806
  944TIP3    H124323   2.221   5.926  13.541 -0.7084  0.4774  0.4475
  944TIP3    H224324   2.353   5.974  13.486 -0.0813 -1.4084  0.2764
  945TIP3   OH224325   3.943   3.279   5.878 -0.8876  0.0017  0.1865
  945TIP3    H124326   3.921   3.269   5.785 -1.1791 -1.4382  0.4003
  945TIP3    H224327   3.879   3.343   5.911 -1.1266  0.1138 -0.4758
  946TIP3   OH224328   1.896   0.559  16.071 -0.0902  0.2070 -0.4118
  946TIP3    H124329   1.944   0.595  16.145  0.9830 -0.8395 -0.5803
  946TIP3    H224330   1.948   0.584  15.994 -0.7472  0.5657 -0.7478
  947TIP3   OH224331   4.315   1.009  13.906 -0.4170  0.2421 -0.1021
  947TIP3    H124332   4.356   1.078  13.854 -1.5238  0.6069 -0.4877
  947TIP3    H224333   4.296   1.050  13.990  0.7972 -0.1724  0.3817
  948TIP3   OH224334   6.133   5.149   0.314  0.6327 -0.3041  0.6550
  948TIP3    H124335   6.124   5.148   0.410 -1.2224  2.3013  0.5637
  948TIP3    H224336   6.223   5.179   0.299  0.7103 -0.0572  1.5636
  949TIP3   OH224337   1.746   4.040   0.880  0.2385  0.2104  0.2565
  949TIP3    H124338   1.688   4.115   0.864  0.0213  0.1863  0.9250
  949TIP3    H224339   1.710   3.998   0.958 -0.5291 -1.4833 -0.9904
  950TIP3   OH224340   4.918   0.902  14.564 -0.4876 -0.2845  0.2591
  950TIP3    H124341   4.865   0.829  14.530 -0.3248 -0.6313  0.7428
  950TIP3    H224342   4.855   0.963  14.601 -0.4873 -1.1738  1.7463
  951TIP3   OH224343   3.822   6.604   0.285  0.4525 -0.9301 -0.0114
  951TIP3    H124344   3.836   6.680   0.228 -0.2742 -0.3761  0.5350
  951TIP3    H224345   3.820   6.640   0.373  1.6490 -1.8030  0.3776
  952TIP3   OH224346   0.919   1.189  12.442 -0.0472 -0.4835  0.3321
  952TIP3    H124347   0.905   1.099  12.470 -0.0822 -0.5577  0.0774
  952TIP3    H224348   0.993   1.184  12.382 -1.5433 -0.6978 -1.5452
  953TIP3   OH224349   2.475   1.223  13.952  0.0018 -0.2312  0.6574
  953TIP3    H124350   2.529   1.163  13.901  0.3634  0.2649  0.4547
  953TIP3    H224351   2.385   1.203  13.926  0.1041 -0.8936  0.8187
  954TIP3   OH224352   6.593   1.943  15.484  0.7259 -0.0330  0.3402
  954TIP3    H124353   6.659   2.009  15.503  0.3656  1.0949 -2.0852
  954TIP3    H224354   6.513   1.993  15.470 -0.2290 -1.2413  1.4777
  955TIP3   OH224355   4.495   6.741   2.256  0.1698  0.4145  0.3907
  955TIP3    H124356   4.467   6.651   2.240  0.9713  0.0634  0.9158
  955TIP3    H224357   4.590   6.740   2.240 -0.1422  1.6715 -1.7786
  956TIP3   OH224358   0.617   6.504  17.160  0.2754  0.4074  0.2326
  956TIP3    H124359   0.545   6.542  17.210 -0.6552 -0.5698 -0.3542
  956TIP3    H224360   0.636   6.422  17.204 -0.2233 -0.2264 -0.7287
  957TIP3   OH224361   0.940   0.779  14.194  0.2793  0.1317 -0.3675
  957TIP3    H124362   0.862   0.732  14.224  0.9273 -0.7234  0.0140
  957TIP3    H224363   0.913   0.820  14.112 -0.5545 -0.2022 -0.2673
  958TIP3   OH224364   3.938   4.969  12.816 -0.3915  0.0556  0.3375
  958TIP3    H124365   3.966   5.030  12.884 -1.3271  0.5756  0.2549
  958TIP3    H224366   3.857   4.930  12.850 -0.5349 -0.1280 -0.2064
  959TIP3   OH224367   6.048   6.576   4.112  0.9242 -0.7254 -0.5405
  959TIP3    H124368   6.083   6.524   4.184  0.9288 -0.7395 -0.5530
  959TIP3    H224369   6.035   6.513   4.041  0.2223 -0.8504 -0.3092
  960TIP3   OH224370   2.339   5.075  11.402 -0.7527  0.2094  0.3848
  960TIP3    H124371   2.257   5.027  11.396 -0.2848 -0.5642  0.0729
  960TIP3    H224372   2.395   5.036  11.334  0.0780  0.3060  1.0031
  961TIP3   OH224373   4.309   5.214   0.253  0.3115 -0.4101  0.3385
  961TIP3    H124374   4.331   5.131   0.210  0.2284  0.3985 -1.3004
  961TIP3    H224375   4.214   5.221   0.243  0.2988 -0.1736  0.6115
  962TIP3   OH224376   1.154   6.544   3.582 -0.0208  0.6225 -0.4376
  962TIP3    H124377   1.141   6.543   3.487  0.4687  1.8198 -0.5359
  962TIP3    H224378   1.232   6.599   3.594  0.5361 -0.3728  0.5897
  963TIP3   OH224379   4.340   2.902  10.844  0.5876  0.2349  0.3320
  963TIP3    H124380   4.413   2.964  10.848 -0.0223  1.2475 -2.6999
  963TIP3    H224381   4.266   2.948  10.882  0.6631  0.5883  0.0548
  964TIP3   OH224382   2.896   5.400   2.573 -0.0695  0.0469  0.5508
  964TIP3    H124383   2.982   5.401   2.614 -0.1658 -0.2566  0.7631
  964TIP3    H224384   2.914   5.382   2.480 -0.0540 -2.3190  0.9934
  965TIP3   OH224385   3.541   3.659  12.429 -0.4198 -0.0495  0.3148
  965TIP3    H124386   3.587   3.694  12.506  0.8715 -1.0793  0.0204
  965TIP3    H224387   3.571   3.568  12.422 -0.6017  0.0036 -1.3525
  966TIP3   OH224388   4.820   2.133  12.886 -0.2409 -0.4914 -0.2303
  966TIP3    H124389   4.774   2.050  12.901  0.6392 -1.0786 -0.7393
  966TIP3    H224390   4.818   2.177  12.971 -1.3894 -0.6789 -0.1452
  967TIP3   OH224391   1.313   2.234   1.708  0.2668 -0.1313  0.1005
  967TIP3    H124392   1.334   2.323   1.680  1.0819  0.2046  1.7197
  967TIP3    H224393   1.384   2.210   1.768  1.5177 -2.9001 -2.3855
  968TIP3   OH224394   2.309   4.889  12.323  0.2789 -0.2581  0.0477
  968TIP3    H124395   2.266   4.916  12.405  0.6342 -0.4894  0.3137
  968TIP3    H224396   2.384   4.836  12.352  1.0788  0.6147 -0.3873
  969TIP3   OH224397   5.052   0.240  12.864 -0.0615  0.0166 -0.3041
  969TIP3    H124398   5.128   0.280  12.905  1.0299 -1.6916 -0.6404
  969TIP3    H224399   5.046   0.153  12.903 -2.3132  0.4133  0.3043
  970TIP3   OH224400   0.591   5.433  12.938  0.3995  0.1481  0.4440
  970TIP3    H124401   0.609   5.526  12.931 -0.1813  0.2964  0.9183
  970TIP3    H224402   0.620   5.409  13.026  0.6634 -0.1436  0.2805
  971TIP3   OH224403   6.129   0.174   2.610  0.2200  0.6601 -0.1480
  971TIP3    H124404   6.199   0.238   2.599 -0.3676  1.7106  1.9780
  971TIP3    H224405   6.075   0.209   2.680 -1.3354 -1.1211 -0.4027
  972TIP3   OH224406   6.105   1.030   1.074 -0.5021 -0.5993 -0.9418
  972TIP3    H124407   6.031   0.987   1.117  1.0056  0.3999  2.8310
  972TIP3    H224408   6.175   0.966   1.076 -0.0637 -0.1194 -0.8426
  973TIP3   OH224409   3.117   0.445  14.409 -0.4884 -0.1079 -0.3525
  973TIP3    H124410   3.136   0.354  14.386 -0.9081 -0.3227  0.1619
  973TIP3    H224411   3.022   0.447  14.421 -0.7662  0.8467 -2.4091
  974TIP3   OH224412   3.094   5.300   6.003 -0.5934 -0.6851  0.1741
  974TIP3    H124413   3.117   5.225   6.058  0.0137 -0.3735  0.3539
  974TIP3    H224414   3.000   5.291   5.988 -0.9937 -0.1879  2.1733
  975TIP3   OH224415   1.281   6.697  13.635  0.2006  0.3945 -0.2771
  975TIP3    H124416   1.360   6.718  13.584 -0.1444 -2.2400 -1.9747
  975TIP3    H224417   1.314   6.683  13.724  1.6243 -0.4638 -0.9200
  976TIP3   OH224418   1.911   1.867  16.029 -0.6616 -0.5052  0.2127
  976TIP3    H124419   1.993   1.824  16.052 -0.1850 -0.2232 -0.9243
  976TIP3    H224420   1.936   1.934  15.966 -1.5329  0.8002  1.2394
  977TIP3   OH224421   2.463   2.999   3.663  0.2190 -0.0010 -0.0049
  977TIP3    H124422   2.443   3.092   3.677 -0.9808 -0.2341 -0.1051
  977TIP3    H224423   2.540   2.983   3.717  0.1093  0.9250  0.4424
  978TIP3   OH224424   2.868   1.246  10.478 -0.5237  0.4848 -0.2471
  978TIP3    H124425   2.937   1.181  10.467 -1.1377  0.0670 -1.7700
  978TIP3    H224426   2.803   1.204  10.534  0.6262  1.0368  1.5561
  979TIP3   OH224427   3.875   4.333   6.177 -0.4226 -0.2687 -0.2970
  979TIP3    H124428   3.826   4.372   6.249 -0.3702  0.3965 -0.6177
  979TIP3    H224429   3.944   4.282   6.219  0.7692  1.6399  0.1042
  980TIP3   OH224430   2.178   6.316  11.070  0.4182  0.2140  0.2643
  980TIP3    H124431   2.143   6.398  11.035 -0.0579  0.1397  0.5591
  980TIP3    H224432   2.171   6.326  11.165  1.5875  0.3606  0.3386
  981TIP3   OH224433   5.105   3.605   0.935  0.6070 -0.1035 -0.0994
  981TIP3    H124434   5.098   3.533   0.998 -0.6580 -1.0170 -1.2457
  981TIP3    H224435   5.014   3.629   0.916  1.0309  3.4763  2.1071
  982TIP3   OH224436   3.819   1.506  14.676  0.2294 -0.1863 -0.4066
  982TIP3    H124437   3.780   1.586  14.639 -0.4179  0.1758  1.0256
  982TIP3    H224438   3.864   1.465  14.602 -0.1859  1.0456 -1.3616
  983TIP3   OH224439   5.431   1.987  11.980 -0.8328  0.2386 -0.4202
  983TIP3    H124440   5.420   1.992  12.075  0.6806  0.3401 -0.2308
  983TIP3    H224441   5.372   1.917  11.952 -1.0992  0.0401  0.6238
  984TIP3   OH224442   3.034   4.313  12.955  0.1160  0.2990  0.4255
  984TIP3    H124443   3.096   4.248  12.989 -0.2401  0.1120  0.7174
  984TIP3    H224444   3.088   4.391  12.940  0.5905 -0.1427 -0.1663
  985TIP3   OH224445   1.561   2.168   1.375  0.4575  0.4712 -0.1019
  985TIP3    H124446   1.602   2.129   1.453  3.2372  0.6155 -1.4303
  985TIP3    H224447   1.621   2.146   1.304 -1.2486  1.7050 -1.9485
  986TIP3   OH224448   6.598   2.168   1.040  0.2450 -0.3199  0.2361
  986TIP3    H124449   6.541   2.143   0.968  0.8440  2.4004 -1.2657
  986TIP3    H224450   6.573   2.110   1.112 -0.3371 -3.1264 -2.1244
  987TIP3   OH224451   2.475   6.178   2.866 -0.0925 -0.0684 -0.4255
  987TIP3    H124452   2.526   6.184   2.785  1.2075  2.2388  0.4920
  987TIP3    H224453   2.540   6.156   2.933 -1.2518 -2.5219 -0.0851
  988TIP3   OH224454   4.355   4.191  10.663 -0.0814  0.5328  0.1929
  988TIP3    H124455   4.388   4.137  10.590 -0.1501 -0.0317  0.5728
  988TIP3    H224456   4.384   4.279  10.642 -1.1142  0.5803 -1.1322
  989TIP3   OH224457   2.600   1.362  12.043 -0.1861  0.6709 -0.2572
  989TIP3    H124458   2.582   1.447  12.005  0.3590  0.6180 -0.6429
  989TIP3    H224459   2.633   1.309  11.970 -1.9202 -0.3177 -0.3544
  990TIP3   OH224460   0.801   3.006   0.828  0.6047  0.0294 -0.4233
  990TIP3    H124461   0.829   3.047   0.909  0.4048 -0.8375  0.0888
  990TIP3    H224462   0.773   3.079   0.772  0.7857  0.6256  0.2677
  991TIP3   OH224463   2.322   6.811   0.680  0.6815 -0.1810  0.3946
  991TIP3    H124464   2.230   6.814   0.705  1.2994 -1.1834  2.9275
  991TIP3    H224465   2.341   6.717   0.671  1.4104  0.0262 -0.2973
  992TIP3   OH224466   1.203   0.899   0.835  0.2310 -0.5024 -0.0947
  992TIP3    H124467   1.110   0.883   0.851 -0.1137 -0.0609 -1.5988
  992TIP3    H224468   1.246   0.819   0.864 -0.5571 -0.5393  1.0373
  993TIP3   OH224469   4.392   6.649  16.738  0.1244  0.0827  0.8067
  993TIP3    H124470   4.485   6.666  16.724  0.1635  0.3026  1.3287
  993TIP3    H224471   4.349   6.733  16.722 -0.1456 -0.3450 -0.8303
  994TIP3   OH224472   5.302   3.982  15.343 -0.9496 -0.0858 -0.6522
  994TIP3    H124473   5.250   4.012  15.268 -0.3068 -0.8174 -1.3955
  994TIP3    H224474   5.384   4.030  15.336 -1.3371  0.7326  0.2683
  995TIP3   OH224475   6.206   5.724   1.636  0.0309 -0.0629  0.1375
  995TIP3    H124476   6.254   5.806   1.650 -0.1614  0.1637 -0.4822
  995TIP3    H224477   6.264   5.671   1.581 -0.7771  0.5587 -1.3435
  996TIP3   OH224478   5.246   4.654   3.095  0.3448 -0.4291 -0.2214
  996TIP3    H124479   5.193   4.614   3.164 -0.4134 -0.2544 -0.7027
  996TIP3    H224480   5.302   4.582   3.064  0.6683 -0.5177  0.5409
  997TIP3   OH224481   2.688   0.622   6.477  0.5553  0.1094 -0.0480
  997TIP3    H124482   2.737   0.552   6.433  0.8857 -0.3224  0.9834
  997TIP3    H224483   2.689   0.695   6.416 -0.0925 -0.8983 -1.3026
  998TIP3   OH224484   2.582   2.605   2.450  1.0964  0.0472 -0.0188
  998TIP3    H124485   2.574   2.577   2.358  0.7030 -0.1601  0.0755
  998TIP3    H224486   2.626   2.532   2.494 -1.8074 -1.3735  0.6556
  999TIP3   OH224487   0.549   5.823   4.694  0.5356 -0.0120  0.0935
  999TIP3    H124488   0.475   5.766   4.673 -3.3677  3.9861  2.2353
  999TIP3    H224489   0.550   5.888   4.624  0.6226  1.2427  1.2535
 1000TIP3   OH224490   5.970   5.283   0.719  0.2138 -0.5193  0.0730
 1000TIP3    H124491   5.922   5.200   0.721 -0.5219 -0.0733  2.6310
 1000TIP3    H224492   5.902   5.350   0.725  0.9608  0.1721  1.1605
 1001TIP3   OH224493   3.901   6.766  13.835 -0.0700 -0.4429 -0.1023
 1001TIP3    H124494   3.879   6.723  13.753 -0.3584  1.3607 -1.0063
 1001TIP3    H224495   3.991   6.740  13.854  0.6043  0.5195 -1.9146
 1002TIP3   OH224496   5.594   2.211  15.314  0.6201 -0.5994 -0.4107
 1002TIP3    H124497   5.521   2.150  15.323 -1.1162  1.0669 -2.6308
 1002TIP3    H224498   5.605   2.221  15.220  0.3850  3.0395 -0.1076
 1003TIP3   OH224499   6.649   6.768   3.131 -0.0551  0.0911 -0.3434
 1003TIP3    H124500   6.728   6.756   3.079  0.0527  1.2745 -0.4681
 1003TIP3    H224501   6.600   6.686   3.120  1.0321 -0.5418 -0.4590
 1004TIP3   OH224502   3.979   0.370   3.459  0.2113  0.5063 -0.0968
 1004TIP3    H124503   3.954   0.462   3.470  0.2699  0.3501  1.4802
 1004TIP3    H224504   4.059   0.373   3.407 -0.3669  1.2835 -0.9545
 1005TIP3   OH224505   1.971   6.166   3.183  0.3215 -0.9215  0.2335
 1005TIP3    H124506   1.946   6.254   3.154 -0.7178 -1.3613 -0.1933
 1005TIP3    H224507   2.020   6.129   3.108  2.5664  0.0402  1.1685
 1006TIP3   OH224508   2.863   2.436  11.018  0.4746 -1.0205  0.3879
 1006TIP3    H124509   2.884   2.401  10.931  2.0559 -2.5868  1.3708
 1006TIP3    H224510   2.768   2.447  11.017  0.5795 -0.0307 -1.8916
 1007TIP3   OH224511   6.802   4.092  12.623 -0.1208  0.4527 -0.3803
 1007TIP3    H124512   6.753   4.046  12.555  0.4467 -0.7820  0.0306
 1007TIP3    H224513   6.883   4.120  12.580  1.1547 -2.1098  0.2948
 1008TIP3   OH224514   3.234   0.814  12.795  0.2538  0.2101 -0.3336
 1008TIP3    H124515   3.254   0.743  12.734 -1.2348 -1.0829  0.6275
 1008TIP3    H224516   3.159   0.859  12.756  0.6490  0.7111 -0.5132
 1009TIP3   OH224517   2.408   3.826   1.895  0.8741 -0.0319 -0.2495
 1009TIP3    H124518   2.397   3.886   1.968  2.6368  0.3708 -0.2918
 1009TIP3    H224519   2.330   3.770   1.898  0.7253  0.2372  1.6777
 1010TIP3   OH224520   0.996   1.427  15.306  0.4050 -0.3226  0.5247
 1010TIP3    H124521   1.038   1.423  15.393  1.7949  0.5784 -0.0770
 1010TIP3    H224522   0.994   1.336  15.276  2.0985 -0.3827  0.5137
 1011TIP3   OH224523   4.858   2.419   3.341 -0.1161  0.0243 -0.3847
 1011TIP3    H124524   4.931   2.410   3.402  0.6265 -0.3183 -1.3102
 1011TIP3    H224525   4.895   2.464   3.266 -1.1313  0.8324 -0.4089
 1012TIP3   OH224526   3.908   0.616   3.529  0.2793  0.1876 -0.5412
 1012TIP3    H124527   3.922   0.665   3.448  0.5994  0.6925 -0.1797
 1012TIP3    H224528   3.818   0.638   3.554  0.0585 -0.2481 -0.9497
 1013TIP3   OH224529   2.755   1.089  12.359  0.3403 -0.1953 -0.5819
 1013TIP3    H124530   2.732   1.002  12.393  1.6984  0.1757  1.3461
 1013TIP3    H224531   2.716   1.150  12.421  2.6064  0.4984  0.1923
 1014TIP3   OH224532   3.345   6.813  10.551 -0.0582 -0.2405  0.0627
 1014TIP3    H124533   3.410   6.829  10.483  0.0576 -0.0770  0.2097
 1014TIP3    H224534   3.390   6.836  10.633 -0.8070  1.4151  0.0443
 1015TIP3   OH224535   2.699   6.575   4.999 -0.4374 -0.7042 -0.2543
 1015TIP3    H124536   2.734   6.654   5.040 -0.2944 -0.6488 -0.4813
 1015TIP3    H224537   2.775   6.517   4.992 -0.8237 -1.4085  1.1931
 1016TIP3   OH224538   1.661   2.898  15.874  0.0317 -0.0644 -0.2808
 1016TIP3    H124539   1.611   2.836  15.821 -0.0418  0.5732 -0.9788
 1016TIP3    H224540   1.621   2.983  15.854  0.3118  0.2371  0.4453
 1017TIP3   OH224541   2.568   6.611  17.082 -0.2481 -0.0207  0.5594
 1017TIP3    H124542   2.592   6.702  17.100  0.0838  0.0408 -0.1985
 1017TIP3    H224543   2.472   6.611  17.085 -0.2761  0.5322 -0.2895
 1018TIP3   OH224544   0.895   0.266   0.769  0.2021 -0.4005 -0.2345
 1018TIP3    H124545   0.887   0.357   0.742  2.2021 -0.0102  0.3923
 1018TIP3    H224546   0.907   0.270   0.864 -1.8477 -1.4640  0.0928
 1019TIP3   OH224547   5.803   2.342  15.739  0.1362  0.0452 -0.0742
 1019TIP3    H124548   5.725   2.296  15.771 -1.0245  0.7768 -1.7791
 1019TIP3    H224549   5.876   2.303  15.787 -1.1942 -1.2412  0.9238
 1020TIP3   OH224550   5.711   0.942  14.665  0.2308 -0.5759  0.2453
 1020TIP3    H124551   5.650   0.902  14.728 -1.2265 -0.3652 -0.9885
 1020TIP3    H224552   5.790   0.959  14.716 -1.2235  0.4609  2.2608
 1021TIP3   OH224553   3.312   4.813  13.355  0.2345  0.0008  0.2297
 1021TIP3    H124554   3.237   4.865  13.386 -0.5369 -0.6804 -0.4675
 1021TIP3    H224555   3.383   4.837  13.413 -0.4740  0.8271  0.7730
 1022TIP3   OH224556   1.126   6.717   2.314 -0.2105 -0.4547  0.8544
 1022TIP3    H124557   1.042   6.728   2.268  0.5965  0.9648 -0.3229
 1022TIP3    H224558   1.119   6.777   2.388  0.4817  1.0681 -0.2917
 1023TIP3   OH224559   4.520   3.653  16.978 -0.1641  0.4067  0.2669
 1023TIP3    H124560   4.579   3.579  16.991  1.7758  2.0508  1.1296
 1023TIP3    H224561   4.436   3.623  17.012  0.7438 -1.1828  1.1735
 1024TIP3   OH224562   3.315   0.245   4.674 -0.0492 -0.0496 -0.0044
 1024TIP3    H124563   3.358   0.234   4.589  1.0025 -0.8543  0.6114
 1024TIP3    H224564   3.363   0.317   4.716 -0.1407 -0.0825  0.1581
 1025TIP3   OH224565   1.573   2.817   2.024  0.1616  0.3552  0.5070
 1025TIP3    H124566   1.535   2.767   2.096 -0.5598  1.2415  0.7538
 1025TIP3    H224567   1.622   2.887   2.067  1.5244 -0.3895  0.1749
 1026TIP3   OH224568   6.103   4.989  16.440  0.0313  0.5580  0.0115
 1026TIP3    H124569   6.018   5.002  16.481  0.7511  0.4844  1.5342
 1026TIP3    H224570   6.102   4.899  16.408 -0.2862  0.4053  0.4525
 1027TIP3   OH224571   0.930   0.792  14.496 -0.4987 -0.2664 -0.8250
 1027TIP3    H124572   0.871   0.716  14.504 -0.3606 -0.1643  1.4336
 1027TIP3    H224573   1.002   0.760  14.442 -0.5992 -1.6520 -0.1664
 1028TIP3   OH224574   0.537   4.015   2.245 -0.5851  0.2030 -0.1599
 1028TIP3    H124575   0.532   3.927   2.208 -0.2852  0.3739 -0.6154
 1028TIP3    H224576   0.498   4.007   2.332 -0.2826 -0.4453 -0.0814
 1029TIP3   OH224577   4.571   4.850   5.519 -0.9652  0.3586  0.5376
 1029TIP3    H124578   4.592   4.942   5.536  1.5638  0.0312 -0.5871
 1029TIP3    H224579   4.606   4.803   5.595 -0.5130  0.1248  0.1825
 1030TIP3   OH224580   5.305   6.313   1.161 -0.0518 -0.2660 -0.1830
 1030TIP3    H124581   5.371   6.257   1.201  0.4256  1.0867  0.9586
 1030TIP3    H224582   5.230   6.255   1.145 -0.9056 -0.5303  4.2812
 1031TIP3   OH224583   2.292   3.428  16.651  0.8282 -0.3149 -0.0791
 1031TIP3    H124584   2.209   3.430  16.604  1.1221 -1.8080 -0.7130
 1031TIP3    H224585   2.276   3.477  16.732 -0.3184  0.4007 -0.7315
 1032TIP3   OH224586   6.733   4.650   3.110  0.1149 -0.3503  0.3697
 1032TIP3    H124587   6.755   4.739   3.139 -0.3685  1.0782 -3.2523
 1032TIP3    H224588   6.637   4.649   3.107  0.1343 -0.6156 -0.5340
 1033TIP3   OH224589   3.396   2.969   2.028  0.4688 -0.1547 -0.3774
 1033TIP3    H124590   3.438   3.046   1.992  1.2099 -0.7330 -0.7716
 1033TIP3    H224591   3.406   2.978   2.123 -0.1339  0.6068 -0.3826
 1034TIP3   OH224592   4.766   3.834   5.266  0.1414  0.2012  0.2773
 1034TIP3    H124593   4.725   3.916   5.294 -0.3942  0.2599 -0.6546
 1034TIP3    H224594   4.692   3.779   5.239  0.6383  0.1590 -1.0382
 1035TIP3   OH224595   4.850   5.784   6.090  0.4275  0.0729  0.2627
 1035TIP3    H124596   4.806   5.792   6.006 -0.9804 -0.2980  0.9539
 1035TIP3    H224597   4.868   5.690   6.099  1.4911  0.2426 -0.0836
 1036TIP3   OH224598   2.067   4.055  15.246 -0.1976  0.6087  0.4011
 1036TIP3    H124599   2.109   4.131  15.286  0.5812  0.8041 -0.7711
 1036TIP3    H224600   2.005   4.093  15.184 -0.3258  0.2890  0.3324
 1037TIP3   OH224601   1.316   6.354   5.367 -0.8301 -0.0924  0.4483
 1037TIP3    H124602   1.317   6.285   5.300  0.2733  0.2318  0.1043
 1037TIP3    H224603   1.277   6.313   5.444  0.4977 -1.3378  0.4855
 1038TIP3   OH224604   0.365   6.333   0.327  0.2254  0.0407  0.0768
 1038TIP3    H124605   0.324   6.415   0.301 -1.6626 -0.6380  0.7995
 1038TIP3    H224606   0.325   6.312   0.412 -0.3401 -2.2874 -0.7217
 1039TIP3   OH224607   6.136   0.473   6.512  0.1785 -0.5147 -0.6669
 1039TIP3    H124608   6.096   0.487   6.598 -1.3297 -2.6614 -1.0076
 1039TIP3    H224609   6.199   0.545   6.504 -0.1542  0.1207  1.9269
 1040TIP3   OH224610   6.480   6.760  13.507  0.2062  0.0207 -0.1848
 1040TIP3    H124611   6.548   6.779  13.443 -1.2057 -0.2053 -1.7643
 1040TIP3    H224612   6.460   6.667  13.494 -1.7726  0.5593 -1.0742
 1041TIP3   OH224613   4.277   1.244   3.337 -0.4081 -0.8754 -0.0652
 1041TIP3    H124614   4.238   1.167   3.297 -0.8753  0.7003 -2.7931
 1041TIP3    H224615   4.203   1.298   3.365 -0.1492  0.1231 -1.2664
 1042TIP3   OH224616   1.964   1.915  14.555 -0.3421 -0.1911  0.5031
 1042TIP3    H124617   2.015   1.970  14.614  0.4420 -0.9894  0.5823
 1042TIP3    H224618   1.901   1.974  14.514  1.4384  1.0160 -0.5113
 1043TIP3   OH224619   4.219   2.102   3.314 -0.0579  0.4320 -0.0437
 1043TIP3    H124620   4.239   2.023   3.265  0.0291  0.0963  0.5196
 1043TIP3    H224621   4.125   2.117   3.300  0.1528  0.8558 -1.0400
 1044TIP3   OH224622   6.459   5.000  11.895  0.0774  0.0495 -0.1534
 1044TIP3    H124623   6.497   5.066  11.837  0.0592  0.5955  0.4601
 1044TIP3    H224624   6.364   5.014  11.888  0.0953  0.4444  0.4013
 1045TIP3   OH224625   5.946   3.119   1.717 -0.2033 -0.1216 -0.0678
 1045TIP3    H124626   5.866   3.167   1.737 -0.0839  1.4805 -3.0498
 1045TIP3    H224627   6.017   3.173   1.753 -0.1515  1.4443 -2.3680
 1046TIP3   OH224628   0.809   1.478   3.514  0.2759 -0.0030  0.4231
 1046TIP3    H124629   0.833   1.400   3.465 -0.5855  0.3885 -0.6497
 1046TIP3    H224630   0.856   1.549   3.471 -1.5734  0.5482 -0.7744
 1047TIP3   OH224631   2.586   1.848   1.659 -0.0090  0.2238  0.5240
 1047TIP3    H124632   2.680   1.860   1.643  0.1751 -0.4808  1.0570
 1047TIP3    H224633   2.545   1.864   1.574  0.7042 -0.7178 -0.0019
 1048TIP3   OH224634   0.664   6.122   5.910 -0.2510  0.0161 -0.2902
 1048TIP3    H124635   0.710   6.039   5.927 -1.3281 -0.8754 -1.6525
 1048TIP3    H224636   0.574   6.105   5.938 -0.8371  0.2142 -2.0119
 1049TIP3   OH224637   2.684   5.036   5.030  0.0430  0.1041 -0.2216
 1049TIP3    H124638   2.779   5.030   5.039 -0.0126  0.7143  0.9376
 1049TIP3    H224639   2.656   4.946   5.010  0.9632  0.1496 -1.7196
 1050TIP3   OH224640   5.047   4.483   4.359 -0.5178  0.5186 -0.0141
 1050TIP3    H124641   5.134   4.493   4.321 -0.1760 -1.9399  0.0476
 1050TIP3    H224642   4.992   4.455   4.286 -0.8516  0.2498  0.3411
 1051TIP3   OH224643   6.666   6.108   0.866 -1.2111 -0.4384 -0.4577
 1051TIP3    H124644   6.687   6.173   0.799  1.6846 -1.1123 -0.2679
 1051TIP3    H224645   6.644   6.159   0.943  1.6787  0.3943 -0.1242
 1052TIP3   OH224646   0.235   6.575  12.979 -0.1006 -0.3787  0.3957
 1052TIP3    H124647   0.192   6.598  12.897  1.1975 -1.2757 -0.5721
 1052TIP3    H224648   0.328   6.591  12.963  0.4235 -2.6144  0.9393
 1053TIP3   OH224649   3.563   6.342  14.619 -0.4104  0.1682  0.0026
 1053TIP3    H124650   3.506   6.315  14.547  0.0456  0.9219 -0.6515
 1053TIP3    H224651   3.650   6.346  14.580 -0.5067  2.8547 -0.0027
 1054TIP3   OH224652   3.854   1.197   5.679  0.0665 -0.1254  0.6604
 1054TIP3    H124653   3.796   1.213   5.604 -3.0083 -0.0586  2.9368
 1054TIP3    H224654   3.872   1.284   5.714  1.2627 -0.1813  0.2142
 1055TIP3   OH224655   0.430   6.483  14.537 -0.4983  0.0324  0.6237
 1055TIP3    H124656   0.517   6.480  14.577 -1.0491 -3.1116  1.6863
 1055TIP3    H224657   0.376   6.530  14.601 -0.4696 -1.4847  1.7805
 1056TIP3   OH224658   5.071   5.528  12.264 -0.1012  0.4167 -0.0155
 1056TIP3    H124659   4.985   5.536  12.304 -0.3080  1.1542 -0.6015
 1056TIP3    H224660   5.073   5.440  12.228 -0.2173  0.0333  0.8958
 1057TIP3   OH224661   6.229   3.799   4.454  0.1411 -0.3421 -0.0739
 1057TIP3    H124662   6.289   3.769   4.522  1.0293 -0.8610 -1.0841
 1057TIP3    H224663   6.227   3.729   4.390  1.4187  1.2635 -1.9289
 1058TIP3   OH224664   5.335   0.682  12.676  0.1976  0.7847  1.2509
 1058TIP3    H124665   5.409   0.645  12.628 -1.2731  0.5670 -0.9304
 1058TIP3    H224666   5.301   0.608  12.727  0.0803  0.2929  0.4704
 1059TIP3   OH224667   1.679   4.506  12.010 -0.0567  0.5134  0.1959
 1059TIP3    H124668   1.649   4.582  11.961 -0.8344  0.9319  1.2941
 1059TIP3    H224669   1.599   4.454  12.024  0.5119 -0.6275 -0.7623
 1060TIP3   OH224670   6.591   4.758   1.222  0.5465  0.2766 -0.1126
 1060TIP3    H124671   6.562   4.729   1.135  0.0116 -0.2528  0.2348
 1060TIP3    H224672   6.582   4.680   1.277 -0.2335  0.9246  0.6822
 1061TIP3   OH224673   1.912   6.170  11.386 -0.2197  0.1229  0.4439
 1061TIP3    H124674   1.939   6.160  11.478 -1.0269  0.1467  0.6881
 1061TIP3    H224675   1.934   6.260  11.364  0.5166 -0.0534  0.4286
 1062TIP3   OH224676   1.102   1.896  11.920 -0.1367 -0.1776 -0.1331
 1062TIP3    H124677   1.017   1.876  11.959  0.3181 -1.9949  0.0114
 1062TIP3    H224678   1.083   1.906  11.827 -0.4894 -0.8757 -0.1480
 1063TIP3   OH224679   4.500   0.831   2.523  0.4908  0.1686 -0.2281
 1063TIP3    H124680   4.440   0.771   2.479 -1.3821  0.4975  1.8246
 1063TIP3    H224681   4.459   0.917   2.513  2.1125  0.8517 -1.3245
 1064TIP3   OH224682   2.116   6.811  10.818 -0.3941  0.2615 -0.1353
 1064TIP3    H124683   2.086   6.744  10.756  1.7613 -1.1446  0.2818
 1064TIP3    H224684   2.138   6.886  10.763 -0.0243 -0.4142 -0.9305
 1065TIP3   OH224685   4.138   4.356   0.009 -0.2318  0.2811  0.6558
 1065TIP3    H124686   4.140   4.379   0.102 -0.2084  0.3558  0.6358
 1065TIP3    H224687   4.225   4.379  -0.024 -0.3123  0.4577  0.5655
 1066TIP3   OH224688   2.294   3.824   0.140 -0.6000 -0.2434 -0.3698
 1066TIP3    H124689   2.256   3.742   0.174  0.6978 -0.9201 -0.5419
 1066TIP3    H224690   2.388   3.813   0.151 -0.4910  2.0120  1.3578
 1067TIP3   OH224691   4.323   0.493   4.159  0.6730  0.2383  0.0984
 1067TIP3    H124692   4.323   0.401   4.184 -2.2378 -0.9452 -3.7166
 1067TIP3    H224693   4.306   0.492   4.065  0.6528  4.6800 -0.0546
 1068TIP3   OH224694   6.353   1.296   0.228 -0.2836 -0.0491 -0.3014
 1068TIP3    H124695   6.439   1.281   0.191  1.9527  2.0200  3.6582
 1068TIP3    H224696   6.315   1.366   0.175  0.9490 -0.1600 -1.3383
 1069TIP3   OH224697   6.474   0.277   5.096 -0.1947 -0.4209 -0.4118
 1069TIP3    H124698   6.449   0.355   5.147 -2.3452 -0.7789 -0.8510
 1069TIP3    H224699   6.401   0.216   5.109  0.1030 -1.2435 -2.4200
 1070TIP3   OH224700   4.939   5.528   0.073  0.8092 -0.7959  0.4475
 1070TIP3    H124701   4.982   5.446   0.049 -0.2611 -0.8468 -1.4661
 1070TIP3    H224702   4.951   5.584  -0.004 -1.1172 -0.2489  0.5154
 1071TIP3   OH224703   4.504   0.182  11.734 -0.0336  0.4905  0.7057
 1071TIP3    H124704   4.414   0.215  11.729 -0.0272  0.1809 -2.5882
 1071TIP3    H224705   4.556   0.256  11.764 -1.0858  1.2428  0.6732
 1072TIP3   OH224706   2.225   2.044   4.031 -0.5779  0.2789  0.3828
 1072TIP3    H124707   2.135   2.034   4.060 -0.2726  1.1241  1.7004
 1072TIP3    H224708   2.234   2.137   4.012  0.1491  0.2984  0.7782
 1073TIP3   OH224709   0.497   6.271  13.814 -0.0147  0.2476 -0.0497
 1073TIP3    H124710   0.476   6.218  13.890 -0.6075 -1.4512 -1.3511
 1073TIP3    H224711   0.414   6.277  13.765  0.4410  0.9772 -0.7487
 1074TIP3   OH224712   2.334   5.375  17.005  0.6190  0.0318 -0.3303
 1074TIP3    H124713   2.419   5.349  17.042 -0.0764 -0.4148  0.9469
 1074TIP3    H224714   2.285   5.293  16.998  0.0248  0.3960 -0.4082
 1075TIP3   OH224715   1.297   0.549  13.659  0.4157  0.1979  0.5754
 1075TIP3    H124716   1.320   0.483  13.725  1.7584 -0.5229 -0.5842
 1075TIP3    H224717   1.225   0.599  13.699  0.5360 -0.8615  2.1672
 1076TIP3   OH224718   4.476   1.006   5.888 -0.1967  0.2428  0.2890
 1076TIP3    H124719   4.557   1.009   5.938 -0.4065 -1.9756  0.8597
 1076TIP3    H224720   4.481   0.923   5.840 -2.2681 -0.1217  0.6465
 1077TIP3   OH224721   2.919   3.323   0.888  0.3994 -0.3319 -0.5394
 1077TIP3    H124722   2.884   3.344   0.974  2.2193 -0.5465  0.2873
 1077TIP3    H224723   2.990   3.261   0.905 -0.1486 -1.5048 -2.3240
 1078TIP3   OH224724   1.913   2.872   3.326  0.1658  0.0726  0.1601
 1078TIP3    H124725   1.940   2.873   3.418  0.9113  0.4722 -0.0602
 1078TIP3    H224726   1.964   2.942   3.285  2.1850 -2.1469 -1.2248
 1079TIP3   OH224727   2.455   6.330   5.399  0.0492  0.0558 -0.3415
 1079TIP3    H124728   2.456   6.252   5.344  0.5211  0.2511 -0.6156
 1079TIP3    H224729   2.363   6.354   5.406  0.1475  1.2297 -2.7335
 1080TIP3   OH224730   2.575   1.874  12.739  0.5438  0.3057  0.0998
 1080TIP3    H124731   2.520   1.886  12.662  0.3138  0.3879  0.2778
 1080TIP3    H224732   2.606   1.783  12.733 -1.4901 -0.4848  1.2349
 1081TIP3   OH224733   5.564   5.151  11.211 -0.2584  0.4177  0.1368
 1081TIP3    H124734   5.615   5.207  11.269 -0.4226  1.4687 -0.7130
 1081TIP3    H224735   5.630   5.099  11.164 -0.0199  0.9723 -0.1513
 1082TIP3   OH224736   1.668   1.311  10.538  0.0695 -0.3829 -0.0752
 1082TIP3    H124737   1.757   1.278  10.526 -0.2687 -1.2293 -0.3107
 1082TIP3    H224738   1.612   1.245  10.496 -0.6651  0.1600  0.0350
 1083TIP3   OH224739   3.276   4.923   0.452 -0.3784 -0.3014 -0.0459
 1083TIP3    H124740   3.262   4.854   0.517 -0.4446  0.1838  0.4636
 1083TIP3    H224741   3.191   4.936   0.412 -0.1481 -1.2072 -0.8466
 1084TIP3   OH224742   3.022   2.977   0.694  1.3118  0.2151  0.1693
 1084TIP3    H124743   3.027   2.888   0.657  2.0402  0.3261 -0.0058
 1084TIP3    H224744   2.954   3.020   0.642 -0.0511 -0.6809  1.1988
 1085TIP3   OH224745   6.204   5.076   5.265 -0.4183 -0.1923  0.0858
 1085TIP3    H124746   6.254   5.078   5.184  1.0504  3.8241  0.9430
 1085TIP3    H224747   6.112   5.074   5.237  0.0523  1.9207 -1.7269
 1086TIP3   OH224748   5.212   2.923   2.965 -0.2626  0.2615  0.2281
 1086TIP3    H124749   5.188   2.950   2.876  0.8544 -1.0203 -0.4997
 1086TIP3    H224750   5.139   2.868   2.993 -0.0913 -0.2739 -0.3554
 1087TIP3   OH224751   4.449   0.053   5.239  0.3100  0.2369 -0.0006
 1087TIP3    H124752   4.446   0.070   5.145  0.2499  0.2028 -0.0049
 1087TIP3    H224753   4.541   0.039   5.258  0.3574  0.5541  0.0004
 1088TIP3   OH224754   2.392   2.804   2.011 -0.4155 -0.3830  0.3150
 1088TIP3    H124755   2.334   2.766   1.945  1.3348  0.5592 -1.8471
 1088TIP3    H224756   2.335   2.860   2.064 -2.0353 -1.9365  0.2473
 1089TIP3   OH224757   2.100   0.877   5.825 -0.4138  0.0298 -0.7434
 1089TIP3    H124758   2.044   0.955   5.826 -0.6284 -0.1285 -0.1722
 1089TIP3    H224759   2.177   0.902   5.877 -0.9824 -0.5024  0.3586
 1090TIP3   OH224760   4.697   2.875   2.791  0.0238 -0.0152  0.7301
 1090TIP3    H124761   4.622   2.934   2.805  2.9377  3.7083  1.3452
 1090TIP3    H224762   4.704   2.868   2.696 -1.2751 -0.6761  0.6650
 1091TIP3   OH224763   5.382   1.924   0.139  0.3095  0.6411  0.1767
 1091TIP3    H124764   5.434   1.891   0.212 -1.1895 -0.2640  0.8724
 1091TIP3    H224765   5.351   2.010   0.169  0.9638  0.9434 -0.0197
 1092TIP3   OH224766   0.481   1.871   0.634 -0.7509 -0.5008 -0.4125
 1092TIP3    H124767   0.412   1.806   0.641 -1.4930  0.1292 -1.7555
 1092TIP3    H224768   0.439   1.954   0.653 -0.3205 -0.1333 -1.0410
 1093TIP3   OH224769   5.345   2.352  14.539 -0.2362  0.0323  0.4713
 1093TIP3    H124770   5.254   2.363  14.512 -0.4656  0.1445  1.2818
 1093TIP3    H224771   5.378   2.281  14.483 -0.7977  0.0298  0.1396
 1094TIP3   OH224772   1.628   4.595  15.914 -0.0782  0.0695  0.2398
 1094TIP3    H124773   1.684   4.611  15.838  1.2244  0.5339  1.2965
 1094TIP3    H224774   1.616   4.500  15.914 -0.9150  0.1508 -1.1149
 1095TIP3   OH224775   6.459   3.767  12.711  0.0190  0.2080 -0.1553
 1095TIP3    H124776   6.429   3.825  12.781 -0.7616 -0.3649 -0.0016
 1095TIP3    H224777   6.555   3.768  12.718 -0.0629 -0.4199  1.4196
 1096TIP3   OH224778   1.450   3.692   2.486 -0.1101 -0.8342  0.0561
 1096TIP3    H124779   1.470   3.618   2.427  1.1211 -0.5729  0.1282
 1096TIP3    H224780   1.487   3.666   2.570  1.8060  0.5438 -0.3172
 1097TIP3   OH224781   5.158   0.221   6.250  0.0688 -0.2502  0.0624
 1097TIP3    H124782   5.184   0.135   6.284  0.9266 -0.5080 -1.2180
 1097TIP3    H224783   5.111   0.202   6.169 -1.2565  0.4072  0.6671
 1098TIP3   OH224784   0.778   5.089  15.584  0.1099  0.3967  0.4713
 1098TIP3    H124785   0.793   5.033  15.508 -1.0803  0.9710 -0.2044
 1098TIP3    H224786   0.746   5.171  15.547 -2.9328 -0.1518  1.7225
 1099TIP3   OH224787   5.861   4.687  14.522 -0.0621 -0.3724  0.5983
 1099TIP3    H124788   5.845   4.755  14.587  2.9645 -0.6286  1.7058
 1099TIP3    H224789   5.780   4.636  14.520 -0.2615 -0.3504  4.2182
 1100TIP3   OH224790   0.489   5.303   1.792  0.2685  0.1980 -0.0561
 1100TIP3    H124791   0.434   5.380   1.781 -0.8526 -0.6400 -0.5187
 1100TIP3    H224792   0.540   5.320   1.871 -1.1142  0.7475  0.7400
 1101TIP3   OH224793   2.355   5.497   2.295 -0.2059 -0.5743  0.1374
 1101TIP3    H124794   2.442   5.457   2.287  0.3645  0.6632  0.0170
 1101TIP3    H224795   2.299   5.445   2.238  1.3231  1.0387 -2.9396
 1102TIP3   OH224796   1.996   2.362   5.580  0.6151 -0.1026  0.4611
 1102TIP3    H124797   1.968   2.401   5.664 -0.8587  0.1135 -0.1057
 1102TIP3    H224798   1.940   2.405   5.515  0.7753 -1.3078 -0.4745
 1103TIP3   OH224799   3.599   0.796  15.474 -0.4521 -0.4394 -0.5491
 1103TIP3    H124800   3.520   0.821  15.522 -2.4014 -1.2064 -3.1988
 1103TIP3    H224801   3.650   0.745  15.536 -1.8620  0.4076  1.3478
 1104TIP3   OH224802   5.380   6.681   4.216 -0.9398 -0.1564 -0.2600
 1104TIP3    H124803   5.414   6.598   4.181 -1.5799  0.4122 -2.3269
 1104TIP3    H224804   5.285   6.674   4.207 -1.0184  0.6570 -0.1303
 1105TIP3   OH224805   5.778   3.569  15.288 -0.3544  1.3214  0.2104
 1105TIP3    H124806   5.832   3.640  15.252  1.0994  0.3421  0.4200
 1105TIP3    H224807   5.781   3.582  15.383  1.3157  0.0198  0.3627
 1106TIP3   OH224808   5.071   0.958  13.242  0.1402 -0.2959  0.2446
 1106TIP3    H124809   5.129   0.959  13.318 -0.2511  2.0964  0.5595
 1106TIP3    H224810   5.127   0.983  13.168  0.3565 -1.8935 -0.1598
 1107TIP3   OH224811   3.146   0.607  13.280 -0.0947 -0.9740  0.1151
 1107TIP3    H124812   3.146   0.682  13.220  0.9732 -0.0628  1.2226
 1107TIP3    H224813   3.063   0.562  13.263 -0.6934  0.3950 -0.6521
 1108TIP3   OH224814   0.714   0.091  12.530  0.3755  0.3476 -0.3923
 1108TIP3    H124815   0.770   0.046  12.467 -0.3454 -1.8822  0.5262
 1108TIP3    H224816   0.763   0.088  12.613 -0.1461  0.3176 -0.0834
 1109TIP3   OH224817   5.256   2.214   0.119  0.5397  0.4017  0.3975
 1109TIP3    H124818   5.215   2.252   0.041  0.8811 -0.5023 -0.2318
 1109TIP3    H224819   5.257   2.285   0.183  0.6621  1.2870 -0.5782
 1110TIP3   OH224820   0.289   0.842   0.231 -0.1289 -0.2505 -0.4869
 1110TIP3    H124821   0.335   0.921   0.259  0.4745 -1.4981  2.2169
 1110TIP3    H224822   0.347   0.803   0.166  0.1559  0.8701 -0.9218
 1111TIP3   OH224823   6.757   2.692   5.917  0.4941 -0.4786  0.4469
 1111TIP3    H124824   6.757   2.749   5.994 -3.1429 -0.8078  0.8067
 1111TIP3    H224825   6.827   2.725   5.861  1.0837  1.7737  2.4577
 1112TIP3   OH224826   3.069   2.716   0.343 -0.2397 -0.1314  0.6262
 1112TIP3    H124827   3.135   2.652   0.369  1.2717  1.4751  0.8143
 1112TIP3    H224828   3.081   2.727   0.249 -1.5104 -1.2443  0.3262
 1113TIP3   OH224829   3.412   5.947   5.580 -0.2007  0.5161  0.0441
 1113TIP3    H124830   3.489   5.915   5.533  0.3952  1.5280  0.3142
 1113TIP3    H224831   3.447   6.013   5.640 -1.4227  1.9030 -0.7262
 1114TIP3   OH224832   5.573   6.660   4.405 -0.1200 -0.1388  0.4561
 1114TIP3    H124833   5.498   6.678   4.348  1.8319  2.0628 -1.5074
 1114TIP3    H224834   5.643   6.632   4.346  1.3998  0.4108  1.9342
 1115TIP3   OH224835   4.280   2.299   2.369  0.2469 -0.3720 -0.5215
 1115TIP3    H124836   4.324   2.215   2.356 -0.2925 -0.7163 -0.1654
 1115TIP3    H224837   4.349   2.364   2.364  0.5684 -0.7869 -1.5036
 1116TIP3   OH224838   4.436   2.014   2.373  0.1951  0.0002 -0.1574
 1116TIP3    H124839   4.381   1.988   2.299  0.8448  0.6136 -0.8619
 1116TIP3    H224840   4.489   1.937   2.392 -2.3106 -1.3048  1.8523
 1117TIP3   OH224841   6.354   3.887  11.419  0.1551  0.1050 -0.5693
 1117TIP3    H124842   6.440   3.880  11.378  0.6413  1.2625  0.2165
 1117TIP3    H224843   6.299   3.826  11.371  1.8688 -2.0080  0.0775
 1118TIP3   OH224844   5.116   2.950  16.912 -0.4627 -0.4760  0.5320
 1118TIP3    H124845   5.094   2.964  17.004 -2.4343  0.7120 -0.0670
 1118TIP3    H224846   5.076   2.866  16.890 -1.2672 -0.0703  0.4060
 1119TIP3   OH224847   5.509   0.873  10.769 -0.4067  0.0206  0.5467
 1119TIP3    H124848   5.435   0.842  10.716 -0.9775 -0.2910  1.5083
 1119TIP3    H224849   5.585   0.826  10.735 -0.5443  0.8040 -0.8574
 1120TIP3   OH224850   3.540   3.850  13.969 -0.2718  0.1871 -0.6397
 1120TIP3    H124851   3.631   3.821  13.973  0.1185  1.2731 -1.4699
 1120TIP3    H224852   3.515   3.840  13.878 -1.3012 -1.0096 -0.2458
 1121TIP3   OH224853   6.454   6.674  11.303 -0.1488 -0.2839  0.6554
 1121TIP3    H124854   6.505   6.746  11.266 -1.4068 -0.2310 -1.0369
 1121TIP3    H224855   6.457   6.605  11.236 -2.9325  0.0277  0.1538
 1122TIP3   OH224856   0.246   0.045   3.282  0.1341  0.1607 -0.4219
 1122TIP3    H124857   0.152   0.059   3.296  0.3507  1.1246  0.0844
 1122TIP3    H224858   0.288   0.118   3.326  1.0181  1.2145 -2.9347
 1123TIP3   OH224859   5.544   5.246  14.707  0.2931  0.3874  0.5971
 1123TIP3    H124860   5.551   5.339  14.682  0.0218 -0.1131 -1.4868
 1123TIP3    H224861   5.616   5.232  14.768  0.3642  1.9713  0.8910
 1124TIP3   OH224862   3.657   1.534   0.655 -0.4671 -0.2810 -0.8949
 1124TIP3    H124863   3.614   1.579   0.727  0.1975  0.6521 -1.0673
 1124TIP3    H224864   3.602   1.551   0.579 -1.3981 -1.6266 -0.5283
 1125TIP3   OH224865   3.944   2.554  12.950  0.4067  0.2888 -0.2091
 1125TIP3    H124866   3.997   2.628  12.981  0.4963  0.3448 -0.4968
 1125TIP3    H224867   4.007   2.490  12.919  0.3451 -0.1013  0.4598
 1126TIP3   OH224868   1.507   2.889  16.318  0.1397  0.6929  0.0688
 1126TIP3    H124869   1.555   2.807  16.326  0.1477  0.7615  0.7953
 1126TIP3    H224870   1.571   2.951  16.282 -0.0105  0.2586 -0.9577
 1127TIP3   OH224871   1.522   6.487  16.451  0.1403  0.4162  0.3810
 1127TIP3    H124872   1.487   6.548  16.516 -1.7174  0.3613 -0.5109
 1127TIP3    H224873   1.476   6.405  16.468 -0.9161  0.5943 -1.4090
 1128TIP3   OH224874   4.816   4.831  16.514 -0.5963  0.1674  0.5635
 1128TIP3    H124875   4.902   4.816  16.553  0.2319  3.8787  0.2866
 1128TIP3    H224876   4.835   4.876  16.431 -2.8138  1.1969  0.5845
 1129TIP3   OH224877   5.285   1.293  14.793  0.1684 -0.1613  0.6065
 1129TIP3    H124878   5.375   1.319  14.771 -1.1662  1.1421 -3.6322
 1129TIP3    H224879   5.243   1.374  14.820 -0.6528 -0.1678 -0.6638
 1130TIP3   OH224880   4.993   4.560  16.788 -0.3001  0.3249  0.4216
 1130TIP3    H124881   4.961   4.523  16.705 -0.9689 -2.7496  1.9700
 1130TIP3    H224882   5.088   4.564  16.778 -0.3909  0.1135 -0.5697
 1131TIP3   OH224883   1.837   4.427  17.048 -0.1442 -0.3057 -0.3242
 1131TIP3    H124884   1.837   4.509  16.999 -0.9581  0.0893  0.3385
 1131TIP3    H224885   1.927   4.416  17.078 -0.0029  0.2593 -0.5469
 1132TIP3   OH224886   2.811   2.087  15.486 -0.8168 -0.2445  0.0468
 1132TIP3    H124887   2.790   2.057  15.574 -2.0101  1.2249  0.2862
 1132TIP3    H224888   2.893   2.042  15.464  0.2944  0.4941  2.4831
 1133TIP3   OH224889   1.919   3.805   1.134 -0.1323 -0.1450 -0.2229
 1133TIP3    H124890   1.831   3.804   1.171 -0.6588  0.2113 -1.4195
 1133TIP3    H224891   1.941   3.712   1.123 -0.4617 -0.2334 -0.1489
 1134TIP3   OH224892   6.170   2.620   3.054 -0.2366  0.4704 -0.5650
 1134TIP3    H124893   6.160   2.613   2.959 -0.4842  1.0698 -0.5814
 1134TIP3    H224894   6.102   2.563   3.089 -1.4843  1.8419 -0.7231
 1135TIP3   OH224895   0.837   5.917   2.759  0.2202 -0.3231 -0.2740
 1135TIP3    H124896   0.871   5.843   2.809 -1.0376 -0.9455 -0.3047
 1135TIP3    H224897   0.749   5.932   2.794 -0.7250 -0.8204 -2.3026
 1136TIP3   OH224898   0.139   5.220  12.599  0.0371  0.1460  0.3890
 1136TIP3    H124899   0.149   5.126  12.585  0.2507 -0.1710  2.4889
 1136TIP3    H224900   0.096   5.227  12.684 -1.1461  1.9393 -0.3325
 1137TIP3   OH224901   4.446   4.758   2.456 -0.0572  0.4082  0.3128
 1137TIP3    H124902   4.512   4.693   2.432 -1.0486 -0.7828  0.7762
 1137TIP3    H224903   4.454   4.766   2.551 -0.5000  0.3447  0.3576
 1138TIP3   OH224904   2.333   3.690  17.171  0.4279 -0.5047 -0.0448
 1138TIP3    H124905   2.426   3.693  17.193  0.1596 -0.9533  1.1688
 1138TIP3    H224906   2.288   3.711  17.252 -0.5349  0.0926 -0.7220
 1139TIP3   OH224907   4.583   0.834  13.360 -0.3264  0.3929  0.1093
 1139TIP3    H124908   4.628   0.767  13.413 -1.4913  0.2106  0.8962
 1139TIP3    H224909   4.647   0.861  13.295  0.9429  0.1914  1.2641
 1140TIP3   OH224910   6.216   3.963  14.586 -0.0076 -0.0559 -0.0923
 1140TIP3    H124911   6.261   4.047  14.589 -1.6031  0.7887  2.3990
 1140TIP3    H224912   6.277   3.901  14.626  0.3885  0.3153 -0.1259
 1141TIP3   OH224913   5.479   4.879   0.267  0.1074 -0.0787  0.1212
 1141TIP3    H124914   5.411   4.815   0.245 -1.2547  2.0440 -2.1645
 1141TIP3    H224915   5.488   4.872   0.362 -3.8864  0.0952  0.6322
 1142TIP3   OH224916   1.922   2.711  11.383 -0.5360 -0.0221  0.2539
 1142TIP3    H124917   1.927   2.807  11.387 -0.4401 -0.0793  1.5538
 1142TIP3    H224918   2.005   2.684  11.344 -0.1886  0.3789  0.7092
 1143TIP3   OH224919   4.322   5.278   3.859 -0.5272  0.5617  0.1520
 1143TIP3    H124920   4.291   5.189   3.876  2.6264 -0.9908 -1.7554
 1143TIP3    H224921   4.355   5.308   3.944 -0.0243 -0.7644  0.4344
 1144TIP3   OH224922   4.678   5.127   4.143 -0.1265 -0.0087 -0.1192
 1144TIP3    H124923   4.767   5.095   4.161  0.3701  0.6477 -1.3584
 1144TIP3    H224924   4.681   5.220   4.165 -0.3872  0.1075 -0.5767
 1145TIP3   OH224925   1.769   4.667  15.114  0.3321  0.4039  0.0667
 1145TIP3    H124926   1.842   4.609  15.138 -0.7424 -1.2219 -0.4868
 1145TIP3    H224927   1.711   4.612  15.061 -0.7125  2.0109 -0.5079
 1146TIP3   OH224928   3.518   4.337   1.183 -0.1257 -0.1724  0.2111
 1146TIP3    H124929   3.488   4.252   1.214  0.6307 -0.6682 -0.4110
 1146TIP3    H224930   3.576   4.317   1.110  0.9650  0.8227  0.7968
 1147TIP3   OH224931   1.661   0.487   6.514 -0.0845 -0.3195 -0.0964
 1147TIP3    H124932   1.724   0.555   6.536  0.3911 -0.8724  0.2441
 1147TIP3    H224933   1.681   0.464   6.423  1.3580 -1.7405  0.5669
 1148TIP3   OH224934   1.328   3.810   0.139 -0.1343  0.1931 -0.3433
 1148TIP3    H124935   1.319   3.889   0.086 -2.8332  0.4958  0.5082
 1148TIP3    H224936   1.239   3.790   0.168  0.9311 -1.4448  1.9247
 1149TIP3   OH224937   0.179   4.944  11.674 -0.2454 -0.0573  0.3600
 1149TIP3    H124938   0.193   4.988  11.590 -1.0867 -0.6552 -0.1050
 1149TIP3    H224939   0.164   5.015  11.737  1.5991  0.4484  0.2580
 1150TIP3   OH224940   0.608   5.916   2.538  0.2235  1.0307 -0.3797
 1150TIP3    H124941   0.579   5.940   2.626 -3.2678 -0.1356 -1.1045
 1150TIP3    H224942   0.644   5.828   2.547  2.7617  2.1056  0.3661
 1151TIP3   OH224943   6.432   5.372  15.062  0.0031 -0.3705  0.2382
 1151TIP3    H124944   6.475   5.432  15.123 -0.0513 -1.0490  0.9347
 1151TIP3    H224945   6.439   5.286  15.102 -2.1498 -0.4771  0.4435
 1152TIP3   OH224946   3.339   4.098   4.115  0.5289  0.3467  0.0848
 1152TIP3    H124947   3.308   4.087   4.026 -0.6616 -0.3094  0.5739
 1152TIP3    H224948   3.337   4.010   4.152  0.0820  0.7597  1.0600
 1153TIP3   OH224949   2.116   2.462   0.346 -0.1603 -0.3869  0.1029
 1153TIP3    H124950   2.130   2.368   0.331 -3.2762 -0.8658 -0.2019
 1153TIP3    H224951   2.102   2.470   0.440  0.5516 -0.1372  0.1929
 1154TIP3   OH224952   4.035   4.492  16.946  0.6150  0.4518 -0.3366
 1154TIP3    H124953   4.083   4.411  16.966  0.6062  0.6986  0.7133
 1154TIP3    H224954   4.006   4.481  16.856  0.8756 -0.5914 -0.2986
 1155TIP3   OH224955   2.159   6.058   5.223 -0.2378  0.8322 -0.1789
 1155TIP3    H124956   2.207   6.111   5.287 -2.3216  1.2270  1.1015
 1155TIP3    H224957   2.078   6.107   5.207 -1.5973 -1.3041  0.0226
 1156TIP3   OH224958   0.248   5.000   2.520  0.5377 -0.6711  0.6518
 1156TIP3    H124959   0.313   4.935   2.494  0.1674 -1.0378  0.6576
 1156TIP3    H224960   0.298   5.064   2.572  1.0226 -0.6108  0.1136
 1157TIP3   OH224961   4.630   1.201   5.628  0.2864  0.3094 -0.0849
 1157TIP3    H124962   4.703   1.189   5.689 -0.5969  0.9342  1.0910
 1157TIP3    H224963   4.660   1.271   5.569  1.0467 -0.1426 -0.2431
 1158TIP3   OH224964   5.441   4.837   4.649 -0.9575  0.2491 -0.3308
 1158TIP3    H124965   5.395   4.830   4.732  0.3599  2.3598  0.6465
 1158TIP3    H224966   5.372   4.838   4.582 -1.9979 -1.9427  0.6823
 1159TIP3   OH224967   5.597   1.172   2.215 -0.6954 -0.0093 -0.4109
 1159TIP3    H124968   5.546   1.245   2.179  0.8767  1.5479  0.4130
 1159TIP3    H224969   5.563   1.160   2.303 -0.4552  0.2263 -0.2855
 1160TIP3   OH224970   6.777   4.047   5.174  0.2113  0.5379 -0.0798
 1160TIP3    H124971   6.837   4.109   5.216  0.8628 -0.0121 -0.1967
 1160TIP3    H224972   6.729   4.100   5.111  0.4828  1.0087  0.1048
 1161TIP3   OH224973   4.724   5.418   4.141  0.0152  0.2403  0.1326
 1161TIP3    H124974   4.668   5.491   4.114  0.6169 -0.1743 -2.3488
 1161TIP3    H224975   4.803   5.427   4.089  1.6495 -0.1035  2.4685
 1162TIP3   OH224976   0.510   0.657  13.919 -0.1462  0.3586  0.0495
 1162TIP3    H124977   0.466   0.582  13.959  1.6619  0.7117  2.8751
 1162TIP3    H224978   0.568   0.619  13.853  0.4130 -0.7016  1.1354
 1163TIP3   OH224979   5.127   2.275   2.947  0.1731  0.3242  0.3942
 1163TIP3    H124980   5.072   2.197   2.955  0.6837 -0.1434 -0.4986
 1163TIP3    H224981   5.199   2.260   3.007  0.4020 -0.0122  0.0372
 1164TIP3   OH224982   1.447   4.355  11.181  0.3201 -0.1027  0.3760
 1164TIP3    H124983   1.437   4.337  11.274 -0.3178  1.3988  0.6223
 1164TIP3    H224984   1.435   4.450  11.174  0.3083 -0.2084 -1.2357
 1165TIP3   OH224985   0.194   1.051   6.725 -0.3294 -0.0591  0.3305
 1165TIP3    H124986   0.196   0.989   6.798 -1.0143  0.7829  1.0760
 1165TIP3    H224987   0.128   1.116   6.751  0.0480  0.7215 -0.6507
 1166TIP3   OH224988   0.131   1.360   4.813  0.1366 -0.1214 -0.5805
 1166TIP3    H124989   0.105   1.364   4.905 -0.5896  0.8171 -0.8249
 1166TIP3    H224990   0.223   1.386   4.813  0.4619 -1.2506  0.0156
 1167TIP3   OH224991   6.328   2.534  13.248  0.6125  0.4522  0.0497
 1167TIP3    H124992   6.340   2.614  13.198 -1.7915  0.0211 -1.2436
 1167TIP3    H224993   6.314   2.564  13.338  0.1393  1.4431 -0.3504
 1168TIP3   OH224994   0.264   4.345  15.736 -0.3252  1.0036 -0.3817
 1168TIP3    H124995   0.197   4.413  15.727 -1.4203 -0.0047 -0.0085
 1168TIP3    H224996   0.217   4.270  15.772  1.5639  1.1576  2.5163
 1169TIP3   OH224997   0.657   3.672   2.339  0.1852  0.5016 -0.5555
 1169TIP3    H124998   0.563   3.657   2.332  0.1973  0.6486 -1.0112
 1169TIP3    H224999   0.674   3.672   2.433  0.1328 -2.1367 -0.5088
 1170TIP3   OH225000   1.703   6.746   0.078 -0.2753 -0.0176 -0.3126
 1170TIP3    H125001   1.685   6.654   0.099 -0.9491  0.1007 -0.3483
 1170TIP3    H225002   1.693   6.792   0.161  0.8551 -0.0852 -0.1335
 1171TIP3   OH225003   6.275   4.682   2.247 -0.1358  0.2002 -0.2189
 1171TIP3    H125004   6.343   4.647   2.189 -0.2549 -0.5866  0.1020
 1171TIP3    H225005   6.286   4.777   2.243  2.1034  0.0355  1.1754
 1172TIP3   OH225006   1.884   2.880  12.985  0.6273  0.3256  0.3081
 1172TIP3    H125007   1.914   2.791  12.967 -0.1664  0.2924 -0.8605
 1172TIP3    H225008   1.905   2.929  12.906 -0.7612  0.7145  0.1671
 1173TIP3   OH225009   4.108   3.010   4.687 -0.0418  0.3437  0.1334
 1173TIP3    H125010   4.044   3.018   4.757 -2.1671  1.0186 -1.7965
 1173TIP3    H225011   4.055   3.004   4.607  2.2873  2.2709 -1.6550
 1174TIP3   OH225012   3.625   4.654   5.842  0.4161  0.2000 -0.1904
 1174TIP3    H125013   3.646   4.575   5.893  0.4507  0.9693  0.9878
 1174TIP3    H225014   3.593   4.717   5.906  1.5826  1.5955 -0.9454
 1175TIP3   OH225015   6.728   4.203   4.570  0.1148  0.3797 -0.2798
 1175TIP3    H125016   6.720   4.229   4.478 -0.9651  1.2546  0.0423
 1175TIP3    H225017   6.637   4.200   4.601  0.5765  1.9769  1.2681
 1176TIP3   OH225018   1.721   1.498  14.983 -0.4304 -0.3085  0.0891
 1176TIP3    H125019   1.686   1.577  14.943  1.4306 -1.0433 -3.1154
 1176TIP3    H225020   1.809   1.522  15.011 -0.6053 -0.6911  0.9953
 1177TIP3   OH225021   0.416   3.289   5.279  0.2126  0.2188 -0.0532
 1177TIP3    H125022   0.474   3.347   5.229  0.5370 -0.0656 -0.0115
 1177TIP3    H225023   0.470   3.259   5.352  0.0772 -0.2087 -0.1270
 1178TIP3   OH225024   4.055   4.156  11.928  0.1696 -0.2074 -0.3744
 1178TIP3    H125025   3.993   4.181  11.859 -1.4028  0.4432  1.2151
 1178TIP3    H225026   4.004   4.097  11.985  1.8706 -1.8807 -0.5428
 1179TIP3   OH225027   1.825   2.908   0.716 -0.1027  0.3224 -0.2043
 1179TIP3    H125028   1.877   2.886   0.640 -0.3160 -1.0374  0.0219
 1179TIP3    H225029   1.831   3.003   0.724  0.4179  0.4003 -1.5441
 1180TIP3   OH225030   0.744   1.334  14.095 -0.8527  0.8858  0.2428
 1180TIP3    H125031   0.794   1.360  14.018 -1.1218  0.0371 -0.2172
 1180TIP3    H225032   0.772   1.244  14.113 -0.3064  1.2902  1.5234
 1181TIP3   OH225033   4.487   3.032  13.550 -0.1335  0.0249  0.4314
 1181TIP3    H125034   4.436   3.038  13.469 -1.7519  1.0033  1.4758
 1181TIP3    H225035   4.553   3.100  13.543  0.7695 -0.9579 -0.7515
 1182TIP3   OH225036   5.870   3.615   4.408  0.2246 -0.5687  0.2904
 1182TIP3    H125037   5.803   3.656   4.354  0.1491 -0.6299  0.3368
 1182TIP3    H225038   5.894   3.536   4.360 -0.0578 -0.7795  0.4946
 1183TIP3   OH225039   4.132   2.026  16.091 -0.5044  0.0920  0.0944
 1183TIP3    H125040   4.188   2.102  16.080 -0.4892 -0.0918 -1.2660
 1183TIP3    H225041   4.183   1.953  16.055 -1.6614 -0.0442 -1.3229
 1184TIP3   OH225042   1.046   2.613  13.930  0.3846 -0.8361 -0.4599
 1184TIP3    H125043   1.123   2.626  13.874  0.1768  0.2161 -0.5101
 1184TIP3    H225044   1.077   2.635  14.018  0.3073 -1.0426 -0.3804
 1185TIP3   OH225045   2.656   3.709   4.910 -0.2605  0.3169  0.2795
 1185TIP3    H125046   2.590   3.667   4.855  0.2236  0.7511 -0.6403
 1185TIP3    H225047   2.693   3.638   4.962 -0.0546 -0.2659 -0.6408
 1186TIP3   OH225048   0.306   2.884   5.302 -0.1721  0.1290 -0.4740
 1186TIP3    H125049   0.377   2.941   5.273 -1.5130  2.1262  0.0769
 1186TIP3    H225050   0.260   2.858   5.222 -0.7272  1.4172 -0.5799
 1187TIP3   OH225051   1.855   5.878   1.641  0.9109 -0.2653  0.1959
 1187TIP3    H125052   1.860   5.798   1.692  0.5800  0.9045  2.1177
 1187TIP3    H225053   1.763   5.883   1.612  1.2733 -1.3041 -1.1490
 1188TIP3   OH225054   4.133   2.402  12.797  0.0429 -0.1881  0.1618
 1188TIP3    H125055   4.073   2.334  12.769  1.2067 -1.0873 -0.2018
 1188TIP3    H225056   4.197   2.410  12.726  0.6423  0.3979  0.7438
 1189TIP3   OH225057   0.957   4.033   4.194  0.5522 -0.2455 -0.3586
 1189TIP3    H125058   0.985   4.093   4.125 -0.4044  0.1975 -0.3671
 1189TIP3    H225059   1.033   4.025   4.251  0.9076  0.4521 -0.7248
 1190TIP3   OH225060   1.146   6.420   2.361  0.3933 -0.1856  0.1346
 1190TIP3    H125061   1.185   6.501   2.329  1.3378 -0.1804  1.2383
 1190TIP3    H225062   1.071   6.449   2.413 -0.6740 -0.1566 -1.3875
 1191TIP3   OH225063   6.650   4.541  13.800 -0.5033 -0.0966 -0.6014
 1191TIP3    H125064   6.746   4.539  13.807 -0.5301  1.9441  0.6172
 1191TIP3    H225065   6.624   4.449  13.800  1.3529 -0.6476  0.6711
 1192TIP3   OH225066   2.327   3.107   2.871  0.6099  0.1919  0.2676
 1192TIP3    H125067   2.308   3.185   2.923  0.5310  1.1829 -1.2017
 1192TIP3    H225068   2.408   3.072   2.908  1.9113  2.2843 -0.4785
 1193TIP3   OH225069   0.208   2.419  14.409  0.2924  0.2265 -0.4023
 1193TIP3    H125070   0.192   2.370  14.328 -0.0416  1.6114 -1.1910
 1193TIP3    H225071   0.187   2.510  14.386  0.7401  0.7114  1.0848
 1194TIP3   OH225072   0.167   4.403  17.286  0.3603  0.2591 -0.2834
 1194TIP3    H125073   0.247   4.350  17.277 -0.6360 -0.8912 -2.7309
 1194TIP3    H225074   0.097   4.345  17.257 -1.4777  1.0438  2.4372
 1195TIP3   OH225075   3.372   2.705   2.278  0.4902 -0.0601  0.2166
 1195TIP3    H125076   3.381   2.658   2.361 -1.0377 -0.5695  0.1122
 1195TIP3    H225077   3.363   2.636   2.212  1.2198  0.3508 -0.3238
 1196TIP3   OH225078   4.845   5.596  11.284  0.1341  0.1482  0.0934
 1196TIP3    H125079   4.819   5.667  11.343  2.4139 -0.2594  1.6573
 1196TIP3    H225080   4.822   5.516  11.332  1.4904 -0.1827  0.1947
 1197TIP3   OH225081   5.649   0.495   3.460 -0.2119  0.3334 -0.4667
 1197TIP3    H125082   5.636   0.549   3.382 -2.1385  0.4079 -0.1053
 1197TIP3    H225083   5.707   0.547   3.516  0.2138  0.7908 -1.3215
 1198TIP3   OH225084   4.618   6.094  13.380  0.2332  0.4464 -0.2193
 1198TIP3    H125085   4.619   6.061  13.290  1.2496 -0.9006  0.2700
 1198TIP3    H225086   4.540   6.054  13.418  1.3863 -1.3351  0.3322
 1199TIP3   OH225087   6.516   1.342   1.361  0.3281  0.4771 -0.4503
 1199TIP3    H125088   6.509   1.252   1.393  1.2584  0.5956  0.1271
 1199TIP3    H225089   6.518   1.334   1.265  0.4936 -0.1261 -0.3972
 1200TIP3   OH225090   3.416   4.069   0.579  0.5443 -0.6593  0.1589
 1200TIP3    H125091   3.436   3.976   0.577  0.3478 -0.6929 -0.2695
 1200TIP3    H225092   3.403   4.088   0.672 -0.2468 -1.2415  0.1720
 1201TIP3   OH225093   2.744   3.722  11.882  0.2542  0.8120 -0.5027
 1201TIP3    H125094   2.815   3.675  11.838 -0.3462  0.7331 -1.3978
 1201TIP3    H225095   2.762   3.712  11.975  1.2895  0.5930 -0.7240
 1202TIP3   OH225096   5.787   2.076   5.089 -0.0259  0.4765  0.2087
 1202TIP3    H125097   5.756   2.143   5.150 -1.1795  1.1465 -1.1002
 1202TIP3    H225098   5.874   2.106   5.063 -0.8202  1.8700 -0.9276
 1203TIP3   OH225099   5.911   3.721  10.937 -1.0509  0.7046 -0.2961
 1203TIP3    H125100   5.827   3.683  10.910 -0.4358  0.0198 -1.2692
 1203TIP3    H225101   5.976   3.655  10.912 -0.3178  0.7069  1.4897
 1204TIP3   OH225102   0.610   5.808   5.749 -0.4462 -0.2530  0.2844
 1204TIP3    H125103   0.669   5.747   5.704 -0.0117  1.6403 -1.8213
 1204TIP3    H225104   0.660   5.839   5.825  0.4767 -0.2572 -0.3097
 1205TIP3   OH225105   2.084   0.060  12.836  0.1802 -0.0587 -0.5412
 1205TIP3    H125106   2.086   0.031  12.928  0.5974 -0.2462 -0.6069
 1205TIP3    H225107   2.055  -0.017  12.787  2.4468 -0.7692 -0.8529
 1206TIP3   OH225108   6.264   1.161   1.973 -0.2325  0.3330  0.3114
 1206TIP3    H125109   6.286   1.068   1.968 -1.5547  0.0377 -0.3245
 1206TIP3    H225110   6.347   1.205   1.990  0.5188 -0.8985 -0.1512
 1207TIP3   OH225111   3.685   1.935  11.191 -0.4801 -0.1313 -0.0789
 1207TIP3    H125112   3.703   2.027  11.173  1.8752 -0.7742 -1.1801
 1207TIP3    H225113   3.643   1.903  11.112 -0.8997 -0.1330  0.1382
 1208TIP3   OH225114   5.029   6.310  14.050 -0.3451  0.2700  0.3055
 1208TIP3    H125115   4.994   6.346  13.968 -2.4087 -1.9399  0.1326
 1208TIP3    H225116   5.083   6.236  14.022 -1.7011 -0.9904  0.9280
 1209TIP3   OH225117   0.213   3.716   4.183 -0.0883 -0.4638 -0.0096
 1209TIP3    H125118   0.253   3.632   4.205  2.4172  0.4912 -0.7729
 1209TIP3    H225119   0.175   3.748   4.265 -0.3306 -1.9426  0.4540
 1210TIP3   OH225120   0.112   4.559  15.838  0.0085  0.0883 -0.4155
 1210TIP3    H125121   0.168   4.636  15.835  2.3911 -1.5133  0.8009
 1210TIP3    H225122   0.106   4.536  15.931 -0.8380 -1.0446 -0.7305
 1211TIP3   OH225123   1.301   4.124  11.097 -0.4614 -0.6360 -0.2985
 1211TIP3    H125124   1.339   4.206  11.130  1.1825 -1.7330  0.6258
 1211TIP3    H225125   1.215   4.149  11.065  0.5639  1.7511 -1.3700
 1212TIP3   OH225126   3.768   2.948   3.715 -0.3395 -0.3123  0.4328
 1212TIP3    H125127   3.798   2.968   3.626  0.6931 -0.8523  0.6621
 1212TIP3    H225128   3.827   2.997   3.772 -1.7583  1.0239  0.8008
 1213TIP3   OH225129   5.915   3.159   6.341  0.0844  0.4646  0.7122
 1213TIP3    H125130   5.868   3.091   6.292 -2.6397  2.0792  0.9762
 1213TIP3    H225131   5.913   3.235   6.283 -1.0728  1.6942  2.3278
 1214TIP3   OH225132   4.427   3.010  15.760  0.4023  0.4679 -0.0838
 1214TIP3    H125133   4.431   3.018  15.855  1.4606 -0.2416 -0.0553
 1214TIP3    H225134   4.377   2.930  15.745  0.2219  0.5886 -0.1213
 1215TIP3   OH225135   2.594   2.231   2.800 -0.9246  0.3916 -0.0594
 1215TIP3    H125136   2.625   2.227   2.891  1.1559 -1.0690 -0.7879
 1215TIP3    H225137   2.658   2.286   2.756 -0.7627 -0.6003 -1.0769
 1216TIP3   OH225138   1.104   1.744  13.620 -0.4278 -0.2534 -0.1877
 1216TIP3    H125139   1.112   1.825  13.670 -1.2937  0.0811 -0.5755
 1216TIP3    H225140   1.153   1.680  13.671  1.4929  0.8285 -0.6243
 1217TIP3   OH225141   3.135   1.558   5.652  0.1058 -1.0805 -0.4163
 1217TIP3    H125142   3.176   1.638   5.620  1.0960 -1.7944 -0.9649
 1217TIP3    H225143   3.171   1.546   5.740  0.3949 -1.2348 -0.5568
 1218TIP3   OH225144   4.042   3.458  10.755  0.3597 -0.6974  0.1300
 1218TIP3    H125145   3.984   3.534  10.767  0.3165 -0.9168  1.3938
 1218TIP3    H225146   4.002   3.389  10.809  1.5042 -1.0130  0.5736
 1219TIP3   OH225147   6.815   0.008   2.385 -0.0277 -0.4045 -0.0045
 1219TIP3    H125148   6.879  -0.051   2.426  0.5665  0.3059  0.1093
 1219TIP3    H225149   6.740   0.006   2.444  0.1809 -0.6577  0.2564
 1220TIP3   OH225150   3.910   1.268   4.459  0.0073  0.5342 -0.3691
 1220TIP3    H125151   3.880   1.319   4.533  0.0351  0.7813 -0.5295
 1220TIP3    H225152   4.002   1.294   4.447  0.8162 -1.4078  1.1581
 1221TIP3   OH225153   4.330   5.478   5.292  0.1056  0.8043  0.3695
 1221TIP3    H125154   4.309   5.516   5.377 -1.1850  0.9467 -0.0084
 1221TIP3    H225155   4.246   5.467   5.249  0.5360 -1.3844 -0.0088
 1222TIP3   OH225156   3.390   1.420   0.225 -0.4211 -0.0206 -0.4212
 1222TIP3    H125157   3.311   1.377   0.192  0.2197 -1.3125 -0.3205
 1222TIP3    H225158   3.382   1.511   0.196 -1.6421 -0.2806 -0.9425
 1223TIP3   OH225159   0.928   0.507   4.958  0.5397  0.1838  0.0181
 1223TIP3    H125160   0.935   0.493   5.052  1.5613  0.7984  0.0422
 1223TIP3    H225161   1.015   0.537   4.932 -0.5711  2.9620 -0.6196
 1224TIP3   OH225162   1.476   2.960  15.046 -0.0522 -0.0356 -0.2791
 1224TIP3    H125163   1.566   2.960  15.013 -0.0608  0.2713 -0.3050
 1224TIP3    H225164   1.431   3.026  14.993 -0.4831 -0.7175 -0.7824
 1225TIP3   OH225165   0.802   5.205   3.089 -0.7554  0.5656  0.6411
 1225TIP3    H125166   0.854   5.126   3.102  1.1073  1.8016  0.8696
 1225TIP3    H225167   0.765   5.225   3.175 -1.8335 -0.4571  0.4232
 1226TIP3   OH225168   4.823   5.883  14.961  0.2420  0.0773  0.6054
 1226TIP3    H125169   4.838   5.966  14.916 -1.1169  0.5485  1.0128
 1226TIP3    H225170   4.819   5.818  14.891 -0.6908  0.6395  0.1335
 1227TIP3   OH225171   0.176   5.781   3.251 -0.0717 -0.0689  0.8192
 1227TIP3    H125172   0.119   5.755   3.324 -0.1285 -1.8944  0.1666
 1227TIP3    H225173   0.193   5.699   3.205  1.1147  0.8542 -0.4034
 1228TIP3   OH225174   5.041   3.599  12.425 -0.1961  0.4111  0.0785
 1228TIP3    H125175   4.986   3.668  12.386 -0.6510 -0.7003 -1.2932
 1228TIP3    H225176   5.121   3.600  12.373  0.5016  1.0464  1.1530
 1229TIP3   OH225177   6.026   5.784  13.685  0.3381  0.1009 -0.5851
 1229TIP3    H125178   6.073   5.701  13.671 -0.0631  0.0406 -1.6019
 1229TIP3    H225179   5.942   5.772  13.641 -0.6833  0.1784  1.3233
 1230TIP3   OH225180   2.205   2.169  13.886 -0.2792  0.6688  0.0808
 1230TIP3    H125181   2.300   2.162  13.889 -0.4282 -2.0188  0.3581
 1230TIP3    H225182   2.177   2.168  13.977 -0.6240  0.0717 -0.0239
 1231TIP3   OH225183   0.024   6.699  11.340  0.4821 -0.0993 -0.4451
 1231TIP3    H125184   0.022   6.779  11.287 -0.4130  0.1591 -0.0318
 1231TIP3    H225185   0.098   6.649  11.305  1.8887  1.4981  0.1684
 1232TIP3   OH225186   6.161   1.863   0.917 -0.0842  0.2016 -0.4771
 1232TIP3    H125187   6.081   1.822   0.951  0.1316 -0.3415 -0.6230
 1232TIP3    H225188   6.160   1.951   0.955  0.8041 -0.8225  1.9972
 1233TIP3   OH225189   1.901   3.391  13.729  0.5165 -0.2704 -0.1166
 1233TIP3    H125190   1.817   3.424  13.762  0.7353 -0.0886  0.2636
 1233TIP3    H225191   1.947   3.360  13.807  0.1464 -1.8694 -0.5139
 1234TIP3   OH225192   2.117   5.849  14.208 -0.1440  0.8315  0.1719
 1234TIP3    H125193   2.175   5.923  14.221 -0.2708  0.8020  0.9963
 1234TIP3    H225194   2.160   5.777  14.254 -0.2974  0.5450 -0.1354
 1235TIP3   OH225195   0.562   6.752  14.252 -0.1502 -0.0882 -0.7390
 1235TIP3    H125196   0.476   6.781  14.282 -0.4028  0.1461 -1.6804
 1235TIP3    H225197   0.544   6.688  14.183  0.4254 -0.4497 -0.5610
 1236TIP3   OH225198   2.971   6.598  14.002  0.3788 -0.3736 -0.2780
 1236TIP3    H125199   2.920   6.631  14.076 -1.5001 -1.4100 -1.1104
 1236TIP3    H225200   3.010   6.677  13.963  1.2901  0.1905  1.7165
 1237TIP3   OH225201   2.552   1.983  11.163 -0.6264 -0.3594 -0.2232
 1237TIP3    H125202   2.500   2.005  11.240 -0.1162 -1.0193  0.3159
 1237TIP3    H225203   2.508   1.907  11.125 -0.8711 -0.0415 -0.5806
 1238TIP3   OH225204   2.766   4.924  14.223  0.3330 -0.1970 -0.6610
 1238TIP3    H125205   2.793   4.834  14.242  1.0688  0.5164  1.8753
 1238TIP3    H225206   2.848   4.971  14.206  0.1286  0.4043 -0.0324
 1239TIP3   OH225207   1.559   5.877  13.632 -0.0822 -0.2275 -0.3422
 1239TIP3    H125208   1.500   5.933  13.581  0.6181 -1.0335 -2.1071
 1239TIP3    H225209   1.641   5.877  13.582  0.5557 -1.2336  0.6708
 1240TIP3   OH225210   2.356   4.799  12.759 -0.2336  0.2463  0.1770
 1240TIP3    H125211   2.270   4.796  12.802  0.4485  1.6217  1.6888
 1240TIP3    H225212   2.373   4.892  12.745  0.9122 -0.0297 -0.3130
 1241TIP3   OH225213   2.489   4.875  13.437 -0.1183 -0.1630 -0.2340
 1241TIP3    H125214   2.535   4.858  13.519 -2.4138  0.2876  1.1723
 1241TIP3    H225215   2.496   4.969  13.424  2.9044 -0.5827 -2.2186
 1242TIP3   OH225216   6.112   3.068   3.868  0.1348 -0.4207  0.0313
 1242TIP3    H125217   6.208   3.077   3.867  0.2216 -1.3640 -0.6138
 1242TIP3    H225218   6.087   3.076   3.776 -0.6914  2.6642  0.4757
 1243TIP3   OH225219   2.618   0.117   5.050  0.2775 -0.3206  0.2697
 1243TIP3    H125220   2.531   0.084   5.031  0.0246 -0.0645  0.9855
 1243TIP3    H225221   2.605   0.181   5.120  0.8674  0.6701 -0.5129
 1244TIP3   OH225222   3.493   6.257  13.461  0.4949  0.2018 -0.0533
 1244TIP3    H125223   3.453   6.174  13.434  1.0694 -0.9284  2.4341
 1244TIP3    H225224   3.442   6.285  13.537  2.8046  0.0126  1.6262
 1245TIP3   OH225225   4.072   1.788  11.302  0.0220  0.8202  0.1752
 1245TIP3    H125226   4.108   1.747  11.380 -1.2696  0.4295  0.5640
 1245TIP3    H225227   3.983   1.814  11.326  0.1339  2.0755 -0.6802
 1246TIP3   OH225228   1.068   3.533   0.128 -0.4099  1.0618 -0.0758
 1246TIP3    H125229   1.155   3.559   0.100  0.4147 -0.6235  0.8635
 1246TIP3    H225230   1.019   3.521   0.047  1.4811 -2.1940 -0.7987
 1247TIP3   OH225231   2.164   6.067   2.465 -0.2007 -0.1961 -0.1332
 1247TIP3    H125232   2.121   6.122   2.530 -0.4979  0.6275 -1.0157
 1247TIP3    H225233   2.144   6.109   2.381 -1.6013 -2.4170 -0.9550
 1248TIP3   OH225234   3.877   2.188  14.330  0.1803  0.0933  0.5682
 1248TIP3    H125235   3.805   2.195  14.268  0.9333 -0.7219 -0.3922
 1248TIP3    H225236   3.878   2.096  14.357 -0.1309  0.4310  1.7818
 1249TIP3   OH225237   0.449   4.761  10.355 -0.3059 -0.0418 -0.0347
 1249TIP3    H125238   0.427   4.818  10.430 -0.4157  0.1058 -0.1786
 1249TIP3    H225239   0.533   4.722  10.379  0.2385  0.9136 -0.3590
 1250TIP3   OH225240   6.764   4.161  14.192  0.3501  0.2250 -0.1045
 1250TIP3    H125241   6.849   4.128  14.222 -0.3050 -1.0556  0.3762
 1250TIP3    H225242   6.700   4.106  14.237 -0.7302  0.9565 -0.7364
 1251TIP3   OH225243   1.304   0.728  16.932  0.0565 -0.2869 -0.0105
 1251TIP3    H125244   1.360   0.771  16.867 -1.2484  2.0858  0.4024
 1251TIP3    H225245   1.358   0.726  17.012  0.6914 -0.8591 -0.4449
 1252TIP3   OH225246   1.478   6.572  11.273 -0.6660 -0.2372  0.7109
 1252TIP3    H125247   1.424   6.579  11.195  1.4419 -1.5428 -0.9342
 1252TIP3    H225248   1.442   6.498  11.321 -1.5710  0.1731  0.6753
 1253TIP3   OH225249   0.671   1.874   5.022 -0.4067  0.1478  0.3486
 1253TIP3    H125250   0.685   1.781   5.004 -0.3539 -0.1953  2.0661
 1253TIP3    H225251   0.577   1.882   5.034 -0.5033  0.4718 -0.6703
 1254TIP3   OH225252   5.728   4.094   2.135 -0.9511 -0.0264  0.4055
 1254TIP3    H125253   5.709   4.001   2.146  0.4415 -0.3218  0.4048
 1254TIP3    H225254   5.789   4.098   2.061 -2.2776  1.0451 -0.6594
 1255TIP3   OH225255   0.298   0.619   3.791  0.0190  0.3523 -0.2411
 1255TIP3    H125256   0.353   0.571   3.853 -0.4883  0.2086  0.1025
 1255TIP3    H225257   0.335   0.599   3.705  0.8733  0.7435  0.0293
 1256TIP3   OH225258   2.825   1.149  13.652  0.2491  0.4266 -0.1286
 1256TIP3    H125259   2.852   1.210  13.584  1.1645 -0.6066 -0.7105
 1256TIP3    H225260   2.885   1.166  13.725  0.7494 -0.0389 -0.4321
 1257TIP3   OH225261   1.613   3.085  15.503 -0.2413  0.1250 -0.3823
 1257TIP3    H125262   1.554   3.032  15.448  0.2615 -0.3599 -0.4560
 1257TIP3    H225263   1.646   3.153  15.444 -0.7726  0.4438 -0.3242
 1258TIP3   OH225264   5.022   1.087  11.556  0.2449 -0.4952  0.5177
 1258TIP3    H125265   4.943   1.034  11.552 -0.9421  1.1900  0.9023
 1258TIP3    H225266   5.091   1.027  11.583 -1.0183 -1.8573  0.7513
 1259TIP3   OH225267   5.670   2.528  17.231 -0.5270  0.0692  0.2229
 1259TIP3    H125268   5.665   2.433  17.240  0.9540 -0.3515 -2.8234
 1259TIP3    H225269   5.757   2.551  17.262 -0.3722  0.2587 -0.3463
 1260TIP3   OH225270   3.646   5.342  15.420 -0.3759  0.4615  0.0787
 1260TIP3    H125271   3.643   5.247  15.430 -0.0033  0.5233  0.7927
 1260TIP3    H225272   3.678   5.374  15.504 -0.7629  1.2389 -0.0670
 1261TIP3   OH225273   4.308   6.316   3.396  0.7284 -0.0515  0.0994
 1261TIP3    H125274   4.366   6.248   3.429  0.8999  0.4040  0.7648
 1261TIP3    H225275   4.221   6.276   3.397  0.9345 -0.5067 -0.2289
 1262TIP3   OH225276   6.467   4.559   4.672 -0.7877 -0.4423 -0.2919
 1262TIP3    H125277   6.543   4.506   4.696 -0.5818  0.3388  0.7718
 1262TIP3    H225278   6.479   4.642   4.718 -1.9137 -0.0393 -0.7036
 1263TIP3   OH225279   5.423   0.803   3.034  0.1369 -0.4257 -0.1522
 1263TIP3    H125280   5.379   0.793   2.950  0.7230  1.3086 -0.6941
 1263TIP3    H225281   5.370   0.867   3.081  2.0903  1.8117 -0.8748
 1264TIP3   OH225282   2.819   1.956  10.533 -0.2420  0.7520  0.4504
 1264TIP3    H125283   2.865   2.038  10.547  0.4552  0.1667  1.6678
 1264TIP3    H225284   2.731   1.982  10.507 -0.6121  1.9096  2.6911
 1265TIP3   OH225285   4.122   2.777  13.812  0.2500  0.3082  0.0258
 1265TIP3    H125286   4.142   2.686  13.792 -0.3341  0.2863 -0.4894
 1265TIP3    H225287   4.202   2.824  13.790 -0.2019  0.2081 -1.9259
 1266TIP3   OH225288   4.410   0.311   4.465  0.3742  0.0701  0.4630
 1266TIP3    H125289   4.359   0.387   4.492 -0.0182  0.0013 -0.0810
 1266TIP3    H225290   4.361   0.236   4.499 -0.9650 -0.1085 -1.7291
 1267TIP3   OH225291   4.418   4.487  11.060  0.7618  0.0364 -0.2557
 1267TIP3    H125292   4.470   4.556  11.100 -2.4434  1.6130  1.3256
 1267TIP3    H225293   4.411   4.513  10.968  1.4382  0.6107 -0.1496
 1268TIP3   OH225294   0.117   0.150   6.518 -0.6217 -0.0148 -0.1133
 1268TIP3    H125295   0.034   0.197   6.513 -0.6967  0.0412  1.3733
 1268TIP3    H225296   0.095   0.067   6.562  0.1279  0.0712  0.4262
 1269TIP3   OH225297   6.312   5.498  13.092  0.4188  0.1203 -0.2488
 1269TIP3    H125298   6.325   5.481  13.186 -1.3682  0.0897  0.0084
 1269TIP3    H225299   6.396   5.531  13.062  0.9037  0.4787  1.4555
 1270TIP3   OH225300   0.128   2.770   1.489 -0.2237 -0.0862  0.0505
 1270TIP3    H125301   0.058   2.734   1.544  0.5192  0.9872  1.7363
 1270TIP3    H225302   0.178   2.694   1.461 -0.1213 -0.5884  1.5588
 1271TIP3   OH225303   3.426   6.154  15.861 -0.1182  0.2854 -0.7988
 1271TIP3    H125304   3.481   6.134  15.785 -0.0171 -0.1480 -0.6096
 1271TIP3    H225305   3.488   6.169  15.932 -0.2655 -1.2914 -0.3134
 1272TIP3   OH225306   5.233   6.198  15.215 -0.2945  0.0335  0.7685
 1272TIP3    H125307   5.250   6.144  15.292  1.0399 -0.2934  0.2639
 1272TIP3    H225308   5.140   6.185  15.196 -0.8737  0.8752  2.8791
 1273TIP3   OH225309   4.815   1.222   0.610  0.3313 -0.3123  0.1617
 1273TIP3    H125310   4.827   1.217   0.705 -0.4895 -2.2410  0.2023
 1273TIP3    H225311   4.890   1.174   0.574 -0.2448 -1.0372 -0.0867
 1274TIP3   OH225312   1.842   5.677   5.686 -0.1407  0.4281  0.2853
 1274TIP3    H125313   1.900   5.606   5.711 -0.6923 -0.2298 -0.2684
 1274TIP3    H225314   1.867   5.750   5.742  1.7946  0.4275 -0.5499
 1275TIP3   OH225315   6.737   3.520  11.856 -0.1937 -0.0783 -0.0850
 1275TIP3    H125316   6.787   3.539  11.935  1.4907  0.4287 -1.2385
 1275TIP3    H225317   6.777   3.440  11.820  0.5936  0.9615 -1.6159
 1276TIP3   OH225318   6.154   5.017  14.925  0.4011  0.4745  0.1705
 1276TIP3    H125319   6.110   5.038  15.007 -0.5637 -1.0350  0.0506
 1276TIP3    H225320   6.199   4.935  14.942  0.1323  0.1171 -0.8284
 1277TIP3   OH225321   4.323   4.784  15.980  0.0201  0.0421  0.4432
 1277TIP3    H125322   4.272   4.798  16.059  0.1552 -0.4542  0.6188
 1277TIP3    H225323   4.409   4.822  16.000  0.9876 -2.6802  1.6042
 1278TIP3   OH225324   1.333   3.430  12.474  0.5052 -0.2847  0.5217
 1278TIP3    H125325   1.266   3.439  12.541  0.9052 -0.5573  0.9620
 1278TIP3    H225326   1.392   3.504  12.489  1.1600 -0.9181  1.1255
 1279TIP3   OH225327   5.687   2.702   1.983  0.4024 -0.0269 -0.5053
 1279TIP3    H125328   5.639   2.654   1.915  0.6409  1.2927 -1.6343
 1279TIP3    H225329   5.620   2.756   2.026  0.4169 -0.1674 -0.3044
 1280TIP3   OH225330   2.855   6.356  16.414  0.2261  0.0670 -0.0217
 1280TIP3    H125331   2.869   6.373  16.507 -0.5818  0.9114 -0.0448
 1280TIP3    H225332   2.889   6.434  16.370 -0.6366  0.2764 -0.3357
 1281TIP3   OH225333   2.267   1.373  12.458  0.7910 -0.8396 -0.2065
 1281TIP3    H125334   2.282   1.431  12.383  1.6410 -0.7845  0.0032
 1281TIP3    H225335   2.299   1.288  12.430 -0.0279 -1.1064 -0.3441
 1282TIP3   OH225336   2.458   4.749   5.169 -0.4677 -0.4879 -0.1855
 1282TIP3    H125337   2.536   4.803   5.175 -0.2298 -0.7806 -0.6652
 1282TIP3    H225338   2.461   4.710   5.081 -0.5497 -1.4100  0.2135
 1283TIP3   OH225339   1.091   1.827   0.667 -0.0128  0.6817 -0.6030
 1283TIP3    H125340   1.180   1.858   0.648 -0.4618  2.1569 -0.3753
 1283TIP3    H225341   1.034   1.898   0.637 -1.2799 -1.3827 -3.2169
 1284TIP3   OH225342   4.591   0.913  12.057 -0.1051  0.2095 -0.0058
 1284TIP3    H125343   4.585   0.940  12.149 -0.2695 -2.0345  0.6593
 1284TIP3    H225344   4.559   0.823  12.056  1.1562 -0.2434 -2.0689
 1285TIP3   OH225345   4.036   4.928   3.126  0.7340 -0.4825 -0.5719
 1285TIP3    H125346   4.022   5.021   3.109  1.3972 -0.3905 -0.6389
 1285TIP3    H225347   3.973   4.907   3.195  0.4788 -0.0201 -0.6596
 1286TIP3   OH225348   2.365   5.102  12.022 -0.5996  0.1405  0.4643
 1286TIP3    H125349   2.440   5.149  12.057 -0.2754 -0.7058  0.9049
 1286TIP3    H225350   2.402   5.027  11.976 -1.1030  0.4316 -0.4217
 1287TIP3   OH225351   5.807   0.220   0.994  0.1804 -0.4067 -0.3557
 1287TIP3    H125352   5.762   0.219   0.909 -1.4695  0.6229  0.4674
 1287TIP3    H225353   5.805   0.312   1.021  2.0330 -0.4926  0.1223
 1288TIP3   OH225354   0.525   3.201  14.171 -0.2057 -0.2733  0.3807
 1288TIP3    H125355   0.556   3.269  14.231  1.0132 -0.0361 -0.5059
 1288TIP3    H225356   0.446   3.237  14.131 -0.9500 -0.3754  1.7163
 1289TIP3   OH225357   2.668   4.543  16.685 -0.4356 -0.5053 -0.5854
 1289TIP3    H125358   2.588   4.490  16.681  0.7791 -2.2311 -2.7764
 1289TIP3    H225359   2.720   4.503  16.755  0.2316 -1.8835 -1.8551
 1290TIP3   OH225360   4.541   0.902  10.596  0.2412  0.1924 -0.4660
 1290TIP3    H125361   4.613   0.860  10.642  0.0609  0.6277  0.2210
 1290TIP3    H225362   4.492   0.830  10.557 -0.6041 -0.3231  1.4812
 1291TIP3   OH225363   0.338   2.060  12.858  0.4706  0.3389 -0.3065
 1291TIP3    H125364   0.316   2.019  12.941 -1.1833  1.0480 -0.3844
 1291TIP3    H225365   0.256   2.061  12.809  1.6514 -1.1155 -2.4200
 1292TIP3   OH225366   5.400   6.400  12.151 -0.8046  0.5369 -0.1758
 1292TIP3    H125367   5.366   6.313  12.171 -1.4039  0.3989 -1.7333
 1292TIP3    H225368   5.468   6.385  12.086  0.4947  1.0636  1.0261
 1293TIP3   OH225369   2.953   1.681  15.996 -0.2728  0.1569 -0.1254
 1293TIP3    H125370   2.868   1.649  15.966 -1.2849  0.5514  2.1945
 1293TIP3    H225371   3.017   1.630  15.947 -1.8492 -0.8166 -1.2138
 1294TIP3   OH225372   5.566   3.780  15.635 -0.5988 -0.2821 -0.5943
 1294TIP3    H125373   5.483   3.753  15.595 -0.4979 -0.1399 -0.9052
 1294TIP3    H225374   5.554   3.767  15.729 -1.2881  0.6087 -0.5586
 1295TIP3   OH225375   3.932   3.657   1.140  0.2638 -0.3096  0.0837
 1295TIP3    H125376   3.943   3.632   1.049  2.8782  0.6967  0.0635
 1295TIP3    H225377   4.008   3.619   1.184 -0.2542  0.3595  1.5900
 1296TIP3   OH225378   3.468   6.696   4.499  0.2694 -0.0251  0.5564
 1296TIP3    H125379   3.401   6.661   4.440  0.8448  0.7263 -0.5419
 1296TIP3    H225380   3.429   6.687   4.586 -0.7889 -0.6664  0.0282
 1297TIP3   OH225381   3.146   1.096   0.409  0.2943 -0.4430  0.3665
 1297TIP3    H125382   3.165   1.185   0.440 -0.8897 -0.0930  0.0768
 1297TIP3    H225383   3.051   1.091   0.404  0.3407 -1.8034  0.5814
 1298TIP3   OH225384   1.738   2.488   1.296 -0.2752 -0.1818 -0.1132
 1298TIP3    H125385   1.745   2.572   1.341 -2.3314 -0.4289  0.7225
 1298TIP3    H225386   1.681   2.506   1.221  0.5724 -0.4806 -0.8303
 1299TIP3   OH225387   1.602   1.950  12.570 -0.1847 -0.0158 -0.0283
 1299TIP3    H125388   1.523   1.981  12.524  0.7749  1.2814 -0.8528
 1299TIP3    H225389   1.632   1.876  12.518  0.7016  1.2324 -1.3509
 1300TIP3   OH225390   3.774   1.105   5.281  0.5683 -0.4723  0.7079
 1300TIP3    H125391   3.767   1.182   5.226  0.0347 -0.6040  0.5904
 1300TIP3    H225392   3.866   1.078   5.273  0.8976  0.4873  1.2159
 1301TIP3   OH225393   0.849   4.341   0.062  0.2207 -0.8983  0.0138
 1301TIP3    H125394   0.884   4.428   0.076 -0.1666 -0.5360 -1.1522
 1301TIP3    H225395   0.767   4.338   0.112  0.4930 -0.7678  0.4605
 1302TIP3   OH225396   0.610   5.890   4.174 -0.0665 -0.5576 -0.6219
 1302TIP3    H125397   0.538   5.885   4.237 -0.1043 -1.0081 -0.7007
 1302TIP3    H225398   0.661   5.810   4.189  1.0581  0.2939  0.2044
 1303TIP3   OH225399   3.833   4.604  10.947 -0.7845  0.1174  0.6675
 1303TIP3    H125400   3.920   4.593  10.907 -0.3008  0.5387  1.6011
 1303TIP3    H225401   3.793   4.517  10.941  0.2121 -0.3975  1.4340
 1304TIP3   OH225402   4.850   2.491   1.791 -0.0439  0.1441 -0.6434
 1304TIP3    H125403   4.828   2.502   1.884 -0.3540 -1.2250 -0.5449
 1304TIP3    H225404   4.848   2.580   1.756 -1.0712  0.5583  0.4145
 1305TIP3   OH225405   0.724   0.551  14.161  0.8373 -0.3197  0.2960
 1305TIP3    H125406   0.695   0.550  14.253 -1.3653 -0.8189 -0.3719
 1305TIP3    H225407   0.684   0.630  14.124 -0.6446 -1.6254 -0.9409
 1306TIP3   OH225408   0.649   0.341   3.734 -0.1889 -0.0228 -0.2324
 1306TIP3    H125409   0.722   0.288   3.767  0.2205  0.2326 -0.7108
 1306TIP3    H225410   0.584   0.277   3.705 -0.1296 -0.2546  0.1408
 1307TIP3   OH225411   3.471   2.314  12.241 -0.4440 -0.0913 -0.0333
 1307TIP3    H125412   3.390   2.358  12.268 -0.1711  0.1761  0.3522
 1307TIP3    H225413   3.501   2.268  12.320  0.2072  0.4632  0.0476
 1308TIP3   OH225414   5.947   5.068  11.742  0.3185 -0.2565 -0.0902
 1308TIP3    H125415   5.949   5.129  11.816  2.1081 -0.3279 -0.0428
 1308TIP3    H225416   5.872   5.012  11.758 -1.9128  2.4806 -0.5769
 1309TIP3   OH225417   4.306   4.291  11.239  0.0650  0.1909  0.0980
 1309TIP3    H125418   4.214   4.315  11.231  0.2114  1.0843  1.0137
 1309TIP3    H225419   4.348   4.334  11.164  0.0048  1.1750  0.6278
 1310TIP3   OH225420   1.523   3.120  12.691 -0.3643 -0.7720  0.0667
 1310TIP3    H125421   1.557   3.175  12.620 -1.6867 -0.9417 -0.7152
 1310TIP3    H225422   1.556   3.032  12.671  0.1372 -0.6297  0.2522
 1311TIP3   OH225423   2.638   0.061  16.994 -0.1399 -0.0601  0.1422
 1311TIP3    H125424   2.631   0.156  16.979 -0.9773 -0.1769 -0.1964
 1311TIP3    H225425   2.613   0.022  16.911 -3.1106 -0.6710  1.2880
 1312TIP3   OH225426   4.218   4.773   6.142  0.3440  0.0063  1.0111
 1312TIP3    H125427   4.271   4.851   6.158  0.2620  0.6089 -1.3912
 1312TIP3    H225428   4.128   4.805   6.138  0.3834 -0.0493 -0.7917
 1313TIP3   OH225429   1.722   5.170   0.402 -0.7427  0.2752  0.1242
 1313TIP3    H125430   1.721   5.266   0.411 -0.0523  0.3306 -0.3887
 1313TIP3    H225431   1.650   5.151   0.342 -1.2539  0.4225  0.6806
 1314TIP3   OH225432   1.632   2.821   4.520  0.2352 -0.3882 -0.5540
 1314TIP3    H125433   1.622   2.894   4.460  1.4497  0.1307 -0.1489
 1314TIP3    H225434   1.714   2.839   4.567  0.1957 -1.6512  0.0390
 1315TIP3   OH225435   2.605   3.864  13.226 -0.3027 -0.3575 -1.1059
 1315TIP3    H125436   2.579   3.899  13.141 -2.1765 -1.1367 -0.8772
 1315TIP3    H225437   2.558   3.918  13.290 -0.4807 -1.0484 -0.6483
 1316TIP3   OH225438   2.990   2.844  12.539  0.4254 -0.0472  0.3336
 1316TIP3    H125439   2.981   2.752  12.516 -1.7443  0.4773 -1.0854
 1316TIP3    H225440   2.994   2.845  12.635 -1.5560 -1.5078  0.4617
 1317TIP3   OH225441   2.103   4.794   5.534  0.0312  0.4393  0.2435
 1317TIP3    H125442   2.170   4.851   5.494 -1.0823  1.9864  0.5513
 1317TIP3    H225443   2.093   4.828   5.623 -0.6800 -0.2083  0.4081
 1318TIP3   OH225444   5.559   0.597  11.056  0.0506  0.5052 -0.1398
 1318TIP3    H125445   5.496   0.578  11.125  1.5068 -0.3509  0.9824
 1318TIP3    H225446   5.568   0.693  11.058 -1.1927  0.6377 -0.3132
 1319TIP3   OH225447   2.090   4.809  16.080 -0.5578  0.4761  0.6948
 1319TIP3    H125448   2.162   4.861  16.044 -0.6668  0.4456  0.4337
 1319TIP3    H225449   2.127   4.768  16.158  1.1394 -3.2833 -1.9812
 1320TIP3   OH225450   6.226   4.187  16.825  0.2593  0.0361  0.1096
 1320TIP3    H125451   6.306   4.210  16.873  0.9080  0.7310 -1.2566
 1320TIP3    H225452   6.248   4.105  16.780 -0.3204 -0.5781  0.9372
 1321TIP3   OH225453   5.030   0.467  12.498  0.7751  0.3814  0.1148
 1321TIP3    H125454   5.088   0.391  12.488 -0.7149 -0.9341  1.2601
 1321TIP3    H225455   5.014   0.497  12.409  0.0526 -1.6647 -0.4556
 1322TIP3   OH225456   3.267   6.258   1.875 -0.3266  0.2517  0.4054
 1322TIP3    H125457   3.186   6.250   1.925  0.1198 -1.0024  0.9308
 1322TIP3    H225458   3.239   6.254   1.784 -1.0567  1.7977  0.5310
 1323TIP3   OH225459   4.796   5.374   2.481 -0.0948 -0.4852 -0.3677
 1323TIP3    H125460   4.732   5.379   2.552 -1.2363 -0.4967 -1.4011
 1323TIP3    H225461   4.861   5.310   2.512 -0.9332 -0.9708  0.3885
 1324TIP3   OH225462   5.992   3.841   5.289 -0.2039 -0.1736 -0.1049
 1324TIP3    H125463   6.006   3.896   5.212 -2.8829  0.9095  0.0979
 1324TIP3    H225464   6.023   3.755   5.264 -1.0622  0.1694 -2.4237
 1325TIP3   OH225465   4.396   2.982   1.197  0.4198  0.0976  0.1510
 1325TIP3    H125466   4.411   3.050   1.262  1.1297  0.0530  0.0297
 1325TIP3    H225467   4.361   2.908   1.248  0.3987  0.2729  0.3903
 1326TIP3   OH225468   1.921   2.668   1.079 -0.2858 -0.0771  0.4621
 1326TIP3    H125469   1.850   2.605   1.070 -1.2229  0.9850  0.2610
 1326TIP3    H225470   1.885   2.749   1.043  0.8952  0.5665  0.7197
 1327TIP3   OH225471   0.249   1.537   6.858  0.6308 -0.2733  0.4204
 1327TIP3    H125472   0.235   1.454   6.902 -0.5127 -0.1512  0.3068
 1327TIP3    H225473   0.317   1.519   6.793 -1.8945 -1.9521 -1.8523
 1328TIP3   OH225474   1.938   5.221   3.523  0.3359  0.2247 -0.2796
 1328TIP3    H125475   1.896   5.194   3.605  0.9079  1.2437  0.3625
 1328TIP3    H225476   1.917   5.152   3.461 -1.3050  0.1356  0.3528
 1329TIP3   OH225477   6.651   4.480  17.161  0.0438  0.3901 -0.2290
 1329TIP3    H125478   6.627   4.387  17.153  1.0210  0.2223 -1.2450
 1329TIP3    H225479   6.721   4.481  17.227  2.2715  0.0074 -2.5409
 1330TIP3   OH225480   6.522   5.313   3.050  0.0822  0.4733 -0.0851
 1330TIP3    H125481   6.491   5.247   2.988  0.3146  0.1059  0.1838
 1330TIP3    H225482   6.528   5.266   3.133 -1.8860  1.3732  0.5987
 1331TIP3   OH225483   0.231   1.753   0.596  0.7976 -0.1010  0.3785
 1331TIP3    H125484   0.183   1.824   0.638  1.5717  0.4817  0.2817
 1331TIP3    H225485   0.180   1.732   0.518  0.4551  0.1925  0.5210
 1332TIP3   OH225486   4.303   3.702  11.955  0.4320 -0.5023  0.3808
 1332TIP3    H125487   4.347   3.629  11.999 -1.2514 -1.7114  0.1154
 1332TIP3    H225488   4.371   3.742  11.901  1.4142 -1.8063  0.6224
 1333TIP3   OH225489   1.039   4.965  16.859  0.0369  0.3383  0.0938
 1333TIP3    H125490   1.075   5.033  16.803  0.6080  0.7685  0.9733
 1333TIP3    H225491   1.010   5.011  16.938  0.5564 -0.4447  0.7557
 1334TIP3   OH225492   0.311   5.287   5.811 -0.0819  0.1591  0.4106
 1334TIP3    H125493   0.362   5.346   5.866  1.6695 -0.4427 -0.5239
 1334TIP3    H225494   0.336   5.309   5.721  0.4338 -1.8205  0.0345
 1335TIP3   OH225495   2.624   2.843   1.853  0.6586  0.3217  0.1118
 1335TIP3    H125496   2.554   2.799   1.806 -0.4728  2.5048 -0.3298
 1335TIP3    H225497   2.604   2.828   1.945  1.0723 -1.2317 -0.0408
 1336TIP3   OH225498   1.322   0.884  12.450  0.3153 -0.2962  0.4142
 1336TIP3    H125499   1.405   0.927  12.432 -0.0333  0.9127  1.6409
 1336TIP3    H225500   1.299   0.910  12.539 -1.2389 -0.8412  0.2007
 1337TIP3   OH225501   4.562   2.157   2.047  0.0123  0.6035  0.6964
 1337TIP3    H125502   4.483   2.199   2.015  0.9828  2.3804  0.6038
 1337TIP3    H225503   4.578   2.198   2.132  0.7460  0.1355  0.7882
 1338TIP3   OH225504   4.654   1.152  16.648 -0.0892  0.3525  0.2459
 1338TIP3    H125505   4.608   1.236  16.651 -0.6856  0.0464 -0.1314
 1338TIP3    H225506   4.584   1.087  16.653  0.4527 -0.1290  1.7898
 1339TIP3   OH225507   1.638   5.946   3.858  0.6658  0.3130  0.5537
 1339TIP3    H125508   1.664   5.983   3.774 -0.3038 -0.7958 -0.2408
 1339TIP3    H225509   1.718   5.906   3.892  1.1293  1.0096  0.3037
 1340TIP3   OH225510   6.161   6.249  14.658 -0.0267  0.7685 -0.4685
 1340TIP3    H125511   6.193   6.328  14.702 -2.9528  1.4447  0.5858
 1340TIP3    H225512   6.134   6.278  14.571  0.0831  0.6733 -0.5355
 1341TIP3   OH225513   0.278   1.041  12.389 -0.0515  0.0758 -0.0284
 1341TIP3    H125514   0.225   1.117  12.414  1.5563  0.5318  2.0542
 1341TIP3    H225515   0.220   0.966  12.404 -0.8505  0.7142  0.1515
 1342TIP3   OH225516   1.551   1.582  17.088  0.3481  0.2097  0.8165
 1342TIP3    H125517   1.518   1.494  17.108  0.2458 -0.5565 -2.4936
 1342TIP3    H225518   1.646   1.574  17.096  0.3336 -0.1776  0.6183
 1343TIP3   OH225519   0.289   2.283   1.141  0.4417  0.5261 -0.4205
 1343TIP3    H125520   0.255   2.208   1.190  1.2326  1.0126  0.8954
 1343TIP3    H225521   0.225   2.296   1.070 -1.1023  0.2609  0.9015
 1344TIP3   OH225522   2.515   0.869  12.782  0.2251 -0.4642  0.1551
 1344TIP3    H125523   2.521   0.964  12.786 -0.4844 -0.4159  0.1985
 1344TIP3    H225524   2.475   0.844  12.865  1.5997 -0.9098  0.6823
 1345TIP3   OH225525   6.514   5.888   3.406  0.1006 -0.0675 -0.1999
 1345TIP3    H125526   6.476   5.966   3.364  0.9348  0.9982  0.9966
 1345TIP3    H225527   6.489   5.816   3.348 -1.5898  0.9348 -0.7798
 1346TIP3   OH225528   5.137   2.519   1.397 -0.7737  0.2512 -0.6992
 1346TIP3    H125529   5.129   2.446   1.458  0.6378  0.0121 -0.7999
 1346TIP3    H225530   5.050   2.527   1.357 -1.2131 -0.6990  0.0677
 1347TIP3   OH225531   6.121   0.476   3.560  0.3898  0.2950  0.6508
 1347TIP3    H125532   6.097   0.388   3.532 -0.9100  1.3377 -1.6811
 1347TIP3    H225533   6.045   0.509   3.608 -0.3492  1.2164 -1.1001
 1348TIP3   OH225534   1.829   4.739   4.139  0.1265  0.0822 -0.2806
 1348TIP3    H125535   1.909   4.695   4.112 -0.3678  0.5070 -2.5784
 1348TIP3    H225536   1.859   4.824   4.172  0.5645  0.6859 -2.1696
 1349TIP3   OH225537   2.327   4.947   1.055  0.0681  0.0902 -0.2766
 1349TIP3    H125538   2.304   4.861   1.018 -2.4161  1.5175 -2.1917
 1349TIP3    H225539   2.413   4.966   1.017 -0.1475 -0.7747 -1.2450
 1350TIP3   OH225540   2.618   6.551  15.100 -0.7134 -0.2228 -0.1326
 1350TIP3    H125541   2.672   6.608  15.156  1.1207 -1.3371 -0.7201
 1350TIP3    H225542   2.601   6.474  15.154  0.4310 -0.9722 -0.8152
 1351TIP3   OH225543   2.532   2.997   5.156  0.3548  0.1308  0.4002
 1351TIP3    H125544   2.503   3.080   5.119 -1.3598 -0.3816  0.5379
 1351TIP3    H225545   2.508   2.932   5.090  1.7433 -0.2623  0.2669
 1352TIP3   OH225546   3.339   6.392   0.544  0.6214  0.3974 -0.3711
 1352TIP3    H125547   3.430   6.398   0.515  0.0164  1.7866 -2.0796
 1352TIP3    H225548   3.288   6.420   0.468 -1.1314  2.1071  1.3874
 1353TIP3   OH225549   3.159   1.569  15.869  0.6516 -0.5029 -0.1974
 1353TIP3    H125550   3.182   1.635  15.805 -1.0906 -0.2295 -0.5627
 1353TIP3    H225551   3.243   1.533  15.898  1.5162  0.5375 -1.3822
 1354TIP3   OH225552   6.225   0.703  14.537  0.5889 -0.3810  0.0704
 1354TIP3    H125553   6.255   0.769  14.599 -1.1830 -0.2921  0.8659
 1354TIP3    H225554   6.222   0.622  14.588  0.9568 -0.6991 -0.4082
 1355TIP3   OH225555   0.943   5.923  16.398 -0.2488  0.0195  0.9957
 1355TIP3    H125556   0.863   5.872  16.408  0.6418 -1.9647 -1.3938
 1355TIP3    H225557   0.915   6.014  16.409 -2.7830 -0.6638  0.5069
 1356TIP3   OH225558   6.222   2.113   4.596 -0.3253  0.3662 -0.1153
 1356TIP3    H125559   6.260   2.059   4.665 -1.0905 -0.5201 -0.3779
 1356TIP3    H225560   6.129   2.119   4.618 -1.1325 -2.2295 -2.4948
 1357TIP3   OH225561   3.506   5.815   2.002  0.3220 -0.1601 -0.3269
 1357TIP3    H125562   3.556   5.743   1.964  1.0304  0.2441 -0.1792
 1357TIP3    H225563   3.524   5.890   1.944  0.3487  0.1299  0.0553
 1358TIP3   OH225564   4.315   0.320  12.029 -0.6273  0.1231 -0.1646
 1358TIP3    H125565   4.290   0.412  12.031  0.2592  0.3353  2.0712
 1358TIP3    H225566   4.395   0.315  12.081  0.3640 -1.6194 -1.7914
 1359TIP3   OH225567   3.316   4.812  16.057  0.6748 -0.0430 -0.1265
 1359TIP3    H125568   3.279   4.893  16.023 -0.7786 -1.4976 -2.1977
 1359TIP3    H225569   3.242   4.766  16.096  0.8111 -1.7176 -1.7539
 1360TIP3   OH225570   6.024   1.996   3.565  0.2648  0.3328  0.9339
 1360TIP3    H125571   5.996   1.913   3.604  1.4281 -0.4077  0.1954
 1360TIP3    H225572   5.957   2.015   3.499 -0.3458  0.3066  1.5449
 1361TIP3   OH225573   1.693   5.406   3.474 -0.2989  0.2304 -0.1280
 1361TIP3    H125574   1.739   5.385   3.393  1.1619 -0.4972  0.8734
 1361TIP3    H225575   1.626   5.338   3.483  1.7772 -1.7141  1.0227
 1362TIP3   OH225576   0.741   1.804  12.226 -0.0057  0.2498  0.6562
 1362TIP3    H125577   0.764   1.794  12.318  2.7282 -0.2102 -0.0364
 1362TIP3    H225578   0.825   1.815  12.181 -1.1184 -1.8999 -2.0719
 1363TIP3   OH225579   3.488   3.389  17.201  0.2086  0.1956  0.3568
 1363TIP3    H125580   3.444   3.346  17.274  1.1691  0.7303  1.2590
 1363TIP3    H225581   3.577   3.404  17.231  0.1035  2.1691 -0.1957
 1364TIP3   OH225582   2.759   2.691  15.214  0.5895  0.0016 -0.4335
 1364TIP3    H125583   2.746   2.768  15.269  1.6139 -0.2979  0.2340
 1364TIP3    H225584   2.719   2.619  15.264 -0.3665  0.0801 -1.0550
 1365TIP3   OH225585   1.217   3.173  14.537 -0.2673 -0.4701  0.4035
 1365TIP3    H125586   1.266   3.255  14.540  0.5758 -1.0052  2.7626
 1365TIP3    H225587   1.133   3.197  14.498  1.1693  0.8252 -2.0138
 1366TIP3   OH225588   0.453   0.066   6.155  0.2572  0.1952  0.6493
 1366TIP3    H125589   0.539   0.027   6.170  0.7273  0.8131 -0.3797
 1366TIP3    H225590   0.432   0.109   6.238  1.2524  0.6389  0.6814
 1367TIP3   OH225591   3.216   2.323   5.198  0.2696 -0.7053  0.1897
 1367TIP3    H125592   3.304   2.290   5.219  1.2300  0.0679 -2.3272
 1367TIP3    H225593   3.221   2.417   5.215  0.0920 -0.5843 -0.4114
 1368TIP3   OH225594   1.150   0.613   3.098 -0.4261  0.0660 -0.3697
 1368TIP3    H125595   1.140   0.524   3.131  0.7314  0.1866  0.3167
 1368TIP3    H225596   1.166   0.667   3.175  0.4232  0.6329 -0.9306
 1369TIP3   OH225597   6.112   4.575   3.450  0.0546 -0.0193  0.0846
 1369TIP3    H125598   6.048   4.549   3.384 -1.0261  1.3065  0.5975
 1369TIP3    H225599   6.148   4.492   3.483 -0.5476 -0.7307 -1.0251
 1370TIP3   OH225600   5.123   4.534  15.323  0.4186  0.5184  0.9341
 1370TIP3    H125601   5.198   4.542  15.264 -0.1536  3.0669  0.5058
 1370TIP3    H225602   5.094   4.624  15.338 -3.0240 -0.4203  0.4811
 1371TIP3   OH225603   4.458   0.737  13.003  0.5596  0.3083  0.3170
 1371TIP3    H125604   4.535   0.692  13.037  0.1581  0.6395  1.6897
 1371TIP3    H225605   4.426   0.680  12.933  0.8029 -0.9055  1.1744
 1372TIP3   OH225606   0.319   5.673   4.692 -0.2046  0.0379 -0.8506
 1372TIP3    H125607   0.262   5.670   4.615  0.5725  1.7704 -1.5287
 1372TIP3    H225608   0.363   5.588   4.693 -1.7556 -0.7837 -1.1216
 1373TIP3   OH225609   6.360   4.526  11.898  0.3297 -0.4667  0.4832
 1373TIP3    H125610   6.307   4.510  11.820  0.2553  0.6125  0.3152
 1373TIP3    H225611   6.356   4.443  11.947 -1.3898 -0.4338  0.4066
 1374TIP3   OH225612   2.852   2.777  16.852  0.5495  0.3657 -0.6247
 1374TIP3    H125613   2.863   2.682  16.861 -1.6631  0.0965 -0.3642
 1374TIP3    H225614   2.912   2.802  16.782  3.1681 -0.7821  1.1255
 1375TIP3   OH225615   3.876   1.247  13.343 -0.1049 -0.2172 -0.5337
 1375TIP3    H125616   3.902   1.231  13.252 -0.5807  2.4203 -1.1675
 1375TIP3    H225617   3.870   1.342  13.350 -0.2638 -0.3876  2.2240
 1376TIP3   OH225618   5.190   5.470   6.573  0.2406  0.0936  0.0677
 1376TIP3    H125619   5.110   5.434   6.534  0.6215 -0.9917  0.2480
 1376TIP3    H225620   5.160   5.519   6.649 -0.2163 -0.7802  0.4625
 1377TIP3   OH225621   2.800   1.825   4.127 -0.0750  1.2135  0.0976
 1377TIP3    H125622   2.720   1.818   4.179  0.3063  0.0884  0.5652
 1377TIP3    H225623   2.869   1.799   4.187  0.5666  1.5668 -0.4886
 1378TIP3   OH225624   2.580   6.043  12.715  0.0719  0.2155  0.1510
 1378TIP3    H125625   2.491   6.069  12.737 -0.0983 -0.3184  0.1174
 1378TIP3    H225626   2.591   6.070  12.624  0.0256  0.4988  0.2310
 1379TIP3   OH225627   1.520   4.765   4.612  0.2379 -0.2383  0.3238
 1379TIP3    H125628   1.436   4.812   4.606 -0.0861 -0.8607 -0.0662
 1379TIP3    H225629   1.578   4.826   4.658 -0.1080  0.6447 -0.3930
 1380TIP3   OH225630   0.225   1.663  13.601  0.0305 -0.3354 -0.7505
 1380TIP3    H125631   0.306   1.626  13.637 -0.0919  0.9637  0.9445
 1380TIP3    H225632   0.163   1.590  13.603 -0.3877  0.0007  3.1558
 1381TIP3   OH225633   1.876   2.104   1.200  0.1410  0.0318  0.1161
 1381TIP3    H125634   1.913   2.085   1.287  0.7050 -0.5072 -0.2412
 1381TIP3    H225635   1.877   2.020   1.154 -0.2314  0.3003 -0.3901
 1382TIP3   OH225636   1.638   1.081  13.499 -0.8214 -0.1740  0.7077
 1382TIP3    H125637   1.608   1.010  13.442 -1.3838 -0.4163  1.2954
 1382TIP3    H225638   1.665   1.037  13.579  1.6747 -0.0226  0.0071
 1383TIP3   OH225639   4.312   3.172  15.996 -0.1690 -0.0055 -0.3161
 1383TIP3    H125640   4.319   3.251  15.943  0.4416 -0.3873 -0.8153
 1383TIP3    H225641   4.286   3.203  16.083 -2.8060  0.4770 -1.2362
 1384TIP3   OH225642   3.417   4.932  12.853 -0.2063 -0.1141 -0.3343
 1384TIP3    H125643   3.384   4.894  12.771 -1.9165  0.4614  0.0615
 1384TIP3    H225644   3.365   4.891  12.921  1.2400 -0.6159  0.4866
 1385TIP3   OH225645   4.068   1.173   1.427 -0.6831 -0.0720 -0.2179
 1385TIP3    H125646   4.014   1.202   1.353 -0.4902 -0.4256 -0.4972
 1385TIP3    H225647   4.023   1.095   1.460 -0.0009 -0.7415 -0.8506
 1386TIP3   OH225648   1.304   5.049  13.946  0.1241  0.0519 -0.0296
 1386TIP3    H125649   1.303   5.066  14.040  0.8191  0.7478 -0.1497
 1386TIP3    H225650   1.253   4.968  13.936  1.6321 -1.0581  1.1472
 1387TIP3   OH225651   2.626   4.223  13.325 -0.1065  0.5029  0.0561
 1387TIP3    H125652   2.540   4.182  13.331  0.8945 -1.4595  1.4664
 1387TIP3    H225653   2.661   4.193  13.241 -0.7805  1.2797 -0.5021
 1388TIP3   OH225654   3.997   3.005   1.664 -0.0751 -0.6530  0.0561
 1388TIP3    H125655   4.083   2.988   1.703  0.1106  0.0963 -0.0208
 1388TIP3    H225656   4.014   3.009   1.570 -0.1957 -0.4920  0.0418
 1389TIP3   OH225657   4.342   3.769  13.510  0.1530  0.0761 -0.2700
 1389TIP3    H125658   4.334   3.781  13.416 -0.4953 -0.0881 -0.2371
 1389TIP3    H225659   4.427   3.808  13.532  0.1669  0.3925 -0.8708
 1390TIP3   OH225660   0.147   4.076   5.909  0.2485 -0.5549 -0.2919
 1390TIP3    H125661   0.183   4.051   5.994 -1.9226 -0.8758  0.5544
 1390TIP3    H225662   0.150   3.995   5.857 -0.2578 -0.8373  0.1226
 1391TIP3   OH225663   1.300   5.021  11.902  0.2702  0.3654 -0.1623
 1391TIP3    H125664   1.269   5.085  11.967  0.3584  0.7525 -0.4973
 1391TIP3    H225665   1.341   5.074  11.834  0.7006 -0.0802 -0.2508
 1392TIP3   OH225666   5.182   3.269   1.931 -0.4276  0.1386 -0.1127
 1392TIP3    H125667   5.266   3.236   1.900 -1.0611 -1.0619 -0.5768
 1392TIP3    H225668   5.176   3.358   1.895 -0.1157 -0.3830 -1.4526
 1393TIP3   OH225669   4.042   5.565  14.142  0.2102 -0.2860  0.4926
 1393TIP3    H125670   4.037   5.476  14.108  1.6586  0.0500 -0.6695
 1393TIP3    H225671   3.990   5.563  14.222  0.0321 -2.1110  0.3609
 1394TIP3   OH225672   4.159   5.942  13.964  0.0661  0.0510  0.0490
 1394TIP3    H125673   4.227   5.876  13.972  0.9030  0.7128 -1.4235
 1394TIP3    H225674   4.080   5.900  13.998  1.3076 -0.5076  2.3446
 1395TIP3   OH225675   4.246   4.449   5.812 -0.6588 -0.5578 -0.3865
 1395TIP3    H125676   4.203   4.528   5.778 -0.1137  0.8844  2.1102
 1395TIP3    H225677   4.217   4.444   5.903  1.7521 -1.5092  0.3540
 1396TIP3   OH225678   0.010   0.671  11.156 -0.9505  0.3440  0.2291
 1396TIP3    H125679   0.089   0.620  11.176 -0.3972  1.2308  0.3155
 1396TIP3    H225680   0.034   0.725  11.081 -2.1593 -0.9393 -1.1229
 1397TIP3   OH225681   6.549   0.935  11.304  0.3917  0.1777  0.1256
 1397TIP3    H125682   6.611   0.869  11.334  0.1974  0.5943  1.5090
 1397TIP3    H225683   6.503   0.894  11.231  0.5391 -1.0742  0.7189
 1398TIP3   OH225684   4.518   0.019   0.421  0.2930 -0.4993  0.4549
 1398TIP3    H125685   4.595  -0.039   0.418  1.6958  1.3878 -1.3439
 1398TIP3    H225686   4.515   0.059   0.334 -1.8929  0.5500  0.9928
 1399TIP3   OH225687   5.960   2.137   0.787 -0.0670  0.5228 -0.0866
 1399TIP3    H125688   5.932   2.048   0.808  0.8857  0.1410 -0.4045
 1399TIP3    H225689   5.902   2.193   0.839 -0.5019 -0.2887  0.3144
 1400TIP3   OH225690   3.707   2.238  11.287  0.2816 -0.5871  0.6320
 1400TIP3    H125691   3.698   2.320  11.335  1.9504  0.5139 -0.8502
 1400TIP3    H225692   3.800   2.217  11.293  0.2778 -1.1254 -0.9557
 1401TIP3   OH225693   0.698   0.741   3.264 -0.4480  0.5158 -0.6683
 1401TIP3    H125694   0.692   0.690   3.345 -0.2090 -0.0522 -1.0098
 1401TIP3    H225695   0.743   0.821   3.291 -1.4950  0.8945  0.0256
 1402TIP3   OH225696   2.423   5.384  12.616 -0.0212 -0.6864 -0.1016
 1402TIP3    H125697   2.486   5.430  12.671  1.0222 -0.1605 -1.6861
 1402TIP3    H225698   2.444   5.413  12.527 -0.8070 -2.5256 -0.9117
 1403TIP3   OH225699   4.553   0.324  13.520 -0.2658  0.6236 -0.2341
 1403TIP3    H125700   4.603   0.370  13.453  1.8358  0.3927  1.1277
 1403TIP3    H225701   4.495   0.391  13.557  0.0180  1.2308 -0.8791
 1404TIP3   OH225702   6.207   6.420   5.820 -0.1224  0.1345  0.0428
 1404TIP3    H125703   6.240   6.465   5.898 -1.1592 -1.2282  1.2820
 1404TIP3    H225704   6.115   6.404   5.838 -0.8084  1.3173 -2.2004
 1405TIP3   OH225705   3.405   6.549  14.427 -0.1112  0.3478 -0.2744
 1405TIP3    H125706   3.464   6.505  14.366 -0.4550 -0.5964  0.0603
 1405TIP3    H225707   3.460   6.571  14.502 -0.2543 -0.8655  0.1963
 1406TIP3   OH225708   2.241   1.115  14.565  0.8836  0.2751 -0.3956
 1406TIP3    H125709   2.313   1.065  14.602  0.2398 -1.9012 -1.9864
 1406TIP3    H225710   2.267   1.132  14.474  0.2520  1.1962 -0.4234
 1407TIP3   OH225711   4.065   0.243  14.462  0.5842  0.4221 -0.4396
 1407TIP3    H125712   4.090   0.283  14.379  0.4852  3.2511  0.8399
 1407TIP3    H225713   4.143   0.196  14.490  1.2200  0.9997 -1.2202
 1408TIP3   OH225714   3.013   5.769   4.581  0.2767  0.5909 -0.4258
 1408TIP3    H125715   2.958   5.766   4.502 -0.2179  2.8551 -0.1903
 1408TIP3    H225716   2.966   5.714   4.644 -1.0373  1.4111 -0.6647
 1409TIP3   OH225717   3.486   5.065   5.288  0.1781  0.0313 -0.0942
 1409TIP3    H125718   3.407   5.031   5.329 -0.2894 -0.5188 -1.4141
 1409TIP3    H225719   3.511   5.141   5.341 -1.2644  0.2440  0.2871
 1410TIP3   OH225720   2.232   1.617  13.635 -0.4527 -0.0747 -0.7217
 1410TIP3    H125721   2.147   1.584  13.608 -0.6692  1.0097 -1.3655
 1410TIP3    H225722   2.214   1.699  13.680  0.2173 -0.0095 -0.5566
 1411TIP3   OH225723   3.483   2.943   3.962 -0.0313  0.1860 -0.1610
 1411TIP3    H125724   3.523   2.863   3.926  1.2989  0.3249  0.9986
 1411TIP3    H225725   3.401   2.913   4.002 -0.2611 -0.3584 -1.0183
 1412TIP3   OH225726   0.561   5.996   2.816 -0.0078 -0.4849  0.3661
 1412TIP3    H125727   0.556   5.929   2.884 -0.5166 -1.0812 -0.2551
 1412TIP3    H225728   0.518   6.072   2.855 -0.1314 -0.7607  0.7798
 1413TIP3   OH225729   1.384   5.420  16.683  0.8504  0.0062  0.6999
 1413TIP3    H125730   1.295   5.446  16.706  0.4599 -1.2076  0.6106
 1413TIP3    H225731   1.401   5.465  16.600  0.2557  0.0987  0.6250
 1414TIP3   OH225732   0.809   6.188  16.997 -0.3620 -0.2396  0.1093
 1414TIP3    H125733   0.749   6.142  16.938 -1.6727 -0.4007  1.5270
 1414TIP3    H225734   0.754   6.214  17.071  1.1570  0.3231  1.0572
 1415TIP3   OH225735   1.177   4.481   5.601  1.3971  0.3056  0.5793
 1415TIP3    H125736   1.119   4.557   5.608 -0.7522 -1.2129  0.0386
 1415TIP3    H225737   1.252   4.503   5.656 -0.1852  1.9296  2.1902
 1416TIP3   OH225738   3.466   6.776  14.964 -0.3704 -0.0696  0.3779
 1416TIP3    H125739   3.473   6.865  14.996  1.6437  0.4236 -1.2982
 1416TIP3    H225740   3.512   6.723  15.029 -0.5386  0.2780  0.7779
 1417TIP3   OH225741   2.586   2.748  12.499 -0.2495 -0.3057  0.0600
 1417TIP3    H125742   2.512   2.696  12.531 -0.7600 -0.1497 -0.8595
 1417TIP3    H225743   2.550   2.801  12.429  0.2528  1.3715  1.0403
 1418TIP3   OH225744   2.759   6.086  14.474 -0.0509  0.4794  0.0016
 1418TIP3    H125745   2.683   6.057  14.424  2.2918 -0.5044 -3.1268
 1418TIP3    H225746   2.806   6.145  14.414  2.7179 -0.5279  1.1091
 1419TIP3   OH225747   3.913   4.911  15.396 -0.7295  0.0415  0.2449
 1419TIP3    H125748   3.839   4.871  15.349 -0.6698 -0.9112  0.9330
 1419TIP3    H225749   3.967   4.836  15.422 -0.5055  0.5991  1.3953
 1420TIP3   OH225750   4.587   2.799   0.068 -0.3129 -0.5196  0.0712
 1420TIP3    H125751   4.552   2.764   0.150 -2.6485 -0.1032 -0.7045
 1420TIP3    H225752   4.633   2.725   0.029 -0.0070 -0.9951  1.3121
 1421TIP3   OH225753   3.346   6.133  13.697 -0.5752  0.7153 -0.2491
 1421TIP3    H125754   3.256   6.132  13.663 -0.2445  2.1040 -1.2256
 1421TIP3    H225755   3.358   6.222  13.728  1.5226  1.5048 -3.1052
 1422TIP3   OH225756   1.819   5.531  11.829  0.4000  0.0399  0.0291
 1422TIP3    H125757   1.752   5.597  11.846  0.1671 -0.0144 -0.6762
 1422TIP3    H225758   1.774   5.460  11.784  1.5979  1.5563 -3.7144
 1423TIP3   OH225759   2.547   1.979  16.730 -0.0146 -0.1611 -0.0735
 1423TIP3    H125760   2.598   1.903  16.704 -0.9463 -0.9486  0.3857
 1423TIP3    H225761   2.462   1.944  16.756 -1.5863  1.3361 -2.9617
 1424TIP3   OH225762   6.584   6.174   3.797 -0.0596  0.1408 -0.7129
 1424TIP3    H125763   6.669   6.216   3.809 -0.5074  0.8502 -0.0211
 1424TIP3    H225764   6.568   6.180   3.703  1.3778 -1.4233 -1.0941
 1425TIP3   OH225765   6.790   0.895  16.419 -0.0336 -0.0674  0.2081
 1425TIP3    H125766   6.799   0.800  16.430  0.7461  0.0321  0.4284
 1425TIP3    H225767   6.713   0.905  16.361 -0.1542 -0.8254  0.2315
 1426TIP3   OH225768   5.292   4.949  16.762  0.8265 -0.4265  0.1045
 1426TIP3    H125769   5.217   4.917  16.812  0.0179  0.4797 -0.5230
 1426TIP3    H225770   5.331   4.870  16.723  1.3221 -1.1199  1.9376
 1427TIP3   OH225771   5.591   2.958   4.508  0.2208 -0.3227  0.4570
 1427TIP3    H125772   5.514   2.914   4.544  0.4133 -1.4075 -0.4574
 1427TIP3    H225773   5.610   2.912   4.427  0.5156  1.3450 -0.4560
 1428TIP3   OH225774   1.221   0.536   6.016  0.0898 -0.0774 -0.0269
 1428TIP3    H125775   1.285   0.565   6.081 -0.0765  1.5544 -0.5739
 1428TIP3    H225776   1.223   0.440   6.022 -0.2929  0.0193  2.7561
 1429TIP3   OH225777   6.011   5.421   2.320 -0.9192  0.0159 -0.3626
 1429TIP3    H125778   5.937   5.474   2.349 -1.2009 -0.9938  0.8364
 1429TIP3    H225779   6.012   5.430   2.225 -3.1411 -0.6767 -0.4739
 1430TIP3   OH225780   3.863   3.752   0.432 -0.1322 -0.4773 -0.1082
 1430TIP3    H125781   3.830   3.801   0.507 -2.0649 -0.2295 -1.0849
 1430TIP3    H225782   3.958   3.763   0.436 -0.4468  2.4093  0.3496
 1431TIP3   OH225783   1.948   5.139  12.689 -0.3289  0.5437 -0.8900
 1431TIP3    H125784   1.933   5.184  12.605 -1.4916  0.3913 -0.7706
 1431TIP3    H225785   1.885   5.179  12.749  0.5011  0.6565 -0.0721
 1432TIP3   OH225786   3.273   0.859  11.705 -0.7214  0.1662  0.2938
 1432TIP3    H125787   3.196   0.810  11.735  0.6972 -3.1012 -1.1449
 1432TIP3    H225788   3.342   0.835  11.766 -0.2094  1.0215  0.0523
 1433TIP3   OH225789   1.985   0.196  10.552 -0.8980  0.5728  0.4437
 1433TIP3    H125790   1.899   0.200  10.594 -1.0443  0.0339  0.2061
 1433TIP3    H225791   1.966   0.197  10.458 -0.7683 -1.2786  0.3683
 1434TIP3   OH225792   2.606   5.711  16.186  0.1534  0.3937  0.8324
 1434TIP3    H125793   2.538   5.767  16.225 -0.2847  0.4186  0.0486
 1434TIP3    H225794   2.626   5.648  16.255 -0.7182  0.3454  1.0614
 1435TIP3   OH225795   5.283   0.403  16.083 -0.2781  0.5767  0.1503
 1435TIP3    H125796   5.329   0.428  16.002  2.2618 -1.0194  1.0465
 1435TIP3    H225797   5.291   0.479  16.140  0.9218  0.4611  0.1419
 1436TIP3   OH225798   2.846   5.097   4.767 -0.4999  0.7790  0.0593
 1436TIP3    H125799   2.926   5.054   4.798  0.9483  2.2756 -1.4594
 1436TIP3    H225800   2.788   5.025   4.741  1.6387 -0.3068 -1.8847
 1437TIP3   OH225801   6.449   1.130  16.135  0.6039 -0.3798  0.3670
 1437TIP3    H125802   6.419   1.093  16.218 -0.5834  0.7867  0.4596
 1437TIP3    H225803   6.436   1.224  16.143 -0.0530 -0.3009 -1.3574
 1438TIP3   OH225804   4.763   3.785  15.476  0.0952  0.3999 -0.3867
 1438TIP3    H125805   4.846   3.753  15.511 -0.3786  0.0265  0.4139
 1438TIP3    H225806   4.715   3.706  15.451  0.2266  0.6428 -1.4273
 1439TIP3   OH225807   1.264   1.094   0.346  0.7337 -0.2608  0.7539
 1439TIP3    H125808   1.315   1.013   0.346  0.8069 -0.2301  2.2746
 1439TIP3    H225809   1.229   1.100   0.435  0.5919  1.2911  0.6046
 1440TIP3   OH225810   4.564   3.083   2.925 -0.4597 -0.2737  0.2842
 1440TIP3    H125811   4.633   3.088   2.991  0.1905  0.8437 -0.4574
 1440TIP3    H225812   4.575   3.163   2.874 -1.6611 -0.5940 -0.4804
 1441TIP3   OH225813   1.582   6.247  15.782 -0.0537 -0.5987  0.1477
 1441TIP3    H125814   1.602   6.328  15.734  1.5689 -0.9388  0.2017
 1441TIP3    H225815   1.621   6.260  15.868  0.7284 -1.6403 -0.0323
 1442TIP3   OH225816   6.720   5.994   2.319  0.0433 -0.4246  0.1061
 1442TIP3    H125817   6.670   5.968   2.396 -0.5838  1.5986  0.3970
 1442TIP3    H225818   6.775   6.066   2.348  0.0890  0.1058 -1.2212
 1443TIP3   OH225819   0.807   6.580   5.284 -0.0012  0.1378  0.0005
 1443TIP3    H125820   0.833   6.663   5.324 -0.3640 -0.1626  0.8866
 1443TIP3    H225821   0.763   6.532   5.355  0.7720 -1.0708 -0.3108
 1444TIP3   OH225822   1.256   3.279  15.792 -0.6710 -0.0822 -0.4085
 1444TIP3    H125823   1.246   3.199  15.741  0.3207 -0.6032  0.1971
 1444TIP3    H225824   1.258   3.250  15.883  1.2183  0.4501 -0.2517
 1445TIP3   OH225825   1.384   0.932   5.019 -0.3747 -0.1856  0.2437
 1445TIP3    H125826   1.447   0.939   5.091 -1.0831 -0.4621  0.8936
 1445TIP3    H225827   1.413   0.856   4.969  0.1397  0.0278  0.2099
 1446TIP3   OH225828   4.846   5.636  10.448  0.1890 -0.1824  0.4808
 1446TIP3    H125829   4.929   5.646  10.494 -0.4035  0.9142  1.3327
 1446TIP3    H225830   4.827   5.542  10.453  0.6113 -0.2160  1.6319
 1447TIP3   OH225831   4.380   3.690  15.681  0.1324  1.1336  0.1941
 1447TIP3    H125832   4.408   3.753  15.615  2.0737 -0.3521 -0.4553
 1447TIP3    H225833   4.288   3.674  15.661  0.4688  1.3286 -1.6768
 1448TIP3   OH225834   2.594   2.680   1.162 -0.5150 -0.0029 -0.2029
 1448TIP3    H125835   2.556   2.620   1.098  2.1182 -0.2740 -1.5438
 1448TIP3    H225836   2.622   2.624   1.234 -0.2906 -0.0966 -0.3631
 1449TIP3   OH225837   6.126   0.035   3.260  0.4947  0.3680  0.3728
 1449TIP3    H125838   6.207  -0.015   3.262  1.0831  1.3162  0.6012
 1449TIP3    H225839   6.144   0.109   3.202  0.7924  2.2119  2.7310
 1450TIP3   OH225840   2.717   5.621  15.526 -0.1252  0.2248  0.5089
 1450TIP3    H125841   2.635   5.653  15.563  0.5342  0.2064  1.9908
 1450TIP3    H225842   2.756   5.698  15.484 -0.3850  0.4654  0.7095
 1451TIP3   OH225843   0.280   4.055  14.509  0.5352  0.1016  0.6284
 1451TIP3    H125844   0.364   4.012  14.524  1.4161  1.6044  0.1318
 1451TIP3    H225845   0.296   4.147  14.532 -0.4562  0.7578 -1.2396
 1452TIP3   OH225846   1.735   6.164  13.946  0.0977  0.1670  0.6681
 1452TIP3    H125847   1.791   6.149  14.023  1.1124  0.4469 -0.0090
 1452TIP3    H225848   1.753   6.254  13.921  1.0940 -0.4707 -0.9594
 1453TIP3   OH225849   6.800   5.094   5.675  0.0172  0.4185 -0.4247
 1453TIP3    H125850   6.727   5.043   5.712 -0.5188  2.5278  1.5116
 1453TIP3    H225851   6.878   5.057   5.716 -0.2461  0.2882 -0.0360
 1454TIP3   OH225852   2.907   3.808  15.075  0.2613  0.1180 -0.3227
 1454TIP3    H125853   2.978   3.839  15.132 -0.9268  1.0392  0.6926
 1454TIP3    H225854   2.930   3.717  15.056  0.6782 -0.2151  1.6399
 1455TIP3   OH225855   5.727   3.412   2.802 -0.2372 -0.9519  0.2152
 1455TIP3    H125856   5.762   3.334   2.760  1.2308 -1.3592  2.1338
 1455TIP3    H225857   5.643   3.384   2.838 -0.0627 -1.4377  0.2510
 1456TIP3   OH225858   0.984   5.050   2.188 -0.5638  0.0257 -0.6278
 1456TIP3    H125859   1.029   5.123   2.145 -0.3097  0.5716  0.5370
 1456TIP3    H225860   1.054   4.990   2.212 -0.4561  0.7905  1.0243
 1457TIP3   OH225861   1.051   0.038  13.953 -0.0349  0.0666  0.1405
 1457TIP3    H125862   1.094   0.073  13.875 -1.3248  0.6112 -0.3372
 1457TIP3    H225863   1.020  -0.049  13.926  2.2108 -1.0261  0.9935
 1458TIP3   OH225864   0.725   4.311  12.477 -0.2174  0.1499 -0.0199
 1458TIP3    H125865   0.801   4.342  12.525  0.7381  0.0498 -1.4344
 1458TIP3    H225866   0.745   4.330  12.385 -1.9100  0.1500 -0.3986
 1459TIP3   OH225867   3.066   0.311  15.907 -0.3987  0.3205  0.2667
 1459TIP3    H125868   3.024   0.229  15.934 -2.8369  0.6377 -2.2655
 1459TIP3    H225869   3.016   0.338  15.830  1.0138  3.6879  0.4749
 1460TIP3   OH225870   3.830   2.103   5.008 -0.4080 -0.1569  0.0660
 1460TIP3    H125871   3.857   2.193   4.990 -0.4517  0.1696  1.5996
 1460TIP3    H225872   3.892   2.071   5.073  0.5734 -1.7819 -1.6320
 1461TIP3   OH225873   0.053   5.664   0.685  0.0290 -0.5171  0.0663
 1461TIP3    H125874   0.139   5.636   0.655 -0.0741 -1.2938  0.4949
 1461TIP3    H225875   0.066   5.755   0.713  0.4716 -0.2988 -0.8330
 1462TIP3   OH225876   6.060   3.944   3.375  0.6243 -0.0170  0.1267
 1462TIP3    H125877   6.045   3.990   3.458 -0.3469  0.7229 -0.4541
 1462TIP3    H225878   5.975   3.946   3.331  0.8468 -1.4204 -0.3852
 1463TIP3   OH225879   0.415   6.087   5.992 -0.3265  0.1200 -0.1506
 1463TIP3    H125880   0.359   6.026   5.944 -1.5322  1.4371 -0.4379
 1463TIP3    H225881   0.358   6.160   6.015  0.6422  0.3115  1.8207
 1464TIP3   OH225882   6.416   4.828  17.067  0.6515 -0.0681  0.3651
 1464TIP3    H125883   6.475   4.891  17.109  1.3439 -2.1327  2.6193
 1464TIP3    H225884   6.330   4.848  17.104  0.0824  2.1263 -1.9850
 1465TIP3   OH225885   4.585   2.981   4.052  0.2187  0.3026 -0.5535
 1465TIP3    H125886   4.600   2.987   4.147 -3.5232  2.3354  0.0047
 1465TIP3    H225887   4.671   2.991   4.013  1.3519  3.3795  2.5354
 1466TIP3   OH225888   4.681   2.816   1.471  0.6490  0.2984  0.1859
 1466TIP3    H125889   4.750   2.791   1.532 -0.1426 -1.9950  0.2041
 1466TIP3    H225890   4.622   2.871   1.523  1.0702  0.0511  0.9305
 1467TIP3   OH225891   0.481   2.739   4.190 -0.7501  0.0360  0.2141
 1467TIP3    H125892   0.481   2.647   4.165  0.8413 -0.2535  1.1710
 1467TIP3    H225893   0.440   2.784   4.116 -0.0055 -1.2558 -1.0180
 1468TIP3   OH225894   5.495   5.437  15.377  0.3165 -0.0190 -0.2549
 1468TIP3    H125895   5.555   5.363  15.362 -0.6257 -1.2372  1.7945
 1468TIP3    H225896   5.430   5.429  15.307 -0.8824 -2.3221  1.0750
 1469TIP3   OH225897   0.393   6.532  12.216 -0.3851  1.1226 -0.1590
 1469TIP3    H125898   0.354   6.471  12.279 -0.7231  1.5454  0.0462
 1469TIP3    H225899   0.485   6.507  12.212 -0.8934 -0.6207 -1.4895
 1470TIP3   OH225900   2.281   1.748  11.563 -0.3930  0.1042  0.0033
 1470TIP3    H125901   2.244   1.805  11.630  0.2618 -0.2791  0.7009
 1470TIP3    H225902   2.245   1.661  11.581  0.2401 -0.1182  0.2295
 1471TIP3   OH225903   0.678   6.334   2.546  0.3248 -0.0940 -0.2385
 1471TIP3    H125904   0.723   6.251   2.561  1.4195  0.5017 -0.2324
 1471TIP3    H225905   0.586   6.309   2.534  0.6463 -1.3051 -0.2378
 1472TIP3   OH225906   5.405   4.243  16.049  0.0348 -0.0901  0.4702
 1472TIP3    H125907   5.496   4.241  16.018 -0.2144 -0.7626 -0.2176
 1472TIP3    H225908   5.406   4.309  16.119  1.3808 -1.1623  1.4930
 1473TIP3   OH225909   6.611   6.493  12.517 -0.0734 -0.2561 -0.6534
 1473TIP3    H125910   6.643   6.583  12.508 -1.6779  0.2571 -1.4384
 1473TIP3    H225911   6.666   6.441  12.458  0.9934  0.1722 -0.0404
 1474TIP3   OH225912   1.540   3.610   1.755  0.2063 -0.2640  0.0047
 1474TIP3    H125913   1.494   3.574   1.679 -0.8737 -1.8644  1.3985
 1474TIP3    H225914   1.499   3.695   1.770 -0.3747 -0.4579 -0.4865
 1475TIP3   OH225915   2.317   0.990   3.963 -0.3167  0.1945  0.5333
 1475TIP3    H125916   2.295   0.958   4.050 -1.1725 -0.1033  0.2102
 1475TIP3    H225917   2.320   1.085   3.972  0.9728  0.1082  1.2011
 1476TIP3   OH225918   5.691   0.218  12.965 -0.1874 -0.1870 -0.1675
 1476TIP3    H125919   5.603   0.193  12.994  0.3727 -1.3863  0.5400
 1476TIP3    H225920   5.699   0.180  12.877 -1.0989  1.6365 -1.0722
 1477TIP3   OH225921   5.025   1.315   1.287 -0.5910  0.2186  0.5344
 1477TIP3    H125922   4.991   1.384   1.230 -0.8468  0.3981  0.8981
 1477TIP3    H225923   5.009   1.348   1.376  1.8968  0.9660  0.7312
 1478TIP3   OH225924   3.132   4.904  15.623 -0.0666  0.8571 -0.3561
 1478TIP3    H125925   3.060   4.840  15.622  1.1696 -0.5395 -2.3045
 1478TIP3    H225926   3.095   4.982  15.583 -0.9833  0.6967  0.1557
 1479TIP3   OH225927   6.098   0.337   2.966  0.2349 -0.1737  0.3660
 1479TIP3    H125928   6.030   0.277   2.937 -1.2404  1.3020  0.7393
 1479TIP3    H225929   6.090   0.413   2.908  0.7091  0.5626  1.2583
 1480TIP3   OH225930   1.842   3.177   0.710 -0.7254 -0.1932 -0.4397
 1480TIP3    H125931   1.857   3.236   0.784  1.4340 -0.1276 -0.9019
 1480TIP3    H225932   1.770   3.217   0.662 -0.6803  0.9369  0.4099
 1481TIP3   OH225933   5.906   3.991   2.338  0.0585  0.2606  0.0146
 1481TIP3    H125934   5.872   4.056   2.277  1.2435  0.8433 -0.0375
 1481TIP3    H225935   5.989   3.964   2.300  1.0107  0.9265  1.5846
 1482TIP3   OH225936   4.429   2.841   6.329 -0.2521  0.7652 -0.3633
 1482TIP3    H125937   4.487   2.889   6.270  0.6078 -0.4769 -0.5487
 1482TIP3    H225938   4.374   2.788   6.271  0.3781 -0.2172 -0.0931
 1483TIP3   OH225939   5.054   0.114   2.171 -0.0940  0.5168  0.5149
 1483TIP3    H125940   5.047   0.196   2.219  0.2450  0.3330  0.8856
 1483TIP3    H225941   5.046   0.139   2.079 -0.7678  0.8639  0.6696
 1484TIP3   OH225942   6.071   2.452   1.584  0.1248  0.1216  0.0418
 1484TIP3    H125943   6.009   2.391   1.625  1.4211 -1.6131 -0.5378
 1484TIP3    H225944   6.123   2.398   1.524  1.4789  1.7482 -0.2987
 1485TIP3   OH225945   1.415   1.476   6.892 -0.1757 -0.1167 -0.5546
 1485TIP3    H125946   1.326   1.503   6.915 -0.1764 -0.4904 -0.1058
 1485TIP3    H225947   1.423   1.387   6.928  0.8614  0.4497  0.6473
 1486TIP3   OH225948   5.100   5.086  13.463  0.3572 -0.4238 -0.0301
 1486TIP3    H125949   5.090   4.991  13.469 -0.5833 -0.3422 -0.2587
 1486TIP3    H225950   5.148   5.100  13.382 -4.6526 -0.3888 -3.1767
 1487TIP3   OH225951   2.542   6.093  13.729  0.3323 -0.4514 -0.6180
 1487TIP3    H125952   2.583   6.028  13.671  2.4846  0.4161 -0.1101
 1487TIP3    H225953   2.600   6.098  13.805  0.3281  2.2020 -0.7345
 1488TIP3   OH225954   5.329   6.546  16.204  0.3818 -0.7030 -0.0771
 1488TIP3    H125955   5.280   6.579  16.279 -1.2116 -2.1793 -0.4460
 1488TIP3    H225956   5.263   6.530  16.137  1.6685 -0.3694 -1.4611
 1489TIP3   OH225957   5.887   2.958   4.633 -0.6100  0.1479 -0.3492
 1489TIP3    H125958   5.817   2.942   4.570 -0.6692  2.8482 -1.0015
 1489TIP3    H225959   5.844   3.001   4.706  0.1312  0.5301 -0.1397
 1490TIP3   OH225960   0.768   4.128  15.052  0.4286  0.3261 -0.6485
 1490TIP3    H125961   0.682   4.085  15.063  0.7489 -0.4503 -1.1254
 1490TIP3    H225962   0.791   4.112  14.961  0.5007  1.6479 -0.8619
 1491TIP3   OH225963   2.803   0.340  15.010  0.0575  0.3017 -0.0161
 1491TIP3    H125964   2.783   0.258  15.055  3.3141 -0.0948  0.8522
 1491TIP3    H225965   2.832   0.314  14.923  1.2230  0.5206  0.3052
 1492TIP3   OH225966   1.321   6.703  16.930  0.1623  0.6538 -0.3282
 1492TIP3    H125967   1.275   6.630  16.889 -0.6942 -0.1502  1.9984
 1492TIP3    H225968   1.366   6.665  17.005  0.5914  2.3256  0.2909
 1493TIP3   OH225969   0.385   4.089   3.465  0.2697 -0.1440  0.3090
 1493TIP3    H125970   0.437   4.051   3.536  0.2866 -0.2438  0.2432
 1493TIP3    H225971   0.322   4.021   3.442  1.0319 -0.5662 -0.5734
 1494TIP3   OH225972   0.506   3.115  13.343 -0.2127 -0.2026 -0.0232
 1494TIP3    H125973   0.442   3.185  13.353 -1.0294 -0.6275 -2.0418
 1494TIP3    H225974   0.586   3.150  13.382 -1.9137 -0.1083  3.6535
 1495TIP3   OH225975   2.508   0.234   4.613  0.1789  0.3717 -0.2865
 1495TIP3    H125976   2.491   0.302   4.548  0.9245  1.4716  0.6480
 1495TIP3    H225977   2.533   0.157   4.562  2.2842  1.6684 -1.2472
 1496TIP3   OH225978   3.791   2.885  14.481 -0.0642 -0.4998 -0.0641
 1496TIP3    H125979   3.886   2.877  14.469  0.0568 -0.7779  1.0247
 1496TIP3    H225980   3.774   2.844  14.566 -0.8124  1.6553  0.8674
 1497TIP3   OH225981   5.480   3.121  11.458 -0.0886  0.9707 -0.2547
 1497TIP3    H125982   5.440   3.109  11.372 -1.6037 -1.0577  0.7014
 1497TIP3    H225983   5.574   3.120  11.441 -0.3415 -0.7971 -1.7440
 1498TIP3   OH225984   3.199   6.683   1.624 -0.3529 -0.2000  0.3756
 1498TIP3    H125985   3.197   6.620   1.697 -0.7408 -0.6029  0.0131
 1498TIP3    H225986   3.254   6.754   1.657  1.4906 -1.4915  0.1748
 1499TIP3   OH225987   3.315   2.053  14.068 -0.1591 -0.3269 -0.0160
 1499TIP3    H125988   3.330   2.117  13.999 -1.7034 -0.6047 -0.6380
 1499TIP3    H225989   3.384   2.069  14.132 -0.2393  1.6174 -0.4000
 1500TIP3   OH225990   2.163   5.325  12.531  0.0076 -0.0054  0.3045
 1500TIP3    H125991   2.250   5.325  12.570  1.3586 -2.0176 -2.5173
 1500TIP3    H225992   2.157   5.409  12.485  0.9725 -0.3857 -0.5299
 1501TIP3   OH225993   1.122   5.853  16.211 -0.2388 -0.1158  0.1051
 1501TIP3    H125994   1.060   5.880  16.279  1.3518  1.4389  0.9663
 1501TIP3    H225995   1.073   5.861  16.130 -1.2273  0.9352  0.7890
 1502TIP3   OH225996   4.910   1.512   1.113 -0.4627  0.5732  0.0729
 1502TIP3    H125997   4.954   1.595   1.097  0.3746  0.0136 -0.5950
 1502TIP3    H225998   4.838   1.533   1.172  0.3879  1.5921  0.7545
 1503TIP3   OH225999   2.504   1.773  10.458  0.4982  0.1409  0.4170
 1503TIP3    H126000   2.532   1.822  10.535 -0.5680 -0.2399  1.0656
 1503TIP3    H226001   2.466   1.840  10.401  0.5280  0.3052  0.5867
 1504TIP3   OH226002   4.804   2.816   2.526 -0.2114  0.1548  0.1146
 1504TIP3    H126003   4.883   2.762   2.523 -0.1447  0.3119 -1.0119
 1504TIP3    H226004   4.746   2.777   2.460 -0.4798  0.9720 -0.1355
 1505TIP3   OH226005   1.311   5.151   1.176  0.0733 -0.1009  0.5099
 1505TIP3    H126006   1.371   5.085   1.141 -0.5487 -0.6498  0.4601
 1505TIP3    H226007   1.322   5.146   1.271 -0.2639 -0.5668  0.5290
 1506TIP3   OH226008   4.965   6.364  17.094 -0.3974  0.0184 -0.6039
 1506TIP3    H126009   5.051   6.405  17.088  0.3022 -1.5748 -2.0750
 1506TIP3    H226010   4.982   6.277  17.131 -1.5065  0.0849  0.0876
 1507TIP3   OH226011   5.505   0.871  14.874  0.6598  0.1997  0.0727
 1507TIP3    H126012   5.429   0.925  14.897  1.4220  1.3099 -0.0292
 1507TIP3    H226013   5.555   0.863  14.955 -0.0215 -1.2986  0.3674
 1508TIP3   OH226014   6.174   3.699   0.796 -0.0463  0.2588 -0.0165
 1508TIP3    H126015   6.185   3.731   0.886 -1.8310  0.3583  0.1810
 1508TIP3    H226016   6.229   3.757   0.743  1.0391  0.1881  1.0084
 1509TIP3   OH226017   4.742   3.085  15.189 -0.2145  0.0774  0.3668
 1509TIP3    H126018   4.733   3.024  15.262 -0.2425 -1.0074 -0.5201
 1509TIP3    H226019   4.810   3.147  15.217 -0.9974  0.3202  1.7294
 1510TIP3   OH226020   2.227   3.335   1.843  0.0424  0.5563 -0.1227
 1510TIP3    H126021   2.134   3.348   1.826 -0.5696 -2.4158  0.6753
 1510TIP3    H226022   2.257   3.278   1.772  0.9903  0.6196  0.2199
 1511TIP3   OH226023   4.829   3.748  16.585  0.0639 -0.1903  0.0065
 1511TIP3    H126024   4.838   3.656  16.559 -2.6366 -0.1015 -1.3331
 1511TIP3    H226025   4.896   3.794  16.535  1.4339 -1.4095  0.6889
 1512TIP3   OH226026   0.440   1.309  14.435 -0.3754 -0.2096  0.2841
 1512TIP3    H126027   0.471   1.399  14.442  0.0321 -0.4052  0.9827
 1512TIP3    H226028   0.377   1.311  14.362  0.8534  0.2947 -0.7751
 1513TIP3   OH226029   3.075   1.438  11.239  0.1510  0.7093  0.2553
 1513TIP3    H126030   3.077   1.518  11.290 -1.2135  0.7992  0.1783
 1513TIP3    H226031   3.062   1.368  11.303  0.7800  0.6064  0.2680
 1514TIP3   OH226032   5.972   4.015   5.066 -0.2570 -0.0395  0.5375
 1514TIP3    H126033   5.989   4.020   4.972  1.0245 -1.6655  0.6501
 1514TIP3    H226034   5.879   4.036   5.074 -0.1325  1.2476 -0.9570
 1515TIP3   OH226035   4.225   2.726   3.907 -0.0727  0.0135 -0.4561
 1515TIP3    H126036   4.307   2.767   3.934 -0.8920  1.5793 -0.3166
 1515TIP3    H226037   4.202   2.770   3.825 -0.6717 -0.5669 -0.6066
 1516TIP3   OH226038   0.268   4.614   1.739 -0.2176  0.0237  0.6929
 1516TIP3    H126039   0.295   4.661   1.818 -0.3454  0.3590  0.5386
 1516TIP3    H226040   0.183   4.651   1.717 -0.0958  0.0626  0.2849
 1517TIP3   OH226041   6.344   0.925  12.101 -1.0268 -0.0073 -0.0722
 1517TIP3    H126042   6.294   1.005  12.088  1.0710  1.5238  0.9895
 1517TIP3    H226043   6.358   0.890  12.013 -0.0105  2.0489 -0.7625
 1518TIP3   OH226044   5.194   3.942  17.276  0.1501  0.3059 -0.1328
 1518TIP3    H126045   5.238   3.971  17.356 -0.0694 -0.5433  0.3008
 1518TIP3    H226046   5.123   3.886  17.306 -1.6082  2.1193 -0.8030
 1519TIP3   OH226047   1.519   3.692  13.119  0.6424 -0.0610  0.4063
 1519TIP3    H126048   1.486   3.771  13.076  1.2269  0.6411  1.2410
 1519TIP3    H226049   1.442   3.636  13.128  0.3840  0.0377 -0.9687
 1520TIP3   OH226050   5.757   3.220   0.337  0.5057 -0.1067  0.4394
 1520TIP3    H126051   5.762   3.140   0.285 -1.8699 -0.6143  0.9423
 1520TIP3    H226052   5.796   3.195   0.421  1.3178 -0.2291  0.0356
 1521TIP3   OH226053   0.239   6.116   0.152  0.0692 -0.1056 -0.0229
 1521TIP3    H126054   0.321   6.118   0.202 -0.8570 -0.9582  1.5459
 1521TIP3    H226055   0.256   6.174   0.077  2.6623 -1.4746 -0.5767
 1522TIP3   OH226056   5.627   4.250   2.944  0.3188  0.5738  0.4920
 1522TIP3    H126057   5.699   4.202   2.984 -0.3598 -0.8210  0.0680
 1522TIP3    H226058   5.670   4.313   2.887  1.2322  0.8560  1.4761
 1523TIP3   OH226059   4.111   0.207  16.790  0.1454 -0.3071 -0.2220
 1523TIP3    H126060   4.083   0.119  16.811  0.7594 -0.6034 -0.6246
 1523TIP3    H226061   4.047   0.238  16.726  2.1016 -1.9050 -3.0654
 1524TIP3   OH226062   4.477   5.898  12.840 -0.2755 -0.1524  0.1252
 1524TIP3    H126063   4.453   5.806  12.831 -0.7672 -0.0682  0.5658
 1524TIP3    H226064   4.404   5.937  12.888  0.1368  0.3790  0.3185
 1525TIP3   OH226065   2.774   1.341   0.228  0.4420  0.1992 -0.4318
 1525TIP3    H126066   2.809   1.256   0.201 -1.8235 -0.1762 -2.3253
 1525TIP3    H226067   2.748   1.329   0.319 -2.2803 -1.9770 -1.4363
 1526TIP3   OH226068   0.018   2.620   1.980  0.6812  0.0065 -0.3920
 1526TIP3    H126069   0.046   2.611   1.889 -1.0955 -0.0328 -0.9375
 1526TIP3    H226070  -0.075   2.638   1.976  0.5980  0.1272  1.4248
 1527TIP3   OH226071   2.461   1.872   1.402  0.0270  0.1562  0.1372
 1527TIP3    H126072   2.387   1.933   1.399 -0.0432  0.0938  0.5803
 1527TIP3    H226073   2.443   1.809   1.332 -0.5344 -0.0756  0.4782
 1528TIP3   OH226074   4.014   1.065  12.821 -0.4503  0.2825  0.1645
 1528TIP3    H126075   3.963   1.100  12.894 -1.3664 -0.2455 -0.2144
 1528TIP3    H226076   3.967   1.094  12.743 -0.6961 -0.9799 -0.1663
 1529TIP3   OH226077   1.173   0.134   6.558  0.4499 -0.0993 -0.3221
 1529TIP3    H126078   1.265   0.143   6.533  0.8372 -0.9143  0.7530
 1529TIP3    H226079   1.146   0.222   6.586  0.5147  0.4271 -1.8776
 1530TIP3   OH226080   0.606   4.923   4.603 -0.7791 -0.1973  0.2000
 1530TIP3    H126081   0.665   4.872   4.658 -0.3071  0.6641  0.5119
 1530TIP3    H226082   0.528   4.936   4.657  0.1734  1.7014  1.1603
 1531TIP3   OH226083   0.846   5.193  16.570 -0.0685 -0.2524  0.0435
 1531TIP3    H126084   0.758   5.183  16.605  0.8392 -0.3716  2.4257
 1531TIP3    H226085   0.865   5.110  16.528 -1.3180  0.0056 -1.0633
 1532TIP3   OH226086   1.022   0.944   1.810 -0.5975 -0.0426  0.4770
 1532TIP3    H126087   1.080   0.945   1.734 -2.3114 -1.3217 -0.8859
 1532TIP3    H226088   0.995   0.852   1.818 -2.5781  0.5657  0.9790
 1533TIP3   OH226089   3.822   3.496  13.211  0.2274  0.3399  0.1562
 1533TIP3    H126090   3.841   3.541  13.293  0.5901  0.6629 -0.1017
 1533TIP3    H226091   3.730   3.472  13.218  0.0738  0.9652  0.3712
 1534TIP3   OH226092   5.947   1.902   4.847  0.1065 -0.1851  0.5761
 1534TIP3    H126093   5.935   1.942   4.761 -5.1644  1.1788  1.8033
 1534TIP3    H226094   6.010   1.960   4.891  2.8673 -0.9111 -2.2371
 1535TIP3   OH226095   0.850   5.572  16.462  0.0626  0.4970 -0.0349
 1535TIP3    H126096   0.818   5.611  16.381 -0.8376  0.4718  0.2961
 1535TIP3    H226097   0.945   5.584  16.459  0.1137 -0.1814 -1.4433
 1536TIP3   OH226098   1.655   4.898  10.884  0.2792  0.5218 -0.3431
 1536TIP3    H126099   1.580   4.893  10.825 -0.5143  1.5759  0.5521
 1536TIP3    H226100   1.731   4.875  10.829 -0.6814 -0.4996 -1.2607
 1537TIP3   OH226101   0.424   0.491  15.525 -0.2279  0.2240 -0.2961
 1537TIP3    H126102   0.476   0.433  15.468  0.8676 -0.0053  0.8987
 1537TIP3    H226103   0.462   0.578  15.511  1.0972 -0.0837  1.2355
 1538TIP3   OH226104   6.015   0.273   5.407 -0.4319 -0.4067  0.4157
 1538TIP3    H126105   6.031   0.322   5.326  0.0430  0.1777  0.8590
 1538TIP3    H226106   5.988   0.186   5.377 -1.5076  0.1968 -0.3752
 1539TIP3   OH226107   3.531   2.645   5.510 -0.6298 -0.1254 -0.3024
 1539TIP3    H126108   3.582   2.638   5.591  0.2595  1.2939 -0.7187
 1539TIP3    H226109   3.442   2.663   5.540 -0.3993 -0.0835  0.3750
 1540TIP3   OH226110   1.930   3.212   3.228  0.1458  0.9378 -0.1490
 1540TIP3    H126111   2.014   3.168   3.215  0.7460  2.0341 -0.0104
 1540TIP3    H226112   1.936   3.291   3.175 -1.3469  0.3235 -1.2511
 1541TIP3   OH226113   5.308   1.003   1.529  0.3208  0.2839  0.4887
 1541TIP3    H126114   5.296   0.961   1.614 -1.0994 -0.6552 -0.1587
 1541TIP3    H226115   5.361   1.081   1.548  0.3439 -0.1148  2.1624
 1542TIP3   OH226116   4.667   3.291   5.780  0.0852  0.9674 -0.3592
 1542TIP3    H126117   4.683   3.327   5.692 -1.6640 -0.7532 -1.4318
 1542TIP3    H226118   4.576   3.313   5.799 -0.5802 -1.5661 -0.4428
 1543TIP3   OH226119   1.338   3.195   2.482 -0.3509 -0.3920  0.0981
 1543TIP3    H126120   1.285   3.177   2.404 -0.8684  0.4387  0.2611
 1543TIP3    H226121   1.424   3.159   2.460 -0.8709 -1.4423 -0.2987
 1544TIP3   OH226122   4.301   4.308  15.561 -0.4613 -0.1559 -0.7859
 1544TIP3    H126123   4.234   4.339  15.622 -0.3901 -1.3271 -0.0987
 1544TIP3    H226124   4.368   4.377  15.562  0.2323 -0.8191  1.5951
 1545TIP3   OH226125   1.351   2.342  14.909  0.4266 -0.1007  0.2050
 1545TIP3    H126126   1.313   2.422  14.873  2.1087  0.2837 -0.7687
 1545TIP3    H226127   1.360   2.360  15.003  1.3647  1.1149 -0.1046
 1546TIP3   OH226128   0.637   3.601  13.603 -0.4906 -0.4065  0.3461
 1546TIP3    H126129   0.570   3.534  13.618 -0.6180 -0.7559 -1.5955
 1546TIP3    H226130   0.635   3.615  13.508 -0.2022  2.0781  0.6739
 1547TIP3   OH226131   6.089   5.500   2.972  0.3534  0.7488  0.2257
 1547TIP3    H126132   6.105   5.557   2.896 -0.3560 -0.1478 -0.6100
 1547TIP3    H226133   6.112   5.412   2.941  0.9115  0.4955  1.3373
 1548TIP3   OH226134   0.154   1.311   7.055  0.1120  0.0966  0.3631
 1548TIP3    H126135   0.107   1.247   7.002 -1.3543 -1.0613  2.9764
 1548TIP3    H226136   0.231   1.264   7.086  1.0989  0.8503 -0.8899
 1549TIP3   OH226137   5.225   0.095   0.613  0.0748  0.3106 -0.4060
 1549TIP3    H126138   5.193   0.185   0.612 -1.2378 -0.1501 -1.2095
 1549TIP3    H226139   5.204   0.063   0.701 -0.4350  0.4578 -0.4704
 1550TIP3   OH226140   2.717   1.665  13.649  0.4353 -0.7260  0.0237
 1550TIP3    H126141   2.687   1.579  13.620  1.5278 -1.3818  0.7574
 1550TIP3    H226142   2.721   1.657  13.745  0.1752  0.2689  0.1224
 1551TIP3   OH226143   3.173   3.596   4.799 -0.0479  0.1618  0.3425
 1551TIP3    H126144   3.191   3.627   4.711  1.5697 -1.3065  0.1200
 1551TIP3    H226145   3.258   3.599   4.844  0.0466 -3.0922  0.5312
 1552TIP3   OH226146   3.034   2.611   3.138 -0.1350  0.1105  0.4516
 1552TIP3    H126147   2.979   2.689   3.142  0.9079  0.8330  0.9091
 1552TIP3    H226148   3.106   2.635   3.079 -1.0459 -1.3142 -1.2952
 1553TIP3   OH226149   2.029   1.135   5.188  0.7940 -0.1577 -0.0618
 1553TIP3    H126150   2.060   1.085   5.112 -0.2653 -1.1692  0.1596
 1553TIP3    H226151   2.106   1.143   5.244  1.6027  0.6527 -1.2553
 1554TIP3   OH226152   5.815   2.457   0.569  0.0776 -0.3493 -0.2105
 1554TIP3    H126153   5.778   2.369   0.561  1.6362 -1.0056 -0.3937
 1554TIP3    H226154   5.892   2.445   0.624 -0.6774  1.2083  1.2334
 1555TIP3   OH226155   2.910   2.664   5.098  0.1538  0.3910 -0.0563
 1555TIP3    H126156   2.833   2.692   5.050 -0.6192  0.3380  1.1346
 1555TIP3    H226157   2.935   2.581   5.058 -0.5271  0.3088 -0.3073
 1556TIP3   OH226158   4.680   4.502  14.322 -0.0952 -0.2017 -0.5164
 1556TIP3    H126159   4.729   4.584  14.314  0.5377 -0.4957  0.2467
 1556TIP3    H226160   4.708   4.465  14.406 -0.3606 -1.2087 -0.8569
 1557TIP3   OH226161   4.971   1.034  16.043 -0.6749 -0.6937 -0.4176
 1557TIP3    H126162   4.996   1.126  16.050  0.2737 -0.8226 -1.8218
 1557TIP3    H226163   5.054   0.986  16.049 -1.1036 -1.4211 -0.2294
 1558TIP3   OH226164   1.692   2.337   4.647 -0.1505 -0.7071  0.1224
 1558TIP3    H126165   1.621   2.362   4.587 -1.6912 -1.2305  1.6674
 1558TIP3    H226166   1.749   2.413   4.650 -1.9022  0.6173  0.6276
 1559TIP3   OH226167   0.398   4.516   0.162 -0.0459  0.1269 -0.4040
 1559TIP3    H126168   0.317   4.562   0.143  0.7150  1.7293  0.1167
 1559TIP3    H226169   0.382   4.471   0.245  0.5815  2.9229  1.2763
 1560TIP3   OH226170   2.436   0.840  10.716 -0.5815  0.1619 -0.9426
 1560TIP3    H126171   2.392   0.855  10.632 -0.4735 -0.0215 -1.0343
 1560TIP3    H226172   2.465   0.926  10.744 -0.6271  0.2254 -1.0900
 1561TIP3   OH226173   1.071   1.686  12.462 -0.1701 -0.1064  0.1422
 1561TIP3    H126174   1.167   1.681  12.455 -0.2628  0.2897 -1.6901
 1561TIP3    H226175   1.039   1.639  12.385 -1.5007 -1.7173  1.6295
 1562TIP3   OH226176   5.070   1.019  17.087  0.7449  0.7495  0.6391
 1562TIP3    H126177   4.981   0.997  17.117  0.2126 -2.4745 -2.8478
 1562TIP3    H226178   5.127   0.970  17.146 -0.0370 -0.9650  0.0154
 1563TIP3   OH226179   3.169   6.604   1.377 -0.1588 -0.0355 -0.6679
 1563TIP3    H126180   3.194   6.611   1.469  0.7257  0.2655 -0.9255
 1563TIP3    H226181   3.149   6.511   1.365  0.3754 -0.1959 -0.3293
 1564TIP3   OH226182   0.384   0.142  12.967 -0.3883 -0.0941  0.1872
 1564TIP3    H126183   0.443   0.199  12.918 -1.0883 -0.7603 -1.4781
 1564TIP3    H226184   0.301   0.189  12.967 -0.9159 -0.9931 -1.0206
 1565TIP3   OH226185   6.765   0.607   2.654 -0.3101  0.3616  0.0166
 1565TIP3    H126186   6.702   0.563   2.711 -1.1053  0.2992 -0.8971
 1565TIP3    H226187   6.826   0.650   2.714 -1.6830  1.0795  0.9074
 1566TIP3   OH226188   5.293   1.075  15.530  0.2164  0.2824 -0.6183
 1566TIP3    H126189   5.299   1.156  15.478  1.0336  0.8841  0.3958
 1566TIP3    H226190   5.271   1.007  15.466 -1.2198  1.4277 -1.3726
 1567TIP3   OH226191   1.990   4.920   1.403 -0.4068 -0.2473  0.0293
 1567TIP3    H126192   1.992   4.839   1.352  0.3473  0.1915 -0.6371
 1567TIP3    H226193   2.082   4.948   1.408 -0.8500  1.4648 -1.1682
 1568TIP3   OH226194   1.701   3.374   4.825  0.0723  1.0081  0.1187
 1568TIP3    H126195   1.690   3.448   4.765  0.3125 -0.2736 -1.5490
 1568TIP3    H226196   1.612   3.353   4.854 -0.0573  1.5761  0.1333
 1569TIP3   OH226197   3.431   5.742  12.210  0.4039 -0.1930  0.0090
 1569TIP3    H126198   3.429   5.811  12.277 -0.6626 -0.3952  0.1816
 1569TIP3    H226199   3.498   5.681  12.243  0.8133  0.3635  0.2329
 1570TIP3   OH226200   0.573   2.129  11.751  0.3686  0.1754 -0.2851
 1570TIP3    H126201   0.511   2.142  11.822  1.9980 -0.2889  1.2422
 1570TIP3    H226202   0.571   2.035  11.734  0.7269  0.1484 -0.1756
 1571TIP3   OH226203   5.406   5.040   1.078  0.1337 -0.2155 -0.3578
 1571TIP3    H126204   5.441   5.016   0.993  3.0378  0.6673  0.5334
 1571TIP3    H226205   5.482   5.041   1.136 -1.4151  1.5757  1.7190
 1572TIP3   OH226206   4.816   3.090   1.285  0.1973 -0.1235 -0.0752
 1572TIP3    H126207   4.902   3.056   1.310  1.0844 -0.0892 -2.9499
 1572TIP3    H226208   4.791   3.038   1.209 -1.2851  1.4181 -0.6593
 1573TIP3   OH226209   4.542   1.843  15.428 -0.0131 -0.0749  0.1177
 1573TIP3    H126210   4.469   1.798  15.385 -0.3668  0.6258 -0.0252
 1573TIP3    H226211   4.527   1.830  15.521 -0.2573 -0.0321  0.0830
 1574TIP3   OH226212   2.256   1.169   6.045 -0.3894  0.1525 -0.6169
 1574TIP3    H126213   2.292   1.206   6.126 -1.4024  0.1157 -0.1443
 1574TIP3    H226214   2.331   1.127   6.003  0.1682  0.2645  0.2495
 1575TIP3   OH226215   0.594   2.312  12.904  0.1063  0.3439 -0.0397
 1575TIP3    H126216   0.607   2.222  12.873  0.4096  0.9226 -1.6835
 1575TIP3    H226217   0.550   2.303  12.988 -3.6030 -1.2714 -2.0510
 1576TIP3   OH226218   6.618   6.433  14.864 -0.3230  0.3382  0.1659
 1576TIP3    H126219   6.676   6.508  14.853 -0.2579  0.0694 -1.3630
 1576TIP3    H226220   6.572   6.425  14.781 -1.7047 -0.1736  0.9641
 1577TIP3   OH226221   3.979   6.006   5.118 -0.4900 -0.5808  0.1451
 1577TIP3    H126222   3.917   6.078   5.125  1.5545  1.2076  0.4189
 1577TIP3    H226223   4.011   5.993   5.207  2.6502  1.4306 -0.5846
 1578TIP3   OH226224   4.834   0.765   3.848  0.0209  0.5719 -0.2909
 1578TIP3    H126225   4.797   0.775   3.936 -0.6961 -0.2549 -0.5015
 1578TIP3    H226226   4.759   0.756   3.790  0.5106  0.3530 -0.9020
 1579TIP3   OH226227   5.942   3.794  16.394  0.2717  0.1439  0.0281
 1579TIP3    H126228   5.962   3.702  16.410 -1.3184 -0.0584  0.9658
 1579TIP3    H226229   5.961   3.837  16.477  0.5486  0.5867 -0.2632
 1580TIP3   OH226230   4.438   0.170   1.306 -0.7564  0.0003  0.5878
 1580TIP3    H126231   4.428   0.247   1.360 -0.7389 -0.7377  1.6514
 1580TIP3    H226232   4.349   0.137   1.294 -0.7717  0.2151  0.0720
 1581TIP3   OH226233   3.000   5.320   0.092 -0.0298 -0.1202 -0.0204
 1581TIP3    H126234   2.949   5.250   0.132 -1.8173  0.1029 -1.8529
 1581TIP3    H226235   3.064   5.274   0.038 -0.0273 -0.3568  0.1786
 1582TIP3   OH226236   1.847   2.746  14.954  0.0326 -0.2411 -0.6147
 1582TIP3    H126237   1.920   2.709  14.906 -0.7881 -0.5358 -1.6458
 1582TIP3    H226238   1.770   2.697  14.925 -0.6555  0.3869  0.0889
 1583TIP3   OH226239   6.409   3.176  11.531 -0.0479  0.0843 -0.4271
 1583TIP3    H126240   6.329   3.152  11.577 -0.6221  1.3926 -0.7043
 1583TIP3    H226241   6.476   3.182  11.599 -0.4019 -0.1251 -0.0653
 1584TIP3   OH226242   1.698   3.542   5.120 -0.5629  0.3827  0.1213
 1584TIP3    H126243   1.625   3.482   5.135  0.6120 -1.8295 -2.6414
 1584TIP3    H226244   1.658   3.618   5.078 -1.0615 -1.8079 -3.5739
 1585TIP3   OH226245   3.650   5.728   4.127 -0.1621  0.0046 -0.0968
 1585TIP3    H126246   3.675   5.652   4.179 -0.6260  0.9311  1.5086
 1585TIP3    H226247   3.579   5.696   4.070 -0.5541 -0.6834  0.7720
 1586TIP3   OH226248   1.606   1.093   4.554  0.0394 -0.3322  0.0719
 1586TIP3    H126249   1.526   1.047   4.530  0.3502 -0.1514 -1.3656
 1586TIP3    H226250   1.670   1.024   4.570 -0.1151 -0.4551  0.1564
 1587TIP3   OH226251   2.841   1.516  14.556  0.1061 -0.8448 -0.1006
 1587TIP3    H126252   2.829   1.609  14.536  0.8908 -0.8822 -0.7703
 1587TIP3    H226253   2.889   1.515  14.639 -1.5634 -0.6740  0.8901
 1588TIP3   OH226254   5.597   5.470  12.907  0.4110 -0.5761 -0.0974
 1588TIP3    H126255   5.647   5.403  12.861  2.3386  0.5051  0.3301
 1588TIP3    H226256   5.607   5.449  13.000 -1.4712 -1.3799 -0.0489
 1589TIP3   OH226257   4.190   3.533   4.425 -0.1452 -0.1637 -0.2615
 1589TIP3    H126258   4.201   3.563   4.515  0.7309  2.8175 -1.3150
 1589TIP3    H226259   4.273   3.555   4.383 -1.0005 -0.4468 -2.1172
 1590TIP3   OH226260   5.159   2.975  10.551  0.0849 -0.2861 -0.1148
 1590TIP3    H126261   5.178   2.960  10.644  0.1326 -1.5227 -0.3133
 1590TIP3    H226262   5.064   2.964  10.544  0.1677 -0.8712 -0.3319
 1591TIP3   OH226263   1.456   3.758   6.340 -0.8106 -0.1214  0.4559
 1591TIP3    H126264   1.496   3.734   6.257 -1.7208 -0.1696  0.0286
 1591TIP3    H226265   1.459   3.853   6.343 -2.1239 -0.0460 -0.3128
 1592TIP3   OH226266   1.902   5.685   4.914 -0.1293 -0.1894  0.5520
 1592TIP3    H126267   1.834   5.654   4.854 -0.3316 -0.3122  0.8439
 1592TIP3    H226268   1.927   5.771   4.879  0.9505 -0.9899 -0.6715
 1593TIP3   OH226269   5.289   5.741  15.884  0.2927  1.3210  0.5149
 1593TIP3    H126270   5.217   5.741  15.946  1.0550  0.4748  1.4154
 1593TIP3    H226271   5.262   5.801  15.815 -1.0450  1.3956  1.1035
 1594TIP3   OH226272   4.244   6.089   0.742 -0.1670  1.2132 -0.2489
 1594TIP3    H126273   4.307   6.065   0.675 -0.0063 -0.0134  0.3293
 1594TIP3    H226274   4.161   6.099   0.694 -0.2197 -0.4292 -0.5209
 1595TIP3   OH226275   3.861   2.728   5.659  0.3305 -0.4241 -0.4205
 1595TIP3    H126276   3.940   2.732   5.714  0.4467 -1.2763 -0.5198
 1595TIP3    H226277   3.804   2.665   5.704 -0.7958  1.0820  0.2921
 1596TIP3   OH226278   3.666   3.423  12.136 -0.6338  0.9463 -0.3355
 1596TIP3    H126279   3.691   3.506  12.097  1.1309  1.2144  1.3013
 1596TIP3    H226280   3.693   3.429  12.227  2.3562 -2.5203 -0.8461
 1597TIP3   OH226281   0.707   3.039   5.568 -0.8482 -0.1364  0.7453
 1597TIP3    H126282   0.638   2.973   5.572 -0.5527 -0.5592 -0.7584
 1597TIP3    H226283   0.665   3.115   5.526 -0.7153  0.0211  0.8972
 1598TIP3   OH226284   2.256   4.442  13.908 -0.1036  0.2776 -0.6791
 1598TIP3    H126285   2.220   4.523  13.943 -0.7480  0.0860 -0.8955
 1598TIP3    H226286   2.180   4.387  13.890  0.3557 -0.5496 -0.1235
 1599TIP3   OH226287   5.800   2.602   3.643  0.1739  0.0616  0.3491
 1599TIP3    H126288   5.717   2.604   3.692  0.4099  0.5032  0.7345
 1599TIP3    H226289   5.862   2.563   3.704  0.1842 -0.5516 -0.0499
 1600TIP3   OH226290   4.844   0.914   6.191  0.4106 -0.0557 -0.0288
 1600TIP3    H126291   4.838   0.820   6.173  0.9210 -0.1183  0.1108
 1600TIP3    H226292   4.895   0.920   6.272  1.7272  0.3974 -0.8685
 1601TIP3   OH226293   0.814   3.591  11.365  0.0542  0.1170 -0.2214
 1601TIP3    H126294   0.817   3.608  11.271 -0.4151 -0.4940 -0.3515
 1601TIP3    H226295   0.905   3.582  11.391  0.2173  0.8539 -0.5094
 1602TIP3   OH226296   3.050   4.087   0.281 -0.9076  0.1073 -0.0177
 1602TIP3    H126297   3.126   4.136   0.250 -0.4028 -1.2050 -0.8779
 1602TIP3    H226298   3.066   4.075   0.375 -0.3268  0.2901 -0.0907
 1603TIP3   OH226299   3.325   3.408  11.290  0.6044  0.6229 -0.3621
 1603TIP3    H126300   3.285   3.346  11.229  0.9001 -0.1787  0.2578
 1603TIP3    H226301   3.285   3.492  11.267 -0.0361  0.1560 -0.9987
 1604TIP3   OH226302   1.134   5.858  10.277 -0.2601  0.5328 -0.1280
 1604TIP3    H126303   1.046   5.890  10.259 -0.5647 -0.7894 -1.0382
 1604TIP3    H226304   1.121   5.779  10.330  0.3440  0.0254 -0.7153
 1605TIP3   OH226305   5.192   5.822   3.927  0.0726 -0.4759 -0.1647
 1605TIP3    H126306   5.213   5.794   4.016 -0.1103  0.4615  0.1883
 1605TIP3    H226307   5.109   5.869   3.936  0.3801  0.1853 -0.7211
 1606TIP3   OH226308   0.139   1.667  15.878  0.0473 -0.3089  0.2863
 1606TIP3    H126309   0.097   1.588  15.913  0.2129 -1.0300 -1.0880
 1606TIP3    H226310   0.232   1.645  15.876  0.0830 -0.1144 -0.1993
 1607TIP3   OH226311   5.893   3.763   4.788 -0.4236  0.5063 -0.1672
 1607TIP3    H126312   5.932   3.850   4.790 -1.9407  1.2023 -0.9354
 1607TIP3    H226313   5.835   3.763   4.712 -0.1035 -1.3229 -0.4435
 1608TIP3   OH226314   2.975   6.628  12.678  0.3472 -0.1267 -0.3671
 1608TIP3    H126315   3.037   6.699  12.662 -2.3246  2.0666 -1.2106
 1608TIP3    H226316   3.023   6.567  12.734  2.7888  2.1632  0.1231
 1609TIP3   OH226317   4.524   6.598   5.653 -0.4882 -0.0435  0.3534
 1609TIP3    H126318   4.436   6.564   5.665 -0.2526 -0.5374  0.6740
 1609TIP3    H226319   4.570   6.575   5.733  0.8082 -2.5146 -1.0564
 1610TIP3   OH226320   1.406   4.677  14.365  0.6044  0.0372  0.4911
 1610TIP3    H126321   1.479   4.738  14.354 -0.6659  1.5577  0.1732
 1610TIP3    H226322   1.351   4.718  14.432 -0.3067 -0.7017  0.2083
 1611TIP3   OH226323   4.862   0.228  12.653  0.2908  0.1868  0.3267
 1611TIP3    H126324   4.856   0.309  12.603  2.0361 -1.2058 -2.2695
 1611TIP3    H226325   4.950   0.228  12.691  1.1580 -1.4895 -1.5788
 1612TIP3   OH226326   5.242   3.904   1.656 -0.0457 -0.2084 -0.3920
 1612TIP3    H126327   5.149   3.879   1.655  0.6276 -2.8263 -0.4012
 1612TIP3    H226328   5.241   3.998   1.675 -2.7568  0.0870 -1.7072
 1613TIP3   OH226329   5.061   6.188   1.095  0.6218 -0.8760  0.1518
 1613TIP3    H126330   4.977   6.192   1.049  1.3808  2.0642 -1.1274
 1613TIP3    H226331   5.096   6.102   1.074 -1.0312 -1.2348 -1.2475
 1614TIP3   OH226332   3.425   4.215  15.567 -0.2167  0.2277 -0.6197
 1614TIP3    H126333   3.392   4.144  15.511  1.7868 -0.1891 -1.2946
 1614TIP3    H226334   3.513   4.232  15.535 -0.1956  2.1410  0.4095
 1615TIP3   OH226335   3.716   4.788   0.325  0.1288 -0.2248 -0.6713
 1615TIP3    H126336   3.753   4.734   0.255  0.3025 -1.6003  0.4699
 1615TIP3    H226337   3.636   4.825   0.287  0.5831 -0.3922 -1.8209
 1616TIP3   OH226338   3.904   4.839   0.573  0.4306 -0.1461 -0.3031
 1616TIP3    H126339   3.910   4.747   0.598  0.7543  0.0063  0.1927
 1616TIP3    H226340   3.864   4.838   0.487 -0.1051 -0.7184 -0.0495
 1617TIP3   OH226341   4.386   3.566   5.714 -1.4624 -0.1121 -0.5348
 1617TIP3    H126342   4.403   3.494   5.775  0.6375 -0.2156 -1.2064
 1617TIP3    H226343   4.390   3.525   5.628 -0.1752  0.8140 -0.9248
 1618TIP3   OH226344   2.182   3.328   0.495 -0.4458 -0.0401  0.3041
 1618TIP3    H126345   2.126   3.405   0.497 -0.6330 -0.1690  0.0833
 1618TIP3    H226346   2.270   3.362   0.480 -0.6325  0.0764 -0.5324
 1619TIP3   OH226347   2.758   3.080  15.573 -0.2662 -0.0686 -0.0738
 1619TIP3    H126348   2.693   3.124  15.627  0.9372  1.1144  0.4277
 1619TIP3    H226349   2.785   3.004  15.625 -1.6656 -0.9186 -0.5449
 1620TIP3   OH226350   5.391   4.052  16.342 -0.6017 -0.3314 -0.5273
 1620TIP3    H126351   5.454   4.073  16.274 -0.5310  0.5684 -0.1908
 1620TIP3    H226352   5.388   3.956  16.344 -0.7143 -0.3624 -1.8899
 1621TIP3   OH226353   0.436   6.054  13.966 -0.1727 -0.4150  0.0969
 1621TIP3    H126354   0.389   5.975  13.940  1.0467 -0.7529 -1.0826
 1621TIP3    H226355   0.371   6.104  14.016 -1.3817 -1.4993 -0.3536
 1622TIP3   OH226356   3.655   2.193   2.501 -0.4221 -0.1902 -0.2510
 1622TIP3    H126357   3.573   2.150   2.475 -1.6328  0.5133  2.2164
 1622TIP3    H226358   3.717   2.121   2.513 -2.3196 -1.3230  3.4305
 1623TIP3   OH226359   5.197   2.728  11.776  0.0120  0.1902  0.1865
 1623TIP3    H126360   5.153   2.681  11.705 -1.4067  1.2832  0.3317
 1623TIP3    H226361   5.260   2.785  11.731 -0.6068  0.5935 -0.1738
 1624TIP3   OH226362   3.045   6.135   2.000 -0.6160 -0.0444 -0.0472
 1624TIP3    H126363   2.986   6.176   2.063  0.4406  1.0151  0.2798
 1624TIP3    H226364   3.035   6.041   2.015 -3.3171  0.0606 -1.0253
 1625TIP3   OH226365   4.715   2.076  16.110  0.3148 -0.0129  0.5686
 1625TIP3    H126366   4.796   2.119  16.082  2.1898 -2.9722  1.2957
 1625TIP3    H226367   4.741   2.019  16.182 -2.6389 -0.2243  1.5432
 1626TIP3   OH226368   3.497   1.289   4.134 -0.5261 -0.1861  0.3668
 1626TIP3    H126369   3.433   1.329   4.193 -0.7391 -0.6841  0.4764
 1626TIP3    H226370   3.550   1.233   4.191 -0.6435 -0.5614  0.1075
 1627TIP3   OH226371   2.202   0.500   1.062 -0.4271  0.3444  0.6971
 1627TIP3    H126372   2.285   0.510   1.015 -0.7224  1.1564  0.3340
 1627TIP3    H226373   2.136   0.520   0.996 -0.8395  1.8181  1.5464
 1628TIP3   OH226374   0.491   5.254  17.215 -0.1496 -0.5646 -0.3165
 1628TIP3    H126375   0.497   5.333  17.162  1.6433  0.0667  0.8056
 1628TIP3    H226376   0.538   5.274  17.296 -1.6407 -1.9964  0.9489
 1629TIP3   OH226377   5.701   1.185   1.773  0.4055 -0.0925 -0.5532
 1629TIP3    H126378   5.620   1.206   1.727  0.7635 -0.8926 -1.5798
 1629TIP3    H226379   5.702   1.243   1.849 -0.5339  0.7810 -1.1973
 1630TIP3   OH226380   3.693   3.068  11.676  0.3094 -0.2045 -0.9004
 1630TIP3    H126381   3.693   3.037  11.585  0.7816  0.1393 -1.0205
 1630TIP3    H226382   3.618   3.024  11.716  1.5169 -2.2059 -0.8072
 1631TIP3   OH226383   4.743   0.681   5.051 -0.1610  0.5995 -0.0100
 1631TIP3    H126384   4.777   0.733   5.123 -0.6748  0.5257  0.2875
 1631TIP3    H226385   4.683   0.739   5.005  0.9576  0.9830 -1.0019
 1632TIP3   OH226386   0.563   6.253   2.180  0.0095 -0.0442 -0.3897
 1632TIP3    H126387   0.534   6.246   2.090 -0.8381 -0.0492 -0.1238
 1632TIP3    H226388   0.532   6.173   2.222 -0.2445  0.2988  0.0807
 1633TIP3   OH226389   4.958   4.822  14.864 -0.6983 -0.1349 -0.2869
 1633TIP3    H126390   5.030   4.856  14.811  0.9277  1.4215  2.7449
 1633TIP3    H226391   4.975   4.728  14.870  1.5230  0.3068  0.9245
 1634TIP3   OH226392   0.278   4.877   4.171 -0.0944  0.6846  0.4784
 1634TIP3    H126393   0.360   4.828   4.178 -1.8768 -2.4122  0.5852
 1634TIP3    H226394   0.261   4.908   4.260 -0.4548 -1.1387  1.0697
 1635TIP3   OH226395   1.271   5.676   0.563 -0.5328  0.1570 -0.2599
 1635TIP3    H126396   1.331   5.651   0.493  0.3044  0.2668  0.4103
 1635TIP3    H226397   1.229   5.756   0.531  1.1958  1.2457  0.1308
 1636TIP3   OH226398   1.219   0.154  12.985  0.1980 -0.4263  0.5178
 1636TIP3    H126399   1.245   0.205  12.908 -0.0182 -0.6883  0.2697
 1636TIP3    H226400   1.218   0.217  13.056 -1.6890  0.2692 -0.1002
 1637TIP3   OH226401   2.766   6.602   3.890  0.6861  0.3248 -0.3749
 1637TIP3    H126402   2.744   6.553   3.969  1.1263  0.9834  0.1621
 1637TIP3    H226403   2.853   6.570   3.866  0.8162  0.5799 -0.2379
 1638TIP3   OH226404   0.607   4.043   2.560 -0.2098  0.4995 -0.1122
 1638TIP3    H126405   0.567   3.966   2.600  2.1932 -0.2426  0.9299
 1638TIP3    H226406   0.632   4.098   2.634  1.3617  0.6024 -0.7109
 1639TIP3   OH226407   1.231   3.736   3.781  0.5431 -0.1755 -0.1823
 1639TIP3    H126408   1.185   3.808   3.823 -1.1300 -0.8547 -0.8203
 1639TIP3    H226409   1.263   3.682   3.854  0.1677  0.1911  0.2565
 1640TIP3   OH226410   5.087   5.923   2.729 -0.0821  0.4051  0.2084
 1640TIP3    H126411   5.082   5.830   2.707  1.7723  0.1542  0.7540
 1640TIP3    H226412   5.046   5.929   2.816 -0.7953  0.2112 -0.1122
 1641TIP3   OH226413   6.643   2.387   3.926  0.4279 -0.1506 -0.4846
 1641TIP3    H126414   6.569   2.332   3.901 -0.2096 -0.5180  2.1201
 1641TIP3    H226415   6.666   2.433   3.846 -1.7776 -1.0027 -1.6564
 1642TIP3   OH226416   3.616   6.538  11.752 -0.5058  0.0724 -0.2687
 1642TIP3    H126417   3.556   6.518  11.679 -1.0718  1.1891 -0.1158
 1642TIP3    H226418   3.669   6.611  11.720 -0.3004  0.1258  0.1916
 1643TIP3   OH226419   3.271   1.583   5.894  0.3905 -0.0219  0.0325
 1643TIP3    H126420   3.207   1.575   5.965 -0.9001  2.0540 -0.8466
 1643TIP3    H226421   3.324   1.504   5.901 -1.5709 -1.2706  1.4756
 1644TIP3   OH226422   3.742   4.862   0.059 -0.1518  0.8934 -0.1593
 1644TIP3    H126423   3.815   4.858  -0.002 -0.8147  0.3138 -0.9153
 1644TIP3    H226424   3.664   4.868   0.004 -0.8714 -1.2272  0.5908
 1645TIP3   OH226425   1.418   6.712   3.632  0.7450 -0.3816 -0.7088
 1645TIP3    H126426   1.485   6.682   3.692  2.7211  4.2047 -0.3670
 1645TIP3    H226427   1.456   6.702   3.545  0.4459 -1.1064 -0.7543
 1646TIP3   OH226428   3.509   4.961   2.182 -0.0718 -0.0916  0.3664
 1646TIP3    H126429   3.417   4.942   2.201 -0.5233  0.9443 -0.7199
 1646TIP3    H226430   3.507   5.045   2.136  1.3754 -0.3747 -0.2316
 1647TIP3   OH226431   5.747   4.702  15.785  0.5909  0.1941 -0.7036
 1647TIP3    H126432   5.735   4.705  15.880  1.7039  0.0487 -0.5493
 1647TIP3    H226433   5.662   4.727  15.749  0.4279  1.1722  0.3375
 1648TIP3   OH226434   6.576   5.861  10.927 -0.1202  0.6465  0.3625
 1648TIP3    H126435   6.534   5.793  10.875 -1.3319  0.9025  0.9728
 1648TIP3    H226436   6.527   5.861  11.010  0.9516  1.1112  1.0066
 1649TIP3   OH226437   0.377   0.165  16.731  0.0004  0.3293  0.1258
 1649TIP3    H126438   0.376   0.175  16.826  1.5195 -0.6035  0.2582
 1649TIP3    H226439   0.334   0.081  16.716 -0.5850  0.6560 -0.0502
 1650TIP3   OH226440   0.742   3.675  15.625 -0.1044 -0.2804 -0.2730
 1650TIP3    H126441   0.707   3.587  15.609  1.5172 -1.1262  0.6458
 1650TIP3    H226442   0.812   3.685  15.561 -0.9162  0.7294 -1.0050
 1651TIP3   OH226443   5.295   3.996   6.605  0.2364  0.3743  0.3886
 1651TIP3    H126444   5.234   4.025   6.536  0.6150 -1.4848 -0.7540
 1651TIP3    H226445   5.258   3.914   6.636  2.5539 -1.2044 -0.8902
 1652TIP3   OH226446   4.216   4.095  13.292  0.0901 -0.3611 -0.4492
 1652TIP3    H126447   4.184   4.123  13.206  1.1871  1.2714 -0.3475
 1652TIP3    H226448   4.210   3.999  13.290  1.4709 -0.4348 -2.8841
 1653TIP3   OH226449   5.661   0.225   6.810  0.2155  0.3745 -0.5781
 1653TIP3    H126450   5.726   0.155   6.814 -1.1840 -0.9058  0.2486
 1653TIP3    H226451   5.577   0.180   6.808 -0.8140  2.0233  2.0402
 1654TIP3   OH226452   4.397   3.544   4.622 -0.0020 -0.4342  0.8067
 1654TIP3    H126453   4.428   3.593   4.545 -0.1394 -1.1048  0.3154
 1654TIP3    H226454   4.468   3.483   4.641  0.7309  0.8117  2.2195
 1655TIP3   OH226455   4.975   3.101   4.745  0.0645 -0.0399 -0.2607
 1655TIP3    H126456   4.930   3.116   4.662  1.9057  0.1864 -1.2625
 1655TIP3    H226457   5.058   3.149   4.735  0.1248  0.3192  1.8700
 1656TIP3   OH226458   3.432   2.589  11.819  0.1052 -0.0100  0.0747
 1656TIP3    H126459   3.521   2.607  11.849  0.2591  0.0235 -0.3978
 1656TIP3    H226460   3.402   2.518  11.876  0.1843  0.4507  0.6875
 1657TIP3   OH226461   3.065   2.566  14.486 -0.5251  0.4359 -0.1708
 1657TIP3    H126462   2.981   2.544  14.526 -0.9600  0.6150 -0.9700
 1657TIP3    H226463   3.045   2.579  14.394  0.0098  2.4719 -0.0277
 1658TIP3   OH226464   5.707   6.590  13.614 -0.6064 -0.1522  0.5599
 1658TIP3    H126465   5.801   6.580  13.596 -0.8036 -0.0333 -0.5676
 1658TIP3    H226466   5.692   6.684  13.609 -1.1710 -0.3268 -1.2808
 1659TIP3   OH226467   4.239   4.007  11.189 -0.4351  0.2750 -0.2620
 1659TIP3    H126468   4.238   4.103  11.187 -2.4645  0.2729 -1.2380
 1659TIP3    H226469   4.225   3.981  11.098 -2.2338 -0.8978  0.3179
 1660TIP3   OH226470   0.257   5.391   2.147  0.2659  0.1515  0.2592
 1660TIP3    H126471   0.273   5.405   2.241 -2.1116 -0.5057  0.7936
 1660TIP3    H226472   0.189   5.453   2.124 -0.4339 -0.9077 -0.6006
 1661TIP3   OH226473   3.613   0.957   0.924 -0.1017  0.0054  0.1230
 1661TIP3    H126474   3.586   1.048   0.918  1.1311  0.3604 -0.0997
 1661TIP3    H226475   3.665   0.951   1.004  0.4958 -0.3197 -0.2792
 1662TIP3   OH226476   3.315   2.116   2.647 -0.5131  0.3471  0.6886
 1662TIP3    H126477   3.329   2.201   2.689  0.9353  1.0137 -1.0700
 1662TIP3    H226478   3.377   2.057   2.691 -1.3439  0.2436  1.7414
 1663TIP3   OH226479   4.082   4.023  16.788  0.5427 -0.8604  0.1613
 1663TIP3    H126480   4.090   3.995  16.697  2.8233  0.4362 -0.0705
 1663TIP3    H226481   4.126   4.108  16.792  0.4806 -0.8867  2.4518
 1664TIP3   OH226482   1.885   6.296  11.873  0.2790  0.4831 -0.4321
 1664TIP3    H126483   1.900   6.373  11.928  0.2469 -0.0296  0.2884
 1664TIP3    H226484   1.849   6.230  11.932 -0.5125  0.1945 -1.2281
 1665TIP3   OH226485   4.023   2.435  14.941 -0.6343 -0.6839  0.0327
 1665TIP3    H126486   4.110   2.441  14.901 -0.5682 -4.5944 -0.6749
 1665TIP3    H226487   4.041   2.417  15.033 -0.6992 -0.8482  0.0129
 1666TIP3   OH226488   1.149   4.147  13.037 -0.0150  0.3056  0.5453
 1666TIP3    H126489   1.089   4.201  13.088 -1.3961  0.7951 -1.5622
 1666TIP3    H226490   1.236   4.183  13.056 -0.6134  1.1775  1.6594
 1667TIP3   OH226491   3.160   1.368   0.441 -0.1078  0.7906 -0.7832
 1667TIP3    H126492   3.074   1.407   0.458  1.1947  3.1474  0.6365
 1667TIP3    H226493   3.194   1.416   0.365  0.9688  1.5645  0.1791
 1668TIP3   OH226494   5.747   2.275  12.389  0.0589  0.1988  0.2343
 1668TIP3    H126495   5.734   2.180  12.380 -0.4141  0.3958 -1.4360
 1668TIP3    H226496   5.663   2.307  12.422 -0.1121  0.1372 -0.1285
 1669TIP3   OH226497   5.154   0.080  15.853  0.2508 -0.2916  0.7761
 1669TIP3    H126498   5.163   0.119  15.941  2.2109 -0.8294  0.8190
 1669TIP3    H226499   5.098   0.004  15.867 -3.2751  2.1616  0.7741
 1670TIP3   OH226500   5.223   0.860   2.851  0.3062  0.2821  0.1475
 1670TIP3    H126501   5.175   0.938   2.879  1.0048  0.2454  1.4888
 1670TIP3    H226502   5.256   0.882   2.764 -0.4100  1.0666  0.0671
 1671TIP3   OH226503   0.953   1.431  16.035 -0.9975 -0.0425 -0.1348
 1671TIP3    H126504   0.924   1.427  15.944 -3.4469  1.6549  0.5184
 1671TIP3    H226505   1.034   1.380  16.037 -1.7863 -1.4880 -2.9119
 1672TIP3   OH226506   2.859   0.870  13.634 -0.7900 -0.0235 -0.7529
 1672TIP3    H126507   2.830   0.961  13.642 -0.0796  0.1101  0.4218
 1672TIP3    H226508   2.953   0.876  13.614 -0.6467 -0.5080 -0.2294
 1673TIP3   OH226509   6.727   5.027   5.245 -0.6906  0.0307  0.4645
 1673TIP3    H126510   6.695   4.941   5.217 -1.1604  0.8214 -1.4768
 1673TIP3    H226511   6.757   5.069   5.164  3.1474  0.2290  1.8914
 1674TIP3   OH226512   1.646   0.446  16.118  0.3590  0.2896 -0.3110
 1674TIP3    H126513   1.735   0.469  16.089  0.0705  1.7140 -0.1067
 1674TIP3    H226514   1.600   0.529  16.119 -1.1440 -0.5198 -0.9411
 1675TIP3   OH226515   2.955   3.647  13.831  0.0122 -0.6178 -0.1697
 1675TIP3    H126516   2.909   3.719  13.875  0.6821  0.0865 -0.6119
 1675TIP3    H226517   3.039   3.684  13.806 -0.2206 -1.1164 -1.7406
 1676TIP3   OH226518   1.660   2.347  13.476 -0.2613 -0.6239  0.4143
 1676TIP3    H126519   1.706   2.268  13.502 -0.7542 -0.8008  0.7596
 1676TIP3    H226520   1.671   2.351  13.381 -0.5572 -1.3141  0.3469
 1677TIP3   OH226521   5.898   1.528   6.928 -0.2263 -0.0706 -0.0371
 1677TIP3    H126522   5.842   1.592   6.971 -0.2158 -0.4173  0.5049
 1677TIP3    H226523   5.942   1.483   7.000  1.1653  0.5663 -0.4727
 1678TIP3   OH226524   3.812   2.506  13.218  0.4862  0.0275  0.0938
 1678TIP3    H126525   3.886   2.474  13.167  1.2487  0.6919  0.7694
 1678TIP3    H226526   3.851   2.537  13.300 -0.2544  2.3086 -0.3791
 1679TIP3   OH226527   4.833   3.914   1.948 -0.2095  0.3117 -0.5884
 1679TIP3    H126528   4.783   3.953   1.876  1.1622  0.9508 -1.2028
 1679TIP3    H226529   4.822   3.975   2.021 -0.0734  0.6136 -0.8181
 1680TIP3   OH226530   2.860   4.326   2.279 -0.1359  0.1086  0.6062
 1680TIP3    H126531   2.768   4.313   2.258  0.0969  2.7258 -2.2218
 1680TIP3    H226532   2.906   4.314   2.196  1.9824 -0.0136  1.7525
 1681TIP3   OH226533   0.960   0.939  17.032  0.0600  0.1234 -0.1015
 1681TIP3    H126534   1.048   0.970  17.008  0.1837  0.3215  0.5923
 1681TIP3    H226535   0.930   1.001  17.098 -0.1857 -0.5340  0.4145
 1682TIP3   OH226536   4.976   5.237  15.151  0.1494 -0.2882  0.1175
 1682TIP3    H126537   4.935   5.321  15.173  0.5913  0.1791 -0.8286
 1682TIP3    H226538   5.032   5.217  15.226 -0.7062 -0.2263  0.7796
 1683TIP3   OH226539   5.141   5.056  13.179 -0.4988 -0.1167  0.3497
 1683TIP3    H126540   5.216   5.082  13.125  1.5174  0.4039  3.2570
 1683TIP3    H226541   5.124   4.965  13.153 -0.6555  0.6068 -2.2575
 1684TIP3   OH226542   2.587   3.865   2.677 -0.5489  0.3230 -0.0297
 1684TIP3    H126543   2.609   3.942   2.626  0.0525  1.2701  1.6375
 1684TIP3    H226544   2.492   3.856   2.668 -0.4665  0.5948 -1.1386
 1685TIP3   OH226545   0.692   0.623   1.427  0.5421  0.0039  0.2127
 1685TIP3    H126546   0.698   0.718   1.436  1.7370 -0.0646  0.2752
 1685TIP3    H226547   0.668   0.592   1.514  0.1808  0.2419  0.2008
 1686TIP3   OH226548   2.898   6.395   1.245 -0.2009  0.1265 -0.1980
 1686TIP3    H126549   2.860   6.431   1.325  1.9038  2.0272 -0.0078
 1686TIP3    H226550   2.937   6.312   1.272  1.4579  1.2750  1.0008
 1687TIP3   OH226551   3.140   0.864  13.563  0.3367 -0.0082 -0.3984
 1687TIP3    H126552   3.225   0.863  13.519  0.3098  0.6046 -0.4661
 1687TIP3    H226553   3.141   0.786  13.619  0.8672 -0.1046 -0.5428
 1688TIP3   OH226554   2.455   3.968  14.054 -0.0445  0.0002 -0.2195
 1688TIP3    H126555   2.376   4.022  14.049  0.3812  0.4500 -2.2409
 1688TIP3    H226556   2.527   4.030  14.046  0.4586 -0.7920 -1.8994
 1689TIP3   OH226557   3.312   6.612   2.360 -0.3423  0.3907  0.2472
 1689TIP3    H126558   3.263   6.548   2.412 -1.1940  0.4934 -0.4159
 1689TIP3    H226559   3.402   6.578   2.358 -0.3030  0.3820  1.7624
 1690TIP3   OH226560   1.806   5.728   1.255  0.0126  0.2671 -0.2019
 1690TIP3    H126561   1.747   5.710   1.181  0.2964 -1.3733 -0.0634
 1690TIP3    H226562   1.862   5.799   1.225 -0.1912 -0.0643 -1.3993
 1691TIP3   OH226563   6.069   6.497  13.885  0.0515  0.2781  0.6437
 1691TIP3    H126564   6.159   6.514  13.912  1.3031 -0.1923 -2.9146
 1691TIP3    H226565   6.036   6.432  13.947  2.4202 -0.1053  1.5227
 1692TIP3   OH226566   2.059   3.843   6.197 -0.1722 -0.3511  0.2256
 1692TIP3    H126567   1.991   3.875   6.256  0.9891  0.8352  0.9466
 1692TIP3    H226568   2.139   3.884   6.228  0.7577 -1.1257 -1.0891
 1693TIP3   OH226569   3.676   1.233   1.044  0.2733 -0.2636 -0.1008
 1693TIP3    H126570   3.696   1.215   0.952  0.1726 -1.7004  0.1441
 1693TIP3    H226571   3.718   1.318   1.061 -0.4485  0.4464 -1.6955
 1694TIP3   OH226572   2.548   5.391  13.529 -0.7297 -0.7866 -0.1008
 1694TIP3    H126573   2.620   5.353  13.580 -0.4225  1.3974  1.1346
 1694TIP3    H226574   2.518   5.465  13.581 -2.7489 -0.6252 -1.4410
 1695TIP3   OH226575   0.040   4.767   1.865 -0.4556 -0.3423  0.6410
 1695TIP3    H126576   0.025   4.819   1.944  1.8890 -2.3159  2.4296
 1695TIP3    H226577  -0.020   4.693   1.873 -0.0660 -0.6550  0.6569
 1696TIP3   OH226578   5.853   0.866   2.327  0.4458  0.1275 -0.5137
 1696TIP3    H126579   5.906   0.848   2.249 -0.2905  0.4200 -1.0785
 1696TIP3    H226580   5.763   0.846   2.301  0.4097 -1.5706  0.8184
 1697TIP3   OH226581   5.541   3.907   6.548 -0.2715 -0.2697 -0.3490
 1697TIP3    H126582   5.451   3.921   6.576 -0.3777 -0.8814 -0.3708
 1697TIP3    H226583   5.576   3.995   6.534 -0.3268  0.0293  1.3063
 1698TIP3   OH226584   0.827   0.798   5.596 -0.6830  0.5459  0.5126
 1698TIP3    H126585   0.829   0.888   5.629  0.3278  1.5859 -2.2130
 1698TIP3    H226586   0.740   0.790   5.555 -0.9167  0.1430  1.0802
 1699TIP3   OH226587   5.509   3.712   4.990  0.0522  0.0318 -0.6372
 1699TIP3    H126588   5.576   3.645   4.979 -0.4896 -0.0103 -4.1180
 1699TIP3    H226589   5.556   3.795   4.978 -0.3228  0.0501 -1.9512
 1700TIP3   OH226590   3.467   4.286   0.368  0.4154  0.1847 -0.1697
 1700TIP3    H126591   3.461   4.259   0.276 -0.8562 -1.2275  0.2996
 1700TIP3    H226592   3.430   4.212   0.416 -1.3275  2.0108  1.3164
 1701TIP3   OH226593   4.464   1.896   4.969 -0.5886 -0.0639 -0.4795
 1701TIP3    H126594   4.513   1.913   5.049  1.1788  1.6936 -1.8761
 1701TIP3    H226595   4.375   1.876   4.999  0.4983 -1.3595  1.9878
 1702TIP3   OH226596   0.651   1.991   1.550  0.4239  0.0407  0.2217
 1702TIP3    H126597   0.585   2.037   1.497 -0.8901 -1.3593  0.6165
 1702TIP3    H226598   0.613   1.988   1.638  0.3755 -2.0459  0.1401
 1703TIP3   OH226599   4.095   1.442  13.614  0.5714  0.3839 -0.1741
 1703TIP3    H126600   4.164   1.507  13.602 -1.0914  1.7508 -2.7906
 1703TIP3    H226601   4.040   1.478  13.684  2.0664 -0.3356  1.3812
 1704TIP3   OH226602   4.276   5.779  14.436 -0.0645  0.2435  0.4006
 1704TIP3    H126603   4.356   5.736  14.467 -0.1437  0.0732  0.3662
 1704TIP3    H226604   4.218   5.780  14.512 -0.0163  0.4006  0.4347
 1705TIP3   OH226605   6.647   5.015  17.147  0.2449 -0.6149  0.1779
 1705TIP3    H126606   6.651   5.061  17.063  0.3394 -2.5264 -0.9006
 1705TIP3    H226607   6.712   5.059  17.202  0.5152  0.3570 -0.9021
 1706TIP3   OH226608   5.212   5.447   3.725 -0.1753  0.3085 -0.0019
 1706TIP3    H126609   5.197   5.531   3.683  0.2777 -0.3414 -1.4755
 1706TIP3    H226610   5.156   5.449   3.803 -0.4733  1.7967 -0.2401
 1707TIP3   OH226611   5.609   5.807  11.402 -0.1267  0.7390 -0.0603
 1707TIP3    H126612   5.652   5.828  11.485 -0.2943  0.0688  0.2043
 1707TIP3    H226613   5.540   5.872  11.393 -0.7354  0.2255  0.8091
 1708TIP3   OH226614   3.260   4.905  12.195  0.3443  0.0628 -0.1433
 1708TIP3    H126615   3.196   4.857  12.142 -0.1775  2.9930 -2.2888
 1708TIP3    H226616   3.220   4.908  12.282 -1.6251  0.3081 -1.0198
 1709TIP3   OH226617   2.537   2.247   2.343 -0.1408 -0.6162  0.4281
 1709TIP3    H126618   2.459   2.286   2.383 -0.0015 -1.4489  1.5450
 1709TIP3    H226619   2.589   2.217   2.417  3.0754  3.2572 -0.1037
 1710TIP3   OH226620   4.959   2.906  11.206 -0.0036  0.2661  0.6593
 1710TIP3    H126621   5.039   2.893  11.255 -0.1378 -1.2946  0.5052
 1710TIP3    H226622   4.964   2.843  11.134 -1.7061 -0.3986  1.0893
 1711TIP3   OH226623   2.382   1.556  15.312  0.0849 -0.0157  0.1148
 1711TIP3    H126624   2.378   1.461  15.319 -1.8280  0.0666  0.4744
 1711TIP3    H226625   2.378   1.573  15.218  0.8847 -0.2964  0.0265
 1712TIP3   OH226626   6.684   0.569  12.457 -0.2111 -0.0034 -0.2980
 1712TIP3    H126627   6.739   0.629  12.507 -2.0434  0.4833  1.1861
 1712TIP3    H226628   6.653   0.621  12.383 -1.0279  0.6194  0.4704
 1713TIP3   OH226629   0.980   2.397  14.626 -0.2998 -0.1441  0.1961
 1713TIP3    H126630   1.030   2.405  14.707  1.8889  1.5940 -1.2438
 1713TIP3    H226631   1.024   2.328  14.578 -0.4993  0.0331 -0.2445
 1714TIP3   OH226632   6.215   6.102   0.965  0.1224 -0.2970  0.3991
 1714TIP3    H126633   6.172   6.142   1.040 -0.7338  0.1296 -0.2992
 1714TIP3    H226634   6.272   6.171   0.930  1.0659 -0.7259  1.0732
 1715TIP3   OH226635   5.279   5.176   2.911  0.5506  0.2918 -0.1847
 1715TIP3    H126636   5.271   5.194   2.817  1.7156 -3.0497 -0.9873
 1715TIP3    H226637   5.296   5.082   2.916 -0.8746  0.1621  3.4873
 1716TIP3   OH226638   5.168   3.339  16.081 -0.2886  0.7585  0.2428
 1716TIP3    H126639   5.139   3.431  16.081 -0.2032  0.7853  0.1482
 1716TIP3    H226640   5.247   3.340  16.136  0.4592  0.9744 -0.8279
 1717TIP3   OH226641   2.490   0.508   1.850 -0.0149  0.3323  0.3667
 1717TIP3    H126642   2.523   0.544   1.932  1.6813  0.2833 -0.2749
 1717TIP3    H226643   2.405   0.551   1.837 -0.3151  0.3017  2.1541
 1718TIP3   OH226644   5.786   6.413  13.885 -0.0610  0.6078  0.2715
 1718TIP3    H126645   5.784   6.365  13.802  2.3574  0.8385  0.0557
 1718TIP3    H226646   5.860   6.376  13.933  0.0438  2.1400  1.3335
 1719TIP3   OH226647   2.975   2.719  11.430 -0.0496 -0.7179  0.9106
 1719TIP3    H126648   2.997   2.632  11.398 -1.1946 -0.6625 -0.0653
 1719TIP3    H226649   3.031   2.779  11.381 -1.3169 -0.6882 -0.5426
 1720TIP3   OH226650   2.635   4.147  16.907 -0.3258  0.2293 -0.3610
 1720TIP3    H126651   2.562   4.092  16.934  0.9698 -1.1950  0.3048
 1720TIP3    H226652   2.630   4.148  16.811  0.3924 -2.1137 -0.4428
 1721TIP3   OH226653   1.733   0.159   1.159 -0.2843 -0.0693 -0.3391
 1721TIP3    H126654   1.695   0.171   1.071 -1.5463  0.8924  0.3191
 1721TIP3    H226655   1.660   0.176   1.219  0.9163  0.6979  0.9352
 1722TIP3   OH226656   2.384   6.375  16.019  1.0061 -0.1674  0.6051
 1722TIP3    H126657   2.291   6.381  15.997  1.0927 -1.4366 -0.1810
 1722TIP3    H226658   2.387   6.332  16.104  0.8395  0.9336  1.1793
 1723TIP3   OH226659   1.919   4.495  15.270 -0.2476  0.2189 -0.3180
 1723TIP3    H126660   1.984   4.431  15.242 -0.0926  0.1524  0.1987
 1723TIP3    H226661   1.968   4.560  15.320 -0.6695 -0.1544  0.5947
 1724TIP3   OH226662   0.769   4.858   4.044 -0.6206  0.2588 -0.1767
 1724TIP3    H126663   0.843   4.798   4.052  0.0147  1.1019  0.4190
 1724TIP3    H226664   0.761   4.873   3.949  1.1831  1.6098 -0.1479
 1725TIP3   OH226665   3.289   1.298   4.371  0.1929  0.1228  0.4934
 1725TIP3    H126666   3.241   1.232   4.321  0.5743  1.4919 -1.7404
 1725TIP3    H226667   3.223   1.338   4.428 -0.6731 -0.0686 -0.3703
 1726TIP3   OH226668   4.462   0.324  12.982 -0.3385  0.2277 -0.5690
 1726TIP3    H126669   4.536   0.296  12.928  0.9846  1.1740  0.7105
 1726TIP3    H226670   4.490   0.308  13.072 -2.0395 -0.2102 -0.0993
 1727TIP3   OH226671   5.642   3.181   6.458  0.3273 -0.5242 -0.3071
 1727TIP3    H126672   5.656   3.094   6.422  0.5534 -0.8401  0.5193
 1727TIP3    H226673   5.552   3.203   6.434  0.0964 -1.2019 -0.0810
 1728TIP3   OH226674   6.443   4.010  12.281 -0.0829 -0.6008  0.3795
 1728TIP3    H126675   6.501   3.976  12.348 -0.5583  2.4298  2.4372
 1728TIP3    H226676   6.484   4.092  12.253 -1.5128 -0.2382 -0.7327
 1729TIP3   OH226677   1.641   2.186   6.129 -0.3111 -0.0897 -0.6296
 1729TIP3    H126678   1.657   2.217   6.218  1.6381  0.5090 -1.1549
 1729TIP3    H226679   1.664   2.093   6.132 -1.7860 -0.4493 -0.1396
 1730TIP3   OH226680   0.297   5.253   0.092 -0.3115 -0.4090 -0.1392
 1730TIP3    H126681   0.317   5.339   0.128  0.9725  0.0811 -1.9065
 1730TIP3    H226682   0.364   5.240   0.024 -1.2766 -2.2278 -0.7786
 1731TIP3   OH226683   4.131   2.307  10.681 -0.2109  0.0298 -0.2310
 1731TIP3    H126684   4.118   2.296  10.587  1.3205 -0.7229 -0.3836
 1731TIP3    H226685   4.226   2.302  10.692 -0.3549  0.4704  1.3138
 1732TIP3   OH226686   4.915   2.604  13.419  0.2035 -0.2749  0.1315
 1732TIP3    H126687   4.952   2.683  13.379  1.2299 -1.2441 -0.8872
 1732TIP3    H226688   4.823   2.607  13.394 -0.0001  1.1225  0.9759
 1733TIP3   OH226689   1.801   3.131  14.104  0.0562  0.5048 -0.0462
 1733TIP3    H126690   1.781   3.171  14.189  0.9200 -1.1577  0.9730
 1733TIP3    H226691   1.743   3.055  14.099  3.9512 -2.7802  1.7158
 1734TIP3   OH226692   0.085   3.529  16.032 -0.0356  0.6657 -0.0783
 1734TIP3    H126693   0.164   3.517  15.980 -1.3825 -0.5417 -1.9626
 1734TIP3    H226694   0.016   3.544  15.967 -1.2784  2.2344  1.5394
 1735TIP3   OH226695   2.360   1.054   5.788 -0.3406 -0.2214  0.2325
 1735TIP3    H126696   2.409   1.021   5.712 -1.2169  0.3449 -0.5868
 1735TIP3    H226697   2.353   1.148   5.773 -0.9987 -0.1872  0.7380
 1736TIP3   OH226698   0.772   6.480  13.599  0.5925  0.4430 -0.1462
 1736TIP3    H126699   0.743   6.571  13.606 -1.2188 -0.2389  1.8237
 1736TIP3    H226700   0.848   6.475  13.657 -0.0985  0.4372  0.7898
 1737TIP3   OH226701   1.963   3.107   3.930  0.1472 -0.1499 -0.4555
 1737TIP3    H126702   2.020   3.070   3.863 -0.6009 -2.3549  0.0723
 1737TIP3    H226703   2.019   3.113   4.008 -0.0052 -1.2054 -0.2565
 1738TIP3   OH226704   0.719   3.314   2.575  0.3805 -0.6364  0.7758
 1738TIP3    H126705   0.766   3.331   2.657  0.9605  1.0078  0.1096
 1738TIP3    H226706   0.785   3.325   2.507 -1.1207  2.4798 -0.2241
 1739TIP3   OH226707   4.760   2.635   4.568 -0.2713  1.1511 -0.6216
 1739TIP3    H126708   4.816   2.713   4.573  0.4732  0.5895 -0.2134
 1739TIP3    H226709   4.794   2.576   4.635 -0.1002 -0.0146 -1.7292
 1740TIP3   OH226710   0.655   6.655  13.023  0.0382  0.3859  0.2155
 1740TIP3    H126711   0.668   6.719  12.953  0.6911 -0.1202 -0.1356
 1740TIP3    H226712   0.592   6.592  12.986 -3.0801  2.5000  1.6899
 1741TIP3   OH226713   5.826   0.402  12.785  0.2416  0.0703 -0.0226
 1741TIP3    H126714   5.756   0.383  12.848 -0.2898  0.0709 -0.6064
 1741TIP3    H226715   5.898   0.436  12.839 -0.7916  1.6273  0.4100
 1742TIP3   OH226716   4.365   3.012  16.442 -0.1447  0.3561  0.0496
 1742TIP3    H126717   4.308   3.020  16.518 -0.3061  0.5262 -0.0859
 1742TIP3    H226718   4.389   3.102  16.420  1.8141  0.1839  1.3268
 1743TIP3   OH226719   3.925   5.818  16.737 -0.1205 -0.0698  0.0297
 1743TIP3    H126720   3.904   5.796  16.827 -1.3091 -0.4041 -0.3232
 1743TIP3    H226721   3.997   5.881  16.744  0.7882 -1.2138  1.1527
 1744TIP3   OH226722   2.519   1.931   2.995  0.5069  0.7354 -0.5265
 1744TIP3    H126723   2.504   1.850   2.947  0.9679  0.5506 -0.3631
 1744TIP3    H226724   2.568   1.987   2.935  0.3169  0.8362 -0.5872
 1745TIP3   OH226725   1.206   3.112   2.759  0.0494 -0.3970 -0.1716
 1745TIP3    H126726   1.234   3.148   2.842  1.3580 -0.7424 -0.4476
 1745TIP3    H226727   1.273   3.140   2.696 -0.6321 -0.5853 -1.0012
 1746TIP3   OH226728   5.776   1.647   4.132 -0.6291  0.3881 -0.2138
 1746TIP3    H126729   5.859   1.601   4.144 -1.5583 -1.2112  0.1587
 1746TIP3    H226730   5.737   1.651   4.220 -1.6054 -0.1281 -0.6166
 1747TIP3   OH226731   5.250   3.292  12.687 -0.0627  0.0242  0.1651
 1747TIP3    H126732   5.255   3.304  12.782 -1.3582  0.5645  0.1756
 1747TIP3    H226733   5.168   3.334  12.662  0.3189 -0.0271 -1.2142
 1748TIP3   OH226734   6.622   1.213   1.117  0.3382 -0.4651  0.2928
 1748TIP3    H126735   6.715   1.230   1.134  0.8792 -2.5139 -0.5494
 1748TIP3    H226736   6.596   1.285   1.059  0.7418  1.4979  2.4560
 1749TIP3   OH226737   5.988   3.159  11.462 -0.8055  0.3998  0.2143
 1749TIP3    H126738   5.976   3.242  11.415  0.7483 -0.0464 -1.0325
 1749TIP3    H226739   5.976   3.092  11.394 -0.0055 -0.3130  0.7689
 1750TIP3   OH226740   0.615   4.551  17.285  0.7866  0.0690  0.2392
 1750TIP3    H126741   0.546   4.545  17.352 -1.0499  2.3857 -1.3717
 1750TIP3    H226742   0.588   4.487  17.218 -0.2698  1.5555 -0.7744
 1751TIP3   OH226743   0.027   1.808  12.705  0.1046  0.6864  0.2044
 1751TIP3    H126744   0.061   1.805  12.795  1.7913  0.9847 -0.4065
 1751TIP3    H226745   0.017   1.716  12.681  0.5487  0.5867  0.3817
 1752TIP3   OH226746   6.652   2.674  13.071  0.0141 -0.5159 -0.3411
 1752TIP3    H126747   6.631   2.586  13.039  0.5154 -1.3969  1.6938
 1752TIP3    H226748   6.746   2.683  13.057 -0.0755 -0.2137 -0.7552
 1753TIP3   OH226749   5.861   6.701  12.142 -0.0956 -0.3388  0.6979
 1753TIP3    H126750   5.910   6.622  12.117  0.3630 -0.0052  0.5126
 1753TIP3    H226751   5.774   6.688  12.104  0.1505 -0.5023  0.1819
 1754TIP3   OH226752   3.738   1.083  14.897 -0.3312  0.5984 -0.0214
 1754TIP3    H126753   3.793   1.131  14.836 -0.2044  1.4525  0.7482
 1754TIP3    H226754   3.779   1.096  14.982 -1.4292  0.8252  0.4927
 1755TIP3   OH226755   4.423   6.598   1.922  0.5512  0.4693 -0.5470
 1755TIP3    H126756   4.489   6.601   1.991 -1.0260 -0.7033  1.0705
 1755TIP3    H226757   4.382   6.684   1.923  1.2891  0.8265 -0.7941
 1756TIP3   OH226758   3.622   3.128  14.459  0.3909  0.0900 -0.0158
 1756TIP3    H126759   3.656   3.061  14.519  0.1879 -0.8534 -0.9483
 1756TIP3    H226760   3.543   3.089  14.421 -0.0891  1.1159 -0.0812
 1757TIP3   OH226761   2.930   0.752  15.767  0.0542 -0.1954  0.2164
 1757TIP3    H126762   2.843   0.770  15.800  0.4910  2.0649  0.2284
 1757TIP3    H226763   2.936   0.802  15.686  1.5137  0.0738  0.4747
 1758TIP3   OH226764   2.673   1.287   4.775 -0.2805  0.3267 -0.6168
 1758TIP3    H126765   2.600   1.276   4.714 -1.9796  0.2941  1.3502
 1758TIP3    H226766   2.643   1.355   4.835  0.9161 -0.3598  0.7825
 1759TIP3   OH226767   6.315   1.244   2.287 -0.4544  0.4066  0.0432
 1759TIP3    H126768   6.317   1.149   2.296 -0.0659  0.5631  1.8556
 1759TIP3    H226769   6.249   1.261   2.220 -1.8775 -1.0582  1.0345
 1760TIP3   OH226770   0.059   3.202  14.022  0.8033 -0.0209 -0.4615
 1760TIP3    H126771   0.017   3.287  14.036  1.6653  0.6319 -1.7016
 1760TIP3    H226772  -0.004   3.138  14.055 -0.2685  1.0545 -0.3912
 1761TIP3   OH226773   4.574   3.738   5.600  0.3069  0.1479 -0.4596
 1761TIP3    H126774   4.532   3.673   5.657 -0.5016  0.8584 -0.2383
 1761TIP3    H226775   4.617   3.798   5.660 -0.3584  0.7706 -0.5945
 1762TIP3   OH226776   2.839   2.961   4.830  0.2015  0.1604 -0.3858
 1762TIP3    H126777   2.895   3.017   4.884  0.3313 -0.6113  0.2807
 1762TIP3    H226778   2.899   2.898   4.790 -0.1516 -0.4657  0.0712
 1763TIP3   OH226779   4.791   0.487  12.003  0.1372  0.5254 -0.1765
 1763TIP3    H126780   4.809   0.405  11.956  1.7199 -0.3085  1.7727
 1763TIP3    H226781   4.715   0.524  11.960  0.2896 -1.2535 -2.0370
 1764TIP3   OH226782   2.135   0.037  13.106  0.0171 -0.6820 -0.1039
 1764TIP3    H126783   2.227   0.062  13.117  0.0726 -1.2604  0.7406
 1764TIP3    H226784   2.086   0.106  13.150  0.0315 -0.3171 -0.6445
 1765TIP3   OH226785   4.501   4.471   0.040  0.0041 -0.5163 -0.3695
 1765TIP3    H126786   4.550   4.475  -0.042  0.1895 -0.2207 -0.2452
 1765TIP3    H226787   4.516   4.382   0.073  2.1926  0.2408  0.7556
 1766TIP3   OH226788   1.334   0.051   5.529  0.0418  0.6770 -0.4970
 1766TIP3    H126789   1.349   0.135   5.486 -2.0947  0.2155 -2.2366
 1766TIP3    H226790   1.316  -0.010   5.458  1.7753 -1.3528  0.7198
 1767TIP3   OH226791   2.314   6.077  16.604  0.8336  0.5298 -0.7797
 1767TIP3    H126792   2.381   6.013  16.581  0.1959 -0.2936 -0.3751
 1767TIP3    H226793   2.363   6.156  16.626  1.6424  0.0900 -0.9735
 1768TIP3   OH226794   5.990   1.347  11.266 -0.0145 -0.0787 -0.1880
 1768TIP3    H126795   6.083   1.343  11.289  0.0735  0.8802 -0.3837
 1768TIP3    H226796   5.983   1.290  11.189  0.6461  0.8434 -0.9397
 1769TIP3   OH226797   0.755   5.490   0.527 -0.3222  0.4700  0.2439
 1769TIP3    H126798   0.705   5.410   0.513  0.5782  0.0426 -0.5392
 1769TIP3    H226799   0.756   5.501   0.622 -4.0560  1.8559  0.2309
 1770TIP3   OH226800   3.137   3.111   0.899 -0.2612  0.1856 -0.1092
 1770TIP3    H126801   3.093   3.070   0.825 -1.4035 -0.6527  1.0209
 1770TIP3    H226802   3.139   3.044   0.966 -0.8776  1.4905  1.2571
 1771TIP3   OH226803   0.621   2.229   5.922 -0.6915 -0.1449 -0.5272
 1771TIP3    H126804   0.632   2.158   5.985 -1.0278  1.5677  1.5185
 1771TIP3    H226805   0.702   2.229   5.871  0.3010 -0.4471  1.0479
 1772TIP3   OH226806   4.880   3.018  15.457 -0.3780 -0.2267 -0.0207
 1772TIP3    H126807   4.896   3.111  15.443  1.3061 -0.5007 -0.0584
 1772TIP3    H226808   4.851   3.013  15.549  2.3875  0.0498  0.9203
 1773TIP3   OH226809   5.293   4.173   4.668  0.2357 -0.0715  0.5196
 1773TIP3    H126810   5.313   4.196   4.759  0.1419 -1.5391  0.9225
 1773TIP3    H226811   5.323   4.083   4.658  1.4237  0.4911 -1.3000
 1774TIP3   OH226812   6.526   0.688  11.882 -0.8747 -0.5323  0.7956
 1774TIP3    H126813   6.454   0.750  11.874  0.6212  1.2195  0.5934
 1774TIP3    H226814   6.564   0.683  11.794 -0.0896 -0.6056  1.1273
 1775TIP3   OH226815   3.883   6.387   6.237  0.4026 -0.8879  0.0759
 1775TIP3    H126816   3.950   6.423   6.294 -0.6191  0.9523  0.1597
 1775TIP3    H226817   3.829   6.332   6.294 -0.1540  0.3203  0.7203
 1776TIP3   OH226818   4.740   1.048   4.140 -0.3112 -0.5206 -0.6818
 1776TIP3    H126819   4.815   1.107   4.139 -0.2771 -0.5693 -1.4248
 1776TIP3    H226820   4.694   1.069   4.221  1.0602 -1.1964  0.2928
 1777TIP3   OH226821   4.083   1.353   3.996 -0.1595  0.2010  0.7492
 1777TIP3    H126822   4.097   1.444   3.971  0.8078  0.1381  1.0234
 1777TIP3    H226823   4.161   1.331   4.048 -0.5047 -0.7035  0.8843
 1778TIP3   OH226824   2.658   5.773   0.393  0.1971  0.2282 -0.2183
 1778TIP3    H126825   2.582   5.742   0.442  1.4535 -1.5450  0.6467
 1778TIP3    H226826   2.622   5.810   0.312 -1.5694 -0.5916  0.1933
 1779TIP3   OH226827   2.861   4.556  15.818 -0.0690  0.2268  0.6988
 1779TIP3    H126828   2.782   4.568  15.766  0.4827  1.2089  0.0534
 1779TIP3    H226829   2.831   4.522  15.902 -1.3439  2.1087  1.0362
 1780TIP3   OH226830   4.837   4.579  17.020  0.2291 -0.0267 -0.1535
 1780TIP3    H126831   4.902   4.555  16.954  0.1811  0.3809 -0.3537
 1780TIP3    H226832   4.846   4.674  17.029 -1.5475  0.3026 -1.4858
 1781TIP3   OH226833   6.634   0.657  11.407  0.5061  0.1706  0.4691
 1781TIP3    H126834   6.595   0.602  11.340  1.5136 -0.5433  0.4482
 1781TIP3    H226835   6.661   0.596  11.476 -0.8950  0.9345  1.7151
 1782TIP3   OH226836   4.692   2.720  12.117 -0.1028  0.3195  0.0716
 1782TIP3    H126837   4.625   2.756  12.060 -0.0222  0.5773  0.1424
 1782TIP3    H226838   4.644   2.662  12.177 -0.1392 -0.2383 -0.4958
 1783TIP3   OH226839   2.465   4.494  12.373 -0.0969  0.0283  0.3259
 1783TIP3    H126840   2.461   4.581  12.411  1.1961 -0.7830  2.4055
 1783TIP3    H226841   2.400   4.443  12.422  1.1720 -0.8788  1.0937
 1784TIP3   OH226842   6.807   2.763  16.917 -0.0900  0.1547  0.0751
 1784TIP3    H126843   6.800   2.785  17.010  2.3301  0.6857  0.1720
 1784TIP3    H226844   6.834   2.671  16.916 -2.2627 -0.5018 -0.1647
 1785TIP3   OH226845   2.984   5.375  13.202  0.2379 -0.0030  0.5104
 1785TIP3    H126846   2.904   5.355  13.153 -0.6559  0.6778  1.6762
 1785TIP3    H226847   2.992   5.305  13.266  0.5957 -0.0824  0.3822
 1786TIP3   OH226848   3.107   2.272   0.124 -0.5601 -0.2087 -0.6869
 1786TIP3    H126849   3.089   2.308   0.211 -0.2080 -0.0767 -0.6666
 1786TIP3    H226850   3.053   2.323   0.064 -1.4918 -0.8868 -0.4506
 1787TIP3   OH226851   6.121   1.613  11.406 -0.2046 -0.1799  0.5256
 1787TIP3    H126852   6.129   1.686  11.467 -1.3300 -0.1225  0.6144
 1787TIP3    H226853   6.202   1.563  11.418  0.5273  0.9880  0.5325
 1788TIP3   OH226854   5.327   6.420   4.901 -0.3909 -0.0758 -0.1935
 1788TIP3    H126855   5.411   6.414   4.856 -1.4691 -1.8539 -2.0378
 1788TIP3    H226856   5.313   6.513   4.913  1.7201  0.2564 -0.0879
 1789TIP3   OH226857   2.960   3.109  14.590  0.3796  0.0877 -0.4556
 1789TIP3    H126858   2.948   3.031  14.536 -0.2370 -0.4676  0.4704
 1789TIP3    H226859   2.993   3.175  14.529 -2.6444  0.2185 -2.0815
 1790TIP3   OH226860   2.636   3.552   5.800 -0.2892 -0.3401 -0.0578
 1790TIP3    H126861   2.592   3.569   5.884 -0.1496 -0.2757  0.0017
 1790TIP3    H226862   2.711   3.497   5.823  0.4869  0.7490  0.0225
 1791TIP3   OH226863   4.374   3.642  13.037  0.0840  0.0345  0.6368
 1791TIP3    H126864   4.312   3.584  12.993 -1.1524  1.3799  0.5388
 1791TIP3    H226865   4.451   3.588  13.054  0.0766 -0.8655 -1.9690
 1792TIP3   OH226866   0.891   0.550  12.872 -0.8947  0.5102  0.9694
 1792TIP3    H126867   0.938   0.467  12.882 -1.7816 -0.0804  0.2702
 1792TIP3    H226868   0.827   0.550  12.943 -1.9829 -0.1526  0.0022
 1793TIP3   OH226869   6.238   5.476  16.001  0.8043  0.3065 -0.2696
 1793TIP3    H126870   6.156   5.511  15.967  0.6274  1.2575  1.1013
 1793TIP3    H226871   6.238   5.384  15.973 -0.8725  0.2124 -0.0267
 1794TIP3   OH226872   1.456   1.879  14.724  0.2174  0.1061  0.4474
 1794TIP3    H126873   1.484   1.802  14.772  1.2561 -0.5909 -1.2430
 1794TIP3    H226874   1.533   1.907  14.674 -0.5887  1.2930 -0.1777
 1795TIP3   OH226875   4.797   5.167  14.434 -0.2375 -0.0634 -0.1921
 1795TIP3    H126876   4.725   5.109  14.408  0.4309 -1.1366  0.3220
 1795TIP3    H226877   4.814   5.144  14.525 -0.6340  1.6552  0.3256
 1796TIP3   OH226878   4.698   1.078   0.384 -0.3560  0.9816 -0.2789
 1796TIP3    H126879   4.704   1.154   0.326 -2.1354  1.6220  0.3521
 1796TIP3    H226880   4.679   1.115   0.470  1.0727 -0.0448  0.4914
 1797TIP3   OH226881   4.702   2.272  15.416  0.0924  0.3189  0.1971
 1797TIP3    H126882   4.726   2.195  15.469  1.0553 -1.4266 -2.6726
 1797TIP3    H226883   4.611   2.256  15.392  1.1346 -1.4703 -2.8267
 1798TIP3   OH226884   3.241   1.199   2.658 -0.1749 -0.2552  0.1214
 1798TIP3    H126885   3.326   1.155   2.660  0.1109  0.3165  0.5840
 1798TIP3    H226886   3.206   1.188   2.746  0.2991  1.2323  0.5053
 1799TIP3   OH226887   1.990   6.562  14.001 -0.3047 -0.1309  0.0188
 1799TIP3    H126888   1.954   6.551  14.089  0.0624  0.6048  0.2672
 1799TIP3    H226889   2.047   6.639  14.007  0.9734 -1.0001 -0.4655
 1800TIP3   OH226890   4.017   0.964  12.330  0.5502 -0.6441 -0.3598
 1800TIP3    H126891   4.107   0.988  12.310  0.2165  1.1100  0.1189
 1800TIP3    H226892   4.003   0.995  12.420 -0.0776 -2.2523  0.1246
 1801TIP3   OH226893   0.064   0.509  16.921  0.1900 -0.0045 -0.6592
 1801TIP3    H126894   0.003   0.434  16.921  0.9766 -0.6490 -0.6933
 1801TIP3    H226895   0.129   0.487  16.987  0.8056  0.3388 -1.1519
 1802TIP3   OH226896   2.760   1.210  15.058  0.5110  0.2950 -0.2167
 1802TIP3    H126897   2.680   1.199  15.006 -0.4814  0.8765  1.1520
 1802TIP3    H226898   2.811   1.274  15.009 -0.7148  1.3382 -0.1854
 1803TIP3   OH226899   0.311   4.431  10.520 -0.1529  0.2117 -0.1446
 1803TIP3    H126900   0.282   4.464  10.435 -0.7710 -0.0545 -0.0339
 1803TIP3    H226901   0.300   4.505  10.580 -1.0467 -0.0366 -0.0050
 1804TIP3   OH226902   3.591   6.767   0.043  0.7964  0.3161 -0.3590
 1804TIP3    H126903   3.541   6.802   0.117 -1.6529 -0.0232 -1.8125
 1804TIP3    H226904   3.612   6.677   0.068 -0.8349 -0.1006 -0.4624
 1805TIP3   OH226905   4.738   2.544   0.059 -0.1352 -0.5686  0.5217
 1805TIP3    H126906   4.704   2.457   0.035 -1.4670 -0.3988  1.7018
 1805TIP3    H226907   4.832   2.538   0.045 -0.4495 -1.5935 -1.2572
 1806TIP3   OH226908   2.213   2.827   5.189 -0.1841 -0.2960 -0.2755
 1806TIP3    H126909   2.294   2.850   5.236 -0.0023 -2.8609  0.7128
 1806TIP3    H226910   2.188   2.908   5.144  2.3887  0.8179  0.2099
 1807TIP3   OH226911   4.282   2.710   2.454 -0.0604  0.0222  0.2877
 1807TIP3    H126912   4.276   2.713   2.550  2.4500 -1.3877  0.5405
 1807TIP3    H226913   4.313   2.797   2.429  2.7961 -0.7110  1.1103
 1808TIP3   OH226914   0.975   2.195   4.284 -0.1699  0.5999  0.1007
 1808TIP3    H126915   0.929   2.215   4.365 -0.9216  1.5967 -0.5546
 1808TIP3    H226916   0.964   2.101   4.272 -1.2443  0.6847  0.4210
 1809TIP3   OH226917   5.460   4.644  11.723 -0.4170  0.0885  0.1114
 1809TIP3    H126918   5.485   4.587  11.796 -0.3260  0.3516  0.2854
 1809TIP3    H226919   5.422   4.721  11.765 -0.6457  0.1069 -0.1272
 1810TIP3   OH226920   5.703   5.220  14.948 -0.1767  0.1864  0.1154
 1810TIP3    H126921   5.782   5.246  14.900 -0.2917  1.6859  0.7269
 1810TIP3    H226922   5.735   5.194  15.034  0.0483 -2.6614 -0.7726
 1811TIP3   OH226923   0.533   0.956   0.823  0.1499  0.2756 -0.2366
 1811TIP3    H126924   0.589   0.995   0.889 -0.4254  0.8763 -0.0928
 1811TIP3    H226925   0.542   0.862   0.836  0.2685  0.3884  0.5028
 1812TIP3   OH226926   1.354   2.293  12.077 -0.1951 -0.3345 -0.1989
 1812TIP3    H126927   1.301   2.348  12.019 -2.7120 -0.9888  1.4017
 1812TIP3    H226928   1.386   2.223  12.020 -1.4980 -0.2088 -1.1251
 1813TIP3   OH226929   5.598   0.900   1.290 -0.2446  0.1009 -0.1871
 1813TIP3    H126930   5.632   0.911   1.378 -0.6798  0.7756 -0.0983
 1813TIP3    H226931   5.669   0.858   1.241  1.1415  2.5368 -0.3074
 1814TIP3   OH226932   0.774   6.739  14.749 -0.3013  0.4523 -0.2305
 1814TIP3    H126933   0.693   6.789  14.751 -0.9117 -0.5517  1.5084
 1814TIP3    H226934   0.843   6.805  14.743 -1.1761  1.3809 -0.1626
 1815TIP3   OH226935   5.667   1.553   6.217  0.4236 -0.1914  0.2562
 1815TIP3    H126936   5.687   1.635   6.171 -1.0312 -1.1002 -2.1090
 1815TIP3    H226937   5.749   1.527   6.257  0.7441  2.7909  1.6684
 1816TIP3   OH226938   3.912   4.829   3.355  0.3441  0.0978 -0.0470
 1816TIP3    H126939   3.897   4.747   3.401 -1.2135 -1.1034 -2.5589
 1816TIP3    H226940   3.827   4.874   3.357  1.2222  1.7347  1.4336
 1817TIP3   OH226941   0.975   0.921   5.887 -0.1696  0.3642  0.0520
 1817TIP3    H126942   0.927   0.913   5.804 -0.8884  1.2960  0.3692
 1817TIP3    H226943   1.042   0.986   5.869 -0.1607  0.3747  0.1252
 1818TIP3   OH226944   2.255   3.953   5.413  0.5601  0.5806  0.1166
 1818TIP3    H126945   2.254   3.884   5.479  2.9207  1.1512  0.8041
 1818TIP3    H226946   2.179   4.007   5.433  0.5426  0.0228  1.5866
 1819TIP3   OH226947   3.661   0.649  13.930  0.2608  0.4531 -0.0799
 1819TIP3    H126948   3.610   0.612  14.002 -0.2227  1.7103  0.2395
 1819TIP3    H226949   3.751   0.623  13.949 -0.1108 -0.8883 -0.0815
 1820TIP3   OH226950   2.259   0.072  16.968 -0.0640  0.1653 -0.7243
 1820TIP3    H126951   2.290   0.036  16.884 -1.1618  1.1592 -1.5804
 1820TIP3    H226952   2.172   0.035  16.979 -0.3084  0.8012 -0.5056
 1821TIP3   OH226953   4.896   5.403   2.888 -0.3227 -0.1266  0.1740
 1821TIP3    H126954   4.901   5.474   2.824  3.1483 -0.9046 -0.5233
 1821TIP3    H226955   4.958   5.428   2.956 -0.6363 -1.4904  0.9730
 1822TIP3   OH226956   0.027   1.436  14.825  0.1648  0.0813  0.6129
 1822TIP3    H126957   0.002   1.402  14.910  1.6247 -0.7713  0.7136
 1822TIP3    H226958   0.064   1.361  14.779  1.4942  1.0533  0.0707
 1823TIP3   OH226959   3.389   4.354   5.438  0.1494  0.0539  0.0688
 1823TIP3    H126960   3.403   4.320   5.350  0.5662 -1.6496  0.7873
 1823TIP3    H226961   3.341   4.285   5.484 -0.0111  0.8933  1.2043
 1824TIP3   OH226962   1.423   1.837  16.586  0.1356  0.2642 -0.2929
 1824TIP3    H126963   1.442   1.929  16.571  1.0931  0.0696 -0.2834
 1824TIP3    H226964   1.422   1.828  16.682 -0.1997  0.3076 -0.2909
 1825TIP3   OH226965   6.410   3.844   5.848  0.5620 -0.1732 -0.2616
 1825TIP3    H126966   6.413   3.936   5.821  2.2318  0.2314  1.2013
 1825TIP3    H226967   6.343   3.804   5.792  1.1993  1.4800 -2.2411
 1826TIP3   OH226968   1.096   3.742  12.529  0.2429 -0.1287 -0.1962
 1826TIP3    H126969   1.077   3.800  12.603  0.4137 -0.1529 -0.1327
 1826TIP3    H226970   1.109   3.656  12.568  2.0072  0.1725 -0.0565
 1827TIP3   OH226971   5.929   1.331   5.410 -0.5314  0.3322 -0.4046
 1827TIP3    H126972   5.969   1.380   5.338 -1.7260 -0.5974 -1.7283
 1827TIP3    H226973   5.921   1.242   5.377 -0.2049 -0.3168  1.2480
 1828TIP3   OH226974   2.785   2.909   6.535 -0.5240 -0.6999 -0.4573
 1828TIP3    H126975   2.742   2.961   6.603 -1.0011 -2.2426  0.4221
 1828TIP3    H226976   2.876   2.903   6.563 -0.4118 -0.1618 -0.6859
 1829TIP3   OH226977   4.631   4.223  10.764 -0.2092 -0.6377 -1.1266
 1829TIP3    H126978   4.538   4.215  10.745  0.0734  1.0309 -3.4078
 1829TIP3    H226979   4.647   4.318  10.765  1.3756 -0.8972 -0.2922
 1830TIP3   OH226980   0.997   5.682   0.001  0.5502 -0.4106 -0.3486
 1830TIP3    H126981   0.962   5.725   0.078  1.4454 -0.5310  0.1322
 1830TIP3    H226982   1.090   5.704   0.001  0.6405 -0.7566 -1.1603
 1831TIP3   OH226983   0.460   4.049   0.138  0.2913 -0.0961  0.0321
 1831TIP3    H126984   0.411   3.978   0.096 -0.1212  0.3638 -0.2564
 1831TIP3    H226985   0.423   4.054   0.226  1.5313 -1.4349  0.6656
 1832TIP3   OH226986   5.906   0.213  15.686 -0.0449  0.5595  0.0334
 1832TIP3    H126987   5.817   0.203  15.719  0.1603  1.6969  0.9486
 1832TIP3    H226988   5.962   0.193  15.761  0.4342  2.3102  0.1573
 1833TIP3   OH226989   4.876   4.342   1.424 -0.6358 -0.0624  0.0785
 1833TIP3    H126990   4.839   4.282   1.359 -0.5247  2.0906 -2.0197
 1833TIP3    H226991   4.953   4.378   1.382  0.9383 -0.5589  2.4353
 1834TIP3   OH226992   4.508   5.004  13.459 -0.1450  0.1351 -0.1644
 1834TIP3    H126993   4.491   4.984  13.551 -2.6370 -0.3142 -0.6783
 1834TIP3    H226994   4.529   5.098  13.458  0.4279  0.0262  0.9042
 1835TIP3   OH226995   5.057   4.899   6.472  0.2674 -0.1439 -0.1825
 1835TIP3    H126996   4.987   4.921   6.410 -0.5819 -1.7860  0.1575
 1835TIP3    H226997   5.050   4.804   6.483 -0.1319  0.1949  3.0131
 1836TIP3   OH226998   3.062   1.858  14.752  0.1705  0.2284  0.2181
 1836TIP3    H126999   3.141   1.812  14.723 -0.5768 -0.2630 -1.0534
 1836TIP3    H227000   3.017   1.881  14.671 -0.6400  1.1445  0.9237
 1837TIP3   OH227001   4.404   0.868  11.483 -0.3435  0.4881  0.1268
 1837TIP3    H127002   4.491   0.905  11.466 -0.5245  0.1050 -1.7992
 1837TIP3    H227003   4.356   0.939  11.526  1.3951  0.1613  2.6992
 1838TIP3   OH227004   2.680   4.447   3.537 -0.6681 -0.4390 -0.5471
 1838TIP3    H127005   2.753   4.422   3.480  0.6443  1.2369  0.3627
 1838TIP3    H227006   2.669   4.541   3.523  0.2468  0.1794  2.5820
 1839TIP3   OH227007   0.893   0.955  12.790  0.1422  0.2843 -0.4787
 1839TIP3    H127008   0.934   0.874  12.760 -0.4810 -0.2021 -0.0140
 1839TIP3    H227009   0.854   0.933  12.874 -1.5173  0.6158 -1.1500
 1840TIP3   OH227010   6.024   5.616  11.318 -0.0770 -0.2288 -0.0149
 1840TIP3    H127011   6.000   5.708  11.319  1.1621  0.1280 -0.7666
 1840TIP3    H227012   6.092   5.610  11.250  0.0486 -1.6369  0.2101
 1841TIP3   OH227013   1.956   1.339   0.033 -0.1774 -0.0018 -0.0137
 1841TIP3    H127014   1.947   1.419  -0.020  0.3552 -0.1101 -0.2773
 1841TIP3    H227015   1.889   1.347   0.100 -0.4059  0.4738 -0.2902
 1842TIP3   OH227016   1.917   5.003  15.556 -0.1300  0.5666 -1.0227
 1842TIP3    H127017   1.855   5.015  15.484 -0.5987  2.4205 -0.3351
 1842TIP3    H227018   1.914   4.909  15.574 -0.1321  0.0993 -3.2956
 1843TIP3   OH227019   0.557   0.924   1.693 -0.0126  0.2097  0.2149
 1843TIP3    H127020   0.539   0.857   1.759  1.3112 -1.3960 -1.0078
 1843TIP3    H227021   0.590   0.999   1.743 -0.8287 -0.2863  1.5261
 1844TIP3   OH227022   2.742   2.265   4.982 -0.1551 -0.0961  0.0205
 1844TIP3    H127023   2.820   2.312   4.950 -0.5742  0.8459  0.3730
 1844TIP3    H227024   2.767   2.173   4.978  0.7085  0.1543 -0.6138
 1845TIP3   OH227025   0.605   3.905  15.731 -0.1534  0.6610  0.0895
 1845TIP3    H127026   0.668   3.839  15.702 -1.3144 -0.4321 -0.0115
 1845TIP3    H227027   0.521   3.858  15.734 -0.9766  2.1055  0.1389
 1846TIP3   OH227028   6.038   5.640   1.900  0.1309 -0.1241  0.1746
 1846TIP3    H127029   5.982   5.709   1.935  1.1883  0.3560  0.9367
 1846TIP3    H227030   6.051   5.663   1.808  1.1146  1.1256  0.6116
 1847TIP3   OH227031   0.177   2.971   0.705 -0.2784 -0.8006 -0.1681
 1847TIP3    H127032   0.249   2.949   0.646 -0.8894 -0.4250 -1.0508
 1847TIP3    H227033   0.102   2.986   0.648 -0.3788  1.6413  0.5222
 1848TIP3   OH227034   1.611   3.171  15.767 -0.2368 -0.9208  0.1877
 1848TIP3    H127035   1.640   3.262  15.770 -0.7328 -0.7646  0.1644
 1848TIP3    H227036   1.622   3.145  15.676 -0.7749 -0.6662  0.0498
 1849TIP3   OH227037   0.394   1.372  15.769  0.2879 -0.1031 -0.5575
 1849TIP3    H127038   0.325   1.306  15.763 -1.2552  1.3388  0.8221
 1849TIP3    H227039   0.458   1.334  15.829  0.5999 -1.3476 -1.6550
 1850TIP3   OH227040   6.504   1.084   0.610 -0.0483  0.1988 -0.3519
 1850TIP3    H127041   6.488   1.070   0.517 -0.0139  1.9888 -0.6332
 1850TIP3    H227042   6.417   1.093   0.649 -0.0215  0.9221 -0.4514
 1851TIP3   OH227043   0.895   2.191   5.856 -0.1528  0.1698  0.3914
 1851TIP3    H127044   0.848   2.130   5.800  0.9565  1.4259 -1.9714
 1851TIP3    H227045   0.886   2.154   5.944 -0.8003 -2.5389 -0.7575
 1852TIP3   OH227046   1.174   1.477  14.158  0.0609  0.4480 -0.4622
 1852TIP3    H127047   1.200   1.538  14.089  2.4235 -0.2798 -0.2909
 1852TIP3    H227048   1.234   1.496  14.230  1.8219 -2.9238 -0.9004
 1853TIP3   OH227049   4.925   0.539   0.015 -0.5199  0.1543  0.7416
 1853TIP3    H127050   4.849   0.482   0.024  1.4404 -2.4999  0.9486
 1853TIP3    H227051   4.921   0.570  -0.075 -0.7549 -1.5738  0.1490
 1854TIP3   OH227052   1.910   3.517  15.930  0.2968 -0.2140  0.2275
 1854TIP3    H127053   1.986   3.576  15.932 -0.6876  1.1800 -1.7058
 1854TIP3    H227054   1.868   3.536  15.846 -0.4441 -3.2193 -0.1068
 1855TIP3   OH227055   1.795   4.458   4.035  0.2703 -0.1563 -0.0599
 1855TIP3    H127056   1.870   4.495   4.082 -0.4293  0.5854  0.4816
 1855TIP3    H227057   1.833   4.426   3.953  1.4391 -1.1736  0.8587
 1856TIP3   OH227058   3.255   0.301   0.784  0.0715 -0.0076 -0.1801
 1856TIP3    H127059   3.225   0.219   0.745  0.2692 -0.6221  0.9439
 1856TIP3    H227060   3.303   0.275   0.863 -2.6706  1.3107  2.0271
 1857TIP3   OH227061   1.396   0.442   3.912 -0.0259 -0.5929  0.4688
 1857TIP3    H127062   1.385   0.348   3.901 -0.3767 -0.2544 -2.5559
 1857TIP3    H227063   1.307   0.477   3.908  0.2564  0.0334 -0.4503
 1858TIP3   OH227064   6.507   4.833   5.897 -0.1091  0.4475  0.2328
 1858TIP3    H127065   6.456   4.753   5.886  0.8180 -0.0859 -0.3310
 1858TIP3    H227066   6.521   4.865   5.808  0.0667  0.8835  0.4169
 1859TIP3   OH227067   0.941   1.626   5.706 -0.2352  0.2304 -0.9021
 1859TIP3    H127068   1.029   1.590   5.716  0.5091  2.3068  0.4375
 1859TIP3    H227069   0.918   1.658   5.793 -1.2264  2.1007 -1.8023
 1860TIP3   OH227070   0.219   4.496   4.328  0.1456 -0.3235  0.4504
 1860TIP3    H127071   0.134   4.535   4.345 -0.0126 -0.0112 -1.0152
 1860TIP3    H227072   0.199   4.414   4.282  0.5494 -1.3036  1.9888
 1861TIP3   OH227073   4.036   3.784   4.258 -0.5651 -0.1266  0.3928
 1861TIP3    H127074   4.114   3.812   4.305 -0.4457  0.3747 -0.0930
 1861TIP3    H227075   3.966   3.789   4.323 -0.9839  3.6085 -0.2224
 1862TIP3   OH227076   4.092   3.644   0.882  0.9567  0.0154  0.7111
 1862TIP3    H127077   4.096   3.733   0.848  0.3250 -0.6843 -1.2949
 1862TIP3    H227078   4.182   3.622   0.902  1.4223  0.3425 -0.9199
 1863TIP3   OH227079   2.395   6.547   0.671  0.6903  0.0459  0.3158
 1863TIP3    H127080   2.457   6.508   0.610 -0.0070 -0.5962  0.0177
 1863TIP3    H227081   2.414   6.505   0.755  0.4552 -0.3767  0.1583
 1864TIP3   OH227082   0.585   0.888  14.653 -0.1020  0.2367 -0.3411
 1864TIP3    H127083   0.520   0.952  14.625 -0.6948 -0.7292 -1.2079
 1864TIP3    H227084   0.568   0.810  14.599 -0.2884 -1.1460  1.6342
 1865TIP3   OH227085   2.297   5.121  14.397  0.2108 -0.0607  0.0076
 1865TIP3    H127086   2.216   5.093  14.354 -0.4054  0.7041  0.6415
 1865TIP3    H227087   2.279   5.211  14.424  0.2448 -0.8022  2.6433
 1866TIP3   OH227088   0.906   5.736  14.519  0.2248 -0.0005  0.2070
 1866TIP3    H127089   0.993   5.722  14.557 -0.1751  0.5346  1.3337
 1866TIP3    H227090   0.866   5.650  14.520  0.7943 -0.2794 -0.4564
 1867TIP3   OH227091   1.097   5.137   5.330 -0.0625  0.2920 -0.0472
 1867TIP3    H127092   1.073   5.050   5.363  1.7156  0.1589  0.9828
 1867TIP3    H227093   1.070   5.136   5.238 -5.9992  0.9768  1.4569
 1868TIP3   OH227094   2.302   1.272   5.567  0.3801  0.6159  0.4821
 1868TIP3    H127095   2.318   1.320   5.648  1.9535  1.2009 -0.1573
 1868TIP3    H227096   2.355   1.317   5.501 -0.0869 -0.4739 -0.6636
 1869TIP3   OH227097   3.977   3.422   3.373  0.0376  0.2919  0.2461
 1869TIP3    H127098   3.882   3.416   3.382  0.1662 -2.2199  0.3166
 1869TIP3    H227099   3.992   3.436   3.279 -0.3332 -2.4356 -0.2654
 1870TIP3   OH227100   4.607   4.391   4.093 -0.3740 -0.2026  0.1767
 1870TIP3    H127101   4.675   4.373   4.159  0.0307 -0.0251 -0.1923
 1870TIP3    H227102   4.587   4.484   4.104 -0.6752 -0.2898  0.3912
 1871TIP3   OH227103   2.893   1.726  16.267 -0.1900  0.0887  0.1729
 1871TIP3    H127104   2.921   1.681  16.187 -1.9151 -0.8082  0.0617
 1871TIP3    H227105   2.850   1.805  16.236  0.9772  0.7964  0.3047
 1872TIP3   OH227106   2.277   0.452   5.792 -0.2564  0.2504 -0.2303
 1872TIP3    H127107   2.346   0.510   5.825 -1.1373  1.1320  0.0886
 1872TIP3    H227108   2.196   0.491   5.824 -0.8778 -1.0396 -0.2139
 1873TIP3   OH227109   3.345   2.964   0.220 -0.3093 -0.1344 -0.0715
 1873TIP3    H127110   3.292   2.976   0.141 -0.5703 -0.6578  0.0236
 1873TIP3    H227111   3.282   2.968   0.292  0.0043  0.9553  0.1601
 1874TIP3   OH227112   1.522   1.325  17.139  0.2439  0.6666 -0.4720
 1874TIP3    H127113   1.612   1.332  17.109  0.3019 -0.3891 -0.5526
 1874TIP3    H227114   1.524   1.258  17.208 -0.2911  1.4046  0.2724
 1875TIP3   OH227115   0.561   5.016   4.327  0.0831  0.8375  0.1790
 1875TIP3    H127116   0.513   4.940   4.362 -0.5625  1.2569  0.2072
 1875TIP3    H227117   0.592   5.062   4.405 -0.2460  1.0628  0.1771
 1876TIP3   OH227118   1.228   2.704  12.789 -0.1982 -0.2150 -0.5378
 1876TIP3    H127119   1.175   2.780  12.810 -1.2179 -0.5290 -1.9341
 1876TIP3    H227120   1.307   2.741  12.749  0.3332  0.2085  0.8592
 1877TIP3   OH227121   5.919   2.744  13.791 -0.4612  0.2565  0.1577
 1877TIP3    H127122   5.969   2.666  13.818  0.2755  0.9139  0.7156
 1877TIP3    H227123   5.828   2.718  13.802 -0.1887  0.1902  2.4215
 1878TIP3   OH227124   6.291   0.312  11.215  0.4356 -0.0034  0.1915
 1878TIP3    H127125   6.274   0.233  11.164  0.9179  0.6299 -0.9549
 1878TIP3    H227126   6.318   0.279  11.301  1.7493 -1.1274 -0.6147
 1879TIP3   OH227127   5.761   2.620   4.503  0.0586  0.1686 -0.8931
 1879TIP3    H127128   5.840   2.570   4.484  0.8286  0.7160  0.8088
 1879TIP3    H227129   5.763   2.691   4.439  0.5273 -0.2700 -1.3733
 1880TIP3   OH227130   1.756   2.894   5.933  0.0637  0.2642 -0.5047
 1880TIP3    H127131   1.743   2.945   6.013  1.0115 -1.2667  0.6653
 1880TIP3    H227132   1.851   2.889   5.923  0.0340 -2.3833  0.1703
 1881TIP3   OH227133   0.290   2.639  16.676  0.3128  0.0470 -0.5703
 1881TIP3    H127134   0.313   2.559  16.627 -1.2128  0.2027 -1.6084
 1881TIP3    H227135   0.194   2.637  16.680  0.1652  2.5753 -1.8978
 1882TIP3   OH227136   0.589   3.085   2.513 -0.8963  0.0052 -0.3748
 1882TIP3    H127137   0.619   3.170   2.544  0.7399 -0.5619 -0.3424
 1882TIP3    H227138   0.664   3.027   2.525 -2.2509 -1.6456  0.3782
 1883TIP3   OH227139   4.695   1.891  12.934  0.5542  0.2056 -0.1054
 1883TIP3    H127140   4.712   1.854  12.847  0.1463  2.0835 -1.0332
 1883TIP3    H227141   4.605   1.865  12.953  0.3371  0.5412 -0.6574
 1884TIP3   OH227142   5.887   2.338  15.468  0.5904  0.2220 -0.2620
 1884TIP3    H127143   5.815   2.276  15.450 -0.4439  1.3325 -0.0365
 1884TIP3    H227144   5.859   2.384  15.547  2.8584 -1.2565  1.4484
 1885TIP3   OH227145   4.153   1.928   2.921  0.3041 -0.4733  0.7141
 1885TIP3    H127146   4.221   1.972   2.870  0.1827 -0.5017  0.5272
 1885TIP3    H227147   4.118   1.862   2.861 -0.4753  0.1099  0.5102
 1886TIP3   OH227148   1.519   5.073  12.183  0.1573  0.0176 -0.5407
 1886TIP3    H127149   1.571   5.084  12.264  0.7216  0.1830 -0.9200
 1886TIP3    H227150   1.516   5.161  12.145 -0.3085 -0.0164 -0.5839
 1887TIP3   OH227151   1.776   0.568  15.470 -0.0637  0.3878 -0.0355
 1887TIP3    H127152   1.789   0.646  15.415  0.5281  0.8397  0.7312
 1887TIP3    H227153   1.695   0.586  15.517  0.2947  0.7357  0.4555
 1888TIP3   OH227154   4.345   0.783  15.325 -0.0169 -0.3524  0.1307
 1888TIP3    H127155   4.355   0.876  15.303  2.3647 -0.5991  0.0809
 1888TIP3    H227156   4.260   0.778  15.369 -0.8400  1.6056 -1.1493
 1889TIP3   OH227157   4.788   4.799  16.205  0.7895  0.7002 -0.1229
 1889TIP3    H127158   4.840   4.728  16.165 -1.1944 -0.0582 -1.4555
 1889TIP3    H227159   4.850   4.870  16.219  2.6613 -1.0242  0.4859
 1890TIP3   OH227160   0.313   3.419   0.960 -0.5936 -0.2678  0.4990
 1890TIP3    H127161   0.255   3.460   0.897 -0.6873  0.4827  1.0681
 1890TIP3    H227162   0.294   3.325   0.954  0.0147 -0.2935 -1.1998
 1891TIP3   OH227163   2.328   0.388   0.017 -0.4341 -0.0010 -0.0532
 1891TIP3    H127164   2.249   0.441   0.007 -0.6346 -0.3932 -0.5860
 1891TIP3    H227165   2.318   0.318  -0.048  0.2356 -0.1894  0.0448
 1892TIP3   OH227166   1.388   0.428   6.486  0.1081 -0.0043  0.0587
 1892TIP3    H127167   1.477   0.458   6.503  0.4229 -0.9706  0.1997
 1892TIP3    H227168   1.369   0.454   6.396  0.2804  0.7966  0.2542
 1893TIP3   OH227169   6.626   5.695   0.573 -0.3959  0.0303  0.4445
 1893TIP3    H127170   6.715   5.667   0.595 -0.7596 -0.3123  1.5446
 1893TIP3    H227171   6.617   5.780   0.616  0.2076  1.2024 -1.6686
 1894TIP3   OH227172   1.697   1.290   2.242 -0.4275 -0.4820 -0.2900
 1894TIP3    H127173   1.612   1.275   2.282 -0.9230  0.0959 -1.1157
 1894TIP3    H227174   1.683   1.276   2.148  0.1099  0.7349 -0.5718
 1895TIP3   OH227175   4.474   3.443   1.973 -0.3363  0.3069 -0.0597
 1895TIP3    H127176   4.560   3.432   1.932 -0.2366  0.3344  0.1399
 1895TIP3    H227177   4.490   3.504   2.045 -0.4618  0.0654  0.1721
 1896TIP3   OH227178   6.408   0.388   3.587 -0.0861 -0.1955  0.0221
 1896TIP3    H127179   6.321   0.359   3.558  0.0620 -0.8629  0.2248
 1896TIP3    H227180   6.397   0.408   3.679  0.1069 -0.8634  0.1967
 1897TIP3   OH227181   2.651   6.588  12.895 -0.1526  0.5388  0.0860
 1897TIP3    H127182   2.711   6.530  12.942  0.4070  0.0338 -1.2183
 1897TIP3    H227183   2.610   6.532  12.829  0.2304  1.5729 -1.0462
 1898TIP3   OH227184   0.030   1.718  13.837  0.0276  0.2127 -0.1793
 1898TIP3    H127185   0.087   1.762  13.775  2.2254  3.0410  3.6069
 1898TIP3    H227186   0.090   1.672  13.897 -2.0503 -3.7518 -0.9240
 1899TIP3   OH227187   2.089   5.575  12.878  0.3442  1.0542  0.2962
 1899TIP3    H127188   2.138   5.590  12.797 -0.2312 -0.5112 -0.3707
 1899TIP3    H227189   2.014   5.635  12.872  0.9220  1.7711  0.2176
 1900TIP3   OH227190   4.918   1.567   0.106  0.3956  0.2640 -0.6665
 1900TIP3    H127191   5.009   1.538   0.110  0.3718  0.2700 -0.0688
 1900TIP3    H227192   4.923   1.662   0.120  0.2810  0.2463 -0.5168
 1901TIP3   OH227193   5.477   0.117   4.196  0.5131 -0.1450 -0.4793
 1901TIP3    H127194   5.498   0.028   4.225 -0.8999 -0.1005  0.7356
 1901TIP3    H227195   5.386   0.112   4.169  0.5781  0.8325 -0.8852
 1902TIP3   OH227196   6.807   2.948   4.377 -0.0401  0.6671  0.1329
 1902TIP3    H127197   6.893   2.952   4.334 -0.3519  0.3078 -0.5335
 1902TIP3    H227198   6.812   3.014   4.446  0.1723  1.8539 -1.0045
 1903TIP3   OH227199   5.318   3.545  11.280 -0.3462 -0.3284 -0.4257
 1903TIP3    H127200   5.365   3.538  11.197  0.1347 -0.6243 -0.1317
 1903TIP3    H227201   5.357   3.478  11.335 -2.8125 -2.2634 -0.9686
 1904TIP3   OH227202   4.228   2.780  14.174 -0.5415 -0.2793 -0.3410
 1904TIP3    H127203   4.169   2.855  14.184 -0.3622 -0.2229  0.3288
 1904TIP3    H227204   4.231   2.765  14.080 -1.5211 -0.1963 -0.3961
 1905TIP3   OH227205   2.340   0.737  15.681  0.0348  0.0543 -0.5251
 1905TIP3    H127206   2.331   0.642  15.693 -0.1632  0.0791 -0.4730
 1905TIP3    H227207   2.251   0.768  15.666 -0.2223  0.5620  1.8160
 1906TIP3   OH227208   4.648   6.303  15.042 -0.2758 -0.1286  0.0503
 1906TIP3    H127209   4.706   6.284  15.115  2.0460  2.1081 -1.1435
 1906TIP3    H227210   4.677   6.245  14.972  0.4236  0.8512 -0.4839
 1907TIP3   OH227211   1.560   3.871   3.768 -0.0586  0.0798 -0.3652
 1907TIP3    H127212   1.500   3.858   3.841 -0.0690  1.6081 -0.0867
 1907TIP3    H227213   1.504   3.902   3.697  0.2424  0.5228 -0.4106
 1908TIP3   OH227214   1.734   4.912  16.112 -0.3011  0.0302 -0.5681
 1908TIP3    H127215   1.817   4.865  16.118 -0.4924 -0.0633  1.6715
 1908TIP3    H227216   1.691   4.874  16.036  2.0292  0.6613 -2.2958
 1909TIP3   OH227217   1.797   5.049  12.933  0.1271  0.5872  0.0363
 1909TIP3    H127218   1.753   4.972  12.970  0.8683 -0.5234 -1.3757
 1909TIP3    H227219   1.886   5.046  12.969  0.2355  0.6499 -0.2256
 1910TIP3   OH227220   0.609   3.117  16.240 -0.6491  0.8762 -0.3379
 1910TIP3    H127221   0.543   3.051  16.218 -1.1660  1.1086  0.4999
 1910TIP3    H227222   0.655   3.080  16.316 -1.1586  1.6207  0.3420
 1911TIP3   OH227223   2.857   0.294   2.010 -0.4023  0.5947 -0.1125
 1911TIP3    H127224   2.877   0.385   2.031  0.5006  0.9285 -2.2223
 1911TIP3    H227225   2.817   0.298   1.923 -0.3600 -1.0055 -0.2295
 1912TIP3   OH227226   1.843   0.748  13.426 -0.1606  0.5177  0.2033
 1912TIP3    H127227   1.918   0.802  13.401  1.0476 -0.9704  0.5704
 1912TIP3    H227228   1.767   0.793  13.387  0.8136  2.4542  0.4801
 1913TIP3   OH227229   0.134   5.409  15.835  0.4023 -0.4654 -0.0625
 1913TIP3    H127230   0.195   5.452  15.894  1.2268  1.5457 -2.3342
 1913TIP3    H227231   0.121   5.471  15.763 -0.3649 -2.9535 -2.1473
 1914TIP3   OH227232   1.439   2.427   0.885  0.7073  0.4962  0.5146
 1914TIP3    H127233   1.422   2.347   0.834 -2.2847  1.5105 -0.1561
 1914TIP3    H227234   1.366   2.431   0.947  0.0021  3.4700 -0.4597
 1915TIP3   OH227235   6.786   0.649   5.085  0.5289  0.0131 -0.0036
 1915TIP3    H127236   6.870   0.604   5.071  1.0674  1.2811 -0.9194
 1915TIP3    H227237   6.741   0.642   5.001 -0.7067 -1.4753  0.7473
 1916TIP3   OH227238   0.248   6.122  11.869  0.1574  0.4452  0.5227
 1916TIP3    H127239   0.191   6.188  11.907  0.2264  1.3766 -0.9491
 1916TIP3    H227240   0.247   6.141  11.775 -1.0068 -2.5592 -0.1279
 1917TIP3   OH227241   5.417   1.475   4.428 -0.1132 -0.1245  0.1944
 1917TIP3    H127242   5.404   1.383   4.453 -0.7342 -0.4998 -1.5090
 1917TIP3    H227243   5.335   1.519   4.452  0.3805  0.1278  1.5194
 1918TIP3   OH227244   1.537   5.333   1.716  0.6568 -0.5927  0.3126
 1918TIP3    H127245   1.444   5.321   1.738  0.0801  0.9843 -1.1022
 1918TIP3    H227246   1.574   5.375   1.794 -0.0521 -0.3389  0.5256
 1919TIP3   OH227247   3.804   1.979   2.489  0.5001 -0.5258 -0.3889
 1919TIP3    H127248   3.763   1.940   2.411  0.3951 -0.2939 -0.4483
 1919TIP3    H227249   3.897   1.978   2.469  0.4108  0.3012 -0.8679
 1920TIP3   OH227250   1.025   2.417   4.548  0.1961  0.5118  0.2374
 1920TIP3    H127251   0.953   2.355   4.544 -0.8407  1.7137 -0.2480
 1920TIP3    H227252   1.080   2.397   4.472 -1.0030  1.2221 -0.8327
 1921TIP3   OH227253   0.460   5.521   1.467  0.2946 -0.0475 -0.1437
 1921TIP3    H127254   0.542   5.570   1.470  0.2873 -0.1328  2.0698
 1921TIP3    H227255   0.394   5.584   1.495  0.2081 -1.1456  2.1567
 1922TIP3   OH227256   3.683   5.211   6.004 -0.3229 -0.1247  0.1141
 1922TIP3    H127257   3.669   5.265   6.082  3.3374  0.4127  0.4977
 1922TIP3    H227258   3.698   5.123   6.039 -1.1169 -0.3643 -0.1538
 1923TIP3   OH227259   3.107   5.882   0.284 -0.2532 -0.2357 -0.4751
 1923TIP3    H127260   3.191   5.871   0.329  0.1154  1.0361 -0.8389
 1923TIP3    H227261   3.049   5.819   0.328  0.5801 -0.3201  0.5470
 1924TIP3   OH227262   0.832   6.341  14.893 -0.4250  0.0965 -0.4554
 1924TIP3    H127263   0.740   6.320  14.909  0.0075 -1.2751  0.4219
 1924TIP3    H227264   0.839   6.434  14.912 -1.2962 -0.1386  1.1839
 1925TIP3   OH227265   2.354   2.871  12.811 -0.6043 -0.2585  0.2619
 1925TIP3    H127266   2.406   2.878  12.731  1.4719  1.1808  1.6787
 1925TIP3    H227267   2.309   2.955  12.818 -0.8343 -0.4064  0.5498
 1926TIP3   OH227268   3.773   2.967  17.249  0.0521  0.6358 -0.4559
 1926TIP3    H127269   3.771   2.941  17.341  2.2619  0.6491 -0.3602
 1926TIP3    H227270   3.764   2.885  17.200 -0.8517  0.5981 -0.2184
 1927TIP3   OH227271   2.895   2.059  11.411 -0.0567  0.1492 -0.3441
 1927TIP3    H127272   2.910   1.978  11.362  0.2118 -0.5163  0.8403
 1927TIP3    H227273   2.838   2.034  11.483 -0.8952  1.2402 -0.5953
 1928TIP3   OH227274   5.130   2.875   4.694 -0.1391 -0.3443 -0.4471
 1928TIP3    H127275   5.096   2.954   4.737  0.5010  0.3379 -1.1826
 1928TIP3    H227276   5.073   2.864   4.618 -0.1119 -0.4880 -0.4458
 1929TIP3   OH227277   0.991   5.025   1.204 -0.0514  0.2971 -0.0935
 1929TIP3    H127278   0.910   5.072   1.187  0.0646  0.0569 -1.4392
 1929TIP3    H227279   1.010   5.040   1.296 -2.8005 -1.4879  0.7976
 1930TIP3   OH227280   6.814   2.737  17.179  0.0783 -0.0166  0.4077
 1930TIP3    H127281   6.737   2.767  17.228 -0.7083  0.0422 -0.8505
 1930TIP3    H227282   6.832   2.650  17.214  0.0781  0.3927  1.4475
 1931TIP3   OH227283   3.091   5.430   0.807 -0.1605  0.6165  0.2240
 1931TIP3    H127284   3.131   5.511   0.838  1.9172 -0.1740 -0.2891
 1931TIP3    H227285   3.078   5.444   0.713  0.9047  0.1184 -0.0158
 1932TIP3   OH227286   1.274   4.897   1.891 -0.1389 -0.4165  0.2023
 1932TIP3    H127287   1.293   4.935   1.976  3.0029 -0.2199 -0.5138
 1932TIP3    H227288   1.312   4.809   1.895 -0.8293 -0.7596 -0.6458
 1933TIP3   OH227289   3.723   3.533  16.154 -0.1930 -0.6426 -0.1239
 1933TIP3    H127290   3.629   3.550  16.160  0.0739  0.7615  0.4351
 1933TIP3    H227291   3.763   3.614  16.185  1.2186 -0.7278 -1.6872
 1934TIP3   OH227292   1.846   2.665   2.300 -0.1144  0.2135 -0.3400
 1934TIP3    H127293   1.807   2.744   2.338  0.9188  0.2102  0.7683
 1934TIP3    H227294   1.781   2.634   2.238 -0.6200  1.8408 -0.6655
 1935TIP3   OH227295   6.009   6.462   0.554  0.3916  0.0777  0.0966
 1935TIP3    H127296   6.043   6.374   0.566  1.0339  0.5124  1.5189
 1935TIP3    H227297   6.020   6.505   0.639  1.6076  2.0676 -1.0096
 1936TIP3   OH227298   2.750   0.655  15.471  0.6284 -0.5611  0.1445
 1936TIP3    H127299   2.712   0.593  15.533  0.4494 -0.0415  0.5592
 1936TIP3    H227300   2.838   0.622  15.454 -0.1826 -2.0796 -1.2447
 1937TIP3   OH227301   4.113   4.150  14.114 -0.5962  0.1156 -0.7188
 1937TIP3    H127302   4.149   4.231  14.079  0.7281 -0.1151  0.0777
 1937TIP3    H227303   4.074   4.106  14.038 -1.3699  1.5092 -1.1377
 1938TIP3   OH227304   2.581   2.510  13.891 -0.1441  0.1983 -0.4947
 1938TIP3    H127305   2.530   2.590  13.903  1.9288  1.5862 -0.6473
 1938TIP3    H227306   2.642   2.530  13.820  2.8382 -0.1943  1.8008
 1939TIP3   OH227307   0.397   5.574   0.735 -0.1578  0.0649 -0.5214
 1939TIP3    H127308   0.325   5.515   0.755 -0.0601  0.3007  0.5780
 1939TIP3    H227309   0.391   5.589   0.641  0.2921 -2.2954 -0.9474
 1940TIP3   OH227310   6.535   4.748   5.365 -0.1434  0.0646  0.3099
 1940TIP3    H127311   6.576   4.753   5.279 -0.4397  0.8416  0.2075
 1940TIP3    H227312   6.606   4.766   5.427  0.5569 -2.7523  0.3499
 1941TIP3   OH227313   5.589   2.660   5.082  0.0426 -0.5279  0.3643
 1941TIP3    H127314   5.532   2.663   5.005 -3.0269  1.7350  2.6355
 1941TIP3    H227315   5.558   2.585   5.132  0.0639 -0.2202  0.8409
 1942TIP3   OH227316   6.157   1.094  12.016  0.2004  0.0454  0.0061
 1942TIP3    H127317   6.177   1.181  12.050  0.1471  0.4728 -1.0621
 1942TIP3    H227318   6.131   1.108  11.925  0.7622 -1.1515 -0.3475
 1943TIP3   OH227319   2.109   5.889  15.868  0.5685  0.4404 -0.0403
 1943TIP3    H127320   2.191   5.937  15.853 -0.0837  0.7021 -3.2684
 1943TIP3    H227321   2.128   5.799  15.841  0.0102  0.3257 -0.0595
 1944TIP3   OH227322   1.680   5.044   0.137  0.0851 -0.3253  0.2162
 1944TIP3    H127323   1.714   5.037   0.048  1.5198  2.9907  0.4058
 1944TIP3    H227324   1.727   4.977   0.186  2.2753  0.4993 -0.7123
 1945TIP3   OH227325   1.655   5.410   2.615  0.1958  0.5574  0.1196
 1945TIP3    H127326   1.630   5.324   2.648 -0.4435  0.4228 -0.6911
 1945TIP3    H227327   1.686   5.394   2.526 -0.4099  1.2267 -0.2167
 1946TIP3   OH227328   0.004   0.075  16.172  0.2654  0.1978  0.9225
 1946TIP3    H127329  -0.032   0.062  16.084  2.2482 -1.0791  0.2790
 1946TIP3    H227330   0.000   0.170  16.186 -1.8823  0.2416  0.2701
 1947TIP3   OH227331   1.859   4.798  16.355  0.1943  0.5729 -0.1346
 1947TIP3    H127332   1.869   4.794  16.450 -0.7837  0.7116 -0.0274
 1947TIP3    H227333   1.853   4.891  16.335 -2.9669  0.4475  0.0220
 1948TIP3   OH227334   5.364   4.750   4.203 -0.0412 -0.0828  0.0911
 1948TIP3    H127335   5.444   4.801   4.190  1.3088 -1.8760  1.1562
 1948TIP3    H227336   5.366   4.684   4.134 -0.5938 -0.1448  0.1334
 1949TIP3   OH227337   2.655   5.205  15.712  0.1644 -0.4415  0.0334
 1949TIP3    H127338   2.678   5.224  15.621  0.4559 -1.8045 -0.1838
 1949TIP3    H227339   2.569   5.164  15.708 -0.8292  1.5145  0.5729
 1950TIP3   OH227340   5.194   6.577   3.808  0.8129  0.4531  0.3915
 1950TIP3    H127341   5.181   6.516   3.735  2.1452 -2.2492  2.3430
 1950TIP3    H227342   5.125   6.556   3.870  0.8294  1.4579  0.7614
 1951TIP3   OH227343   5.925   3.432   5.992  0.6856 -0.2277 -0.5769
 1951TIP3    H127344   6.018   3.411   6.003  0.7282  0.2653  0.1358
 1951TIP3    H227345   5.893   3.441   6.082 -0.7777 -3.3820 -0.7478
 1952TIP3   OH227346   3.501   0.487  15.476  0.1497  0.3103  0.3140
 1952TIP3    H127347   3.534   0.536  15.551  1.8211 -0.8485  0.3727
 1952TIP3    H227348   3.498   0.396  15.506  0.7617 -0.1527 -0.9812
 1953TIP3   OH227349   0.858   3.730  15.887 -0.4572 -0.4013  0.1345
 1953TIP3    H127350   0.949   3.704  15.901  0.2103  1.3369 -0.7826
 1953TIP3    H227351   0.848   3.735  15.792 -1.0352  0.9331  0.2477
 1954TIP3   OH227352   3.860   0.897   5.589 -0.2850 -0.2009 -0.3739
 1954TIP3    H127353   3.867   0.985   5.554  2.9616  0.0591  0.7727
 1954TIP3    H227354   3.772   0.892   5.626  0.0054  3.0281  0.8269
 1955TIP3   OH227355   6.492   3.594   1.583 -0.1811 -0.3106 -0.7966
 1955TIP3    H127356   6.509   3.568   1.674 -0.0112  0.5179 -0.5846
 1955TIP3    H227357   6.397   3.598   1.576 -0.1720  0.7112 -0.3403
 1956TIP3   OH227358   6.743   0.954  15.937 -0.8959  0.6071  0.1487
 1956TIP3    H127359   6.714   1.041  15.910 -2.2258  0.7483  1.9625
 1956TIP3    H227360   6.671   0.920  15.990  0.9797 -0.2871  2.1757
 1957TIP3   OH227361   1.615   3.460   3.722  0.0643  0.1613  0.2406
 1957TIP3    H127362   1.523   3.441   3.702 -0.7984  2.1930  2.0790
 1957TIP3    H227363   1.648   3.380   3.762 -1.0502 -0.4137  0.0225
 1958TIP3   OH227364   4.980   3.805   1.750 -0.4084 -0.6233  0.0923
 1958TIP3    H127365   4.893   3.783   1.718 -0.5880 -0.9549  0.8050
 1958TIP3    H227366   4.970   3.815   1.844  0.3317 -0.7053  0.1867
 1959TIP3   OH227367   5.211   2.264   5.344  0.4381  0.3265  0.5208
 1959TIP3    H127368   5.251   2.212   5.273 -1.6694 -0.6339 -0.0119
 1959TIP3    H227369   5.178   2.198   5.405 -1.1580  1.0579  0.4618
 1960TIP3   OH227370   0.318   4.938   1.212 -0.1046  0.8761 -0.0887
 1960TIP3    H127371   0.292   5.028   1.197  0.5880  1.0821 -0.0537
 1960TIP3    H227372   0.400   4.944   1.260  0.4500  0.2323 -0.9428
 1961TIP3   OH227373   0.200   6.094   1.881  0.0033  0.0985  0.1590
 1961TIP3    H127374   0.280   6.042   1.880  1.1659  1.8344 -1.4430
 1961TIP3    H227375   0.134   6.039   1.840  0.3255 -1.3973  1.6135
 1962TIP3   OH227376   0.146   6.173  10.844 -0.1060  0.2132 -0.3048
 1962TIP3    H127377   0.190   6.256  10.861  1.8126 -0.8181 -0.0999
 1962TIP3    H227378   0.119   6.178  10.752 -0.0900  1.0875 -0.2632
 1963TIP3   OH227379   6.017   4.012   1.525  0.0864  0.5471 -0.1578
 1963TIP3    H127380   6.074   3.949   1.482 -0.0108  0.1912  0.2360
 1963TIP3    H227381   6.062   4.096   1.514 -0.4609  0.6275 -1.8886
 1964TIP3   OH227382   4.840   3.417  13.133  0.8389 -0.1120 -0.1068
 1964TIP3    H127383   4.784   3.494  13.140  2.0071  0.7441 -0.0901
 1964TIP3    H227384   4.874   3.420  13.043  0.9308 -0.5749 -0.0910
 1965TIP3   OH227385   0.848   3.021   5.324  0.0001 -0.3140 -0.2031
 1965TIP3    H127386   0.797   2.991   5.400  0.8720 -0.5945  0.2778
 1965TIP3    H227387   0.859   3.115   5.338 -1.1581 -0.0854 -0.7732
 1966TIP3   OH227388   2.569   4.215   1.292 -0.6122 -0.5431 -0.3908
 1966TIP3    H127389   2.485   4.234   1.335 -0.3889 -1.2445  0.3887
 1966TIP3    H227390   2.562   4.122   1.268 -0.4738 -0.3233 -1.2947
 1967TIP3   OH227391   1.986   0.095  16.687  0.2097  0.2735  0.6340
 1967TIP3    H127392   1.919   0.052  16.741  0.4976 -0.5518  0.3435
 1967TIP3    H227393   2.023   0.025  16.635 -0.8072  1.2511 -1.4476
 1968TIP3   OH227394   3.276   6.223   3.875  0.2159 -0.4140 -0.3853
 1968TIP3    H127395   3.331   6.171   3.933 -0.8677 -2.3566 -1.0305
 1968TIP3    H227396   3.262   6.166   3.799 -2.1558  0.2649 -0.4844
 1969TIP3   OH227397   4.909   3.031  13.186 -0.0977  0.3919  0.2832
 1969TIP3    H127398   4.991   2.990  13.217  0.2872  2.8185  2.6799
 1969TIP3    H227399   4.938   3.097  13.123 -0.4703 -0.7732 -1.1283
 1970TIP3   OH227400   5.542   3.699   0.428 -0.1477 -0.0512  0.0754
 1970TIP3    H127401   5.471   3.761   0.447  0.1600  0.2881  0.1069
 1970TIP3    H227402   5.616   3.730   0.480  0.0300 -0.4015  0.0335
 1971TIP3   OH227403   5.410   3.695   1.667 -0.0755  0.3063 -0.0081
 1971TIP3    H127404   5.359   3.767   1.630 -2.7070 -0.5754  1.7383
 1971TIP3    H227405   5.476   3.737   1.722  1.8802  1.5009 -3.1529
 1972TIP3   OH227406   5.093   2.350  16.722  0.3610 -0.2649 -0.2629
 1972TIP3    H127407   5.126   2.380  16.807 -0.8380 -0.0307  0.1313
 1972TIP3    H227408   5.160   2.288  16.691  0.7951 -0.3839  0.8678
 1973TIP3   OH227409   4.706   1.379  11.133 -0.0586  0.2536  0.8164
 1973TIP3    H127410   4.704   1.465  11.091 -0.2991 -1.0024 -1.8042
 1973TIP3    H227411   4.722   1.318  11.062 -1.9765 -2.0965  2.3501
 1974TIP3   OH227412   4.336   4.462  17.023 -0.0331  0.2550  0.8439
 1974TIP3    H127413   4.329   4.555  17.002  0.2826  0.6203  2.3008
 1974TIP3    H227414   4.419   4.455  17.071  0.7109 -1.0321 -0.6158
 1975TIP3   OH227415   2.860   3.873   3.872 -0.0953  0.4852 -0.0958
 1975TIP3    H127416   2.853   3.937   3.943 -1.0718  1.1229 -0.7587
 1975TIP3    H227417   2.770   3.858   3.844  0.2553 -0.0287 -0.9720
 1976TIP3   OH227418   6.322   1.635   5.761  0.1461  0.2506 -0.9417
 1976TIP3    H127419   6.265   1.558   5.756  1.7064 -0.9633 -0.4311
 1976TIP3    H227420   6.278   1.693   5.823  0.4811 -1.5663  1.0387
 1977TIP3   OH227421   0.653   6.103   5.091  0.5874 -0.4313 -0.4023
 1977TIP3    H127422   0.591   6.155   5.039 -0.5826 -0.8037  0.6034
 1977TIP3    H227423   0.627   6.119   5.182  2.0017 -0.5586  0.0307
 1978TIP3   OH227424   1.060   1.291   2.870  0.2897  0.0576  0.4714
 1978TIP3    H127425   1.047   1.243   2.952 -0.0299 -2.8813 -1.2489
 1978TIP3    H227426   1.149   1.270   2.843  0.3420  0.9018 -0.0220
 1979TIP3   OH227427   0.585   5.139  11.322 -0.3171  0.3468  0.0331
 1979TIP3    H127428   0.521   5.156  11.391 -0.1990  2.0728 -0.2658
 1979TIP3    H227429   0.535   5.145  11.241 -0.2353 -0.5877 -0.0886
 1980TIP3   OH227430   6.282   3.102  17.111  0.1528  0.0173  0.1974
 1980TIP3    H127431   6.291   3.187  17.068  1.5261  0.0998  0.6517
 1980TIP3    H227432   6.248   3.123  17.198 -0.4307  0.0141 -0.0226
 1981TIP3   OH227433   1.844   6.215   4.443  0.2487 -0.5764  0.3780
 1981TIP3    H127434   1.936   6.198   4.463  0.3013 -1.4286 -0.5536
 1981TIP3    H227435   1.825   6.157   4.369 -1.1456 -0.6986  0.8305
 1982TIP3   OH227436   0.148   0.346  13.953 -0.0271  0.3968  0.3818
 1982TIP3    H127437   0.149   0.258  13.915  0.5298  0.6625 -0.2132
 1982TIP3    H227438   0.068   0.386  13.919 -0.7624 -0.1975  1.3815
 1983TIP3   OH227439   3.960   4.718  16.571  0.4930  0.0668 -0.3608
 1983TIP3    H127440   3.916   4.701  16.488 -0.3390 -0.1235  0.1146
 1983TIP3    H227441   3.991   4.809  16.564 -1.7292  0.8796  0.0754
 1984TIP3   OH227442   4.974   2.993   5.316 -0.2973  0.6825 -0.1708
 1984TIP3    H127443   5.027   3.069   5.342  0.6101 -0.5431  1.7468
 1984TIP3    H227444   5.022   2.955   5.243  0.3585  0.7920  0.1912
 1985TIP3   OH227445   4.145   4.520  14.604  0.4283 -0.1373  0.2340
 1985TIP3    H127446   4.103   4.457  14.545  2.4713 -1.2183 -0.1297
 1985TIP3    H227447   4.228   4.539  14.561 -0.1840  2.8655  0.3342
 1986TIP3   OH227448   4.159   5.057   1.158  0.8697  0.1769 -0.1627
 1986TIP3    H127449   4.070   5.024   1.173  1.3413 -1.5231 -0.9453
 1986TIP3    H227450   4.213   5.011   1.223  1.3335  0.4206 -0.3723
 1987TIP3   OH227451   4.207   3.294  13.985  0.0421 -0.2260  0.6495
 1987TIP3    H127452   4.251   3.335  13.911  1.4080 -2.1590  0.3362
 1987TIP3    H227453   4.258   3.322  14.062  1.5137 -1.9742  0.3483
 1988TIP3   OH227454   5.524   5.592  13.628 -0.0843 -0.0170 -0.0883
 1988TIP3    H127455   5.524   5.651  13.704  1.4935  1.6332 -1.2995
 1988TIP3    H227456   5.581   5.520  13.653  0.5328  0.5891  0.2618
 1989TIP3   OH227457   1.384   3.303  13.778 -0.0712  0.2291  0.3243
 1989TIP3    H127458   1.336   3.220  13.778 -0.6850  0.5870  0.4603
 1989TIP3    H227459   1.320   3.369  13.804  0.9424  0.4304  2.4415
 1990TIP3   OH227460   6.544   2.699   1.987  0.0733 -0.4878 -0.4479
 1990TIP3    H127461   6.511   2.763   1.924 -1.8424 -0.5116  0.5084
 1990TIP3    H227462   6.466   2.660   2.024  1.2039 -1.1810  1.2286
 1991TIP3   OH227463   5.651   3.204   4.595  0.0067 -0.2033 -0.3309
 1991TIP3    H127464   5.645   3.114   4.561  1.5851 -0.5967  0.3612
 1991TIP3    H227465   5.612   3.199   4.682 -0.5936 -0.0402 -0.5867
 1992TIP3   OH227466   3.723   4.079  13.060 -0.0701  0.3691  0.0544
 1992TIP3    H127467   3.685   4.032  13.134  0.7839 -0.6732 -0.1510
 1992TIP3    H227468   3.661   4.149  13.041 -0.9301 -0.1419  0.9328
 1993TIP3   OH227469   6.473   3.692   3.112  0.6337 -0.7128  0.7869
 1993TIP3    H127470   6.420   3.634   3.057  0.3995  1.9403 -1.9464
 1993TIP3    H227471   6.417   3.712   3.187 -1.7550  0.8433 -1.3078
 1994TIP3   OH227472   5.078   6.550   2.561  0.2440 -0.3029  0.1411
 1994TIP3    H127473   5.132   6.484   2.519  1.2794  0.4099  0.3421
 1994TIP3    H227474   5.019   6.580   2.492  0.3454 -0.8200 -0.1733
 1995TIP3   OH227475   0.634   3.976  15.441 -0.9613 -0.7386  0.5414
 1995TIP3    H127476   0.727   3.998  15.446 -1.0738  0.0081 -0.4631
 1995TIP3    H227477   0.606   3.970  15.532 -0.4177  1.2120  0.8608
 1996TIP3   OH227478   0.075   3.204  15.148  0.0230 -0.2538  0.7879
 1996TIP3    H127479   0.150   3.145  15.143  0.7207  0.6637  0.2846
 1996TIP3    H227480   0.097   3.276  15.089 -1.5255 -0.2778  0.1741
 1997TIP3   OH227481   5.419   1.523  11.543 -0.5426 -0.0864 -0.1292
 1997TIP3    H127482   5.463   1.590  11.596  0.2344 -1.4253  0.9529
 1997TIP3    H227483   5.406   1.565  11.458 -1.5082  1.9993  1.0010
 1998TIP3   OH227484   5.325   3.782  11.427 -0.8265  0.6551  0.1023
 1998TIP3    H127485   5.342   3.707  11.370 -1.8315  1.9998 -2.0458
 1998TIP3    H227486   5.230   3.793  11.425 -0.9664  0.2428  2.7326
 1999TIP3   OH227487   5.462   2.882  14.601  0.2110 -0.2780  0.7668
 1999TIP3    H127488   5.386   2.826  14.585 -0.4646  0.5267  1.1301
 1999TIP3    H227489   5.490   2.859  14.690  1.7490 -2.1474 -0.1686
 2000TIP3   OH227490   1.732   2.091   1.570 -0.1569  0.4158 -0.3619
 2000TIP3    H127491   1.718   2.107   1.664  1.0873 -1.8694  0.2236
 2000TIP3    H227492   1.798   2.155   1.545  0.0503  0.5491  0.4905
 2001TIP3   OH227493   6.064   2.124   2.247 -0.6705  0.3502  0.0637
 2001TIP3    H127494   6.033   2.111   2.336 -3.2912 -0.6941 -0.9425
 2001TIP3    H227495   6.096   2.037   2.220 -3.9539 -0.4735 -1.4415
 2002TIP3   OH227496   5.656   5.209  15.372 -0.1873 -0.1193  0.3903
 2002TIP3    H127497   5.717   5.196  15.444  1.1282  1.2158 -0.4631
 2002TIP3    H227498   5.618   5.122  15.356  0.7387 -0.7491  1.5766
 2003TIP3   OH227499   5.422   6.749  16.414  0.5899  0.2305  0.4048
 2003TIP3    H127500   5.430   6.669  16.363 -0.3731  0.2355  0.2350
 2003TIP3    H227501   5.361   6.727  16.485 -2.8783  1.8745 -1.9084
 2004TIP3   OH227502   5.457   2.115   2.899  0.0757  0.4673 -0.4495
 2004TIP3    H127503   5.408   2.167   2.962  1.5456  1.7951 -0.3840
 2004TIP3    H227504   5.429   2.149   2.814  2.1542  2.4545 -0.3822
 2005TIP3   OH227505   6.441   1.955   3.074 -0.4621 -0.2682  0.1910
 2005TIP3    H127506   6.386   1.888   3.115  0.7472 -0.0594  2.2127
 2005TIP3    H227507   6.431   2.032   3.131 -1.8117  1.2999 -2.0802
 2006TIP3   OH227508   5.665   0.787  13.107 -0.2195  0.2109 -0.2860
 2006TIP3    H127509   5.625   0.867  13.073 -0.8243  0.5503  1.2074
 2006TIP3    H227510   5.691   0.738  13.028 -1.0966  1.2284 -1.2215
 2007TIP3   OH227511   5.166   3.380  17.240 -0.2915 -0.0280  0.3219
 2007TIP3    H127512   5.261   3.389  17.228 -0.3882 -0.2381 -0.5919
 2007TIP3    H227513   5.154   3.288  17.265 -0.3807 -0.3144 -0.7760
 2008TIP3   OH227514   5.888   2.964   5.426 -0.1561 -0.0634 -0.6250
 2008TIP3    H127515   5.874   2.874   5.455 -0.8985  0.2438 -0.0138
 2008TIP3    H227516   5.904   2.957   5.332  0.3115 -0.8816 -0.4832
 2009TIP3   OH227517   3.223   6.148   6.489  0.3611 -0.4870  0.2987
 2009TIP3    H127518   3.199   6.114   6.575  0.9369 -1.5591  0.0331
 2009TIP3    H227519   3.164   6.104   6.428 -1.3976  1.7198  0.3196
 2010TIP3   OH227520   6.625   3.488   3.331 -0.5159  0.3184 -0.1889
 2010TIP3    H127521   6.529   3.489   3.334 -0.5449  1.4748 -1.1304
 2010TIP3    H227522   6.646   3.503   3.239  0.5743  1.2872  0.2038
 2011TIP3   OH227523   4.409   5.247   3.311  0.2010 -0.7701  0.0314
 2011TIP3    H127524   4.324   5.251   3.267 -0.8758  0.4449  2.1594
 2011TIP3    H227525   4.394   5.287   3.396  3.3094  0.9036 -0.1512
 2012TIP3   OH227526   3.269   3.582   1.805 -0.0717 -0.9630  0.1259
 2012TIP3    H127527   3.320   3.590   1.724 -1.2579  0.6834 -0.4926
 2012TIP3    H227528   3.241   3.490   1.806  0.0882 -1.0474 -1.2677
 2013TIP3   OH227529   4.298   3.452  12.504  0.3241 -0.3320 -0.1646
 2013TIP3    H127530   4.340   3.396  12.570 -0.7572 -0.1519  0.6863
 2013TIP3    H227531   4.360   3.524  12.491  0.9224 -0.8053  0.0374
 2014TIP3   OH227532   0.366   1.538   4.858 -0.1953  0.8511 -0.4712
 2014TIP3    H127533   0.295   1.600   4.877 -0.0349  0.8837  0.0237
 2014TIP3    H227534   0.446   1.588   4.874 -0.0640  0.6072 -0.3643
 2015TIP3   OH227535   4.447   5.892   1.696 -0.3795  0.5856  0.3844
 2015TIP3    H127536   4.453   5.801   1.666 -0.3937  1.0224 -0.9320
 2015TIP3    H227537   4.504   5.941   1.638 -0.9836  1.5574  0.5929
 2016TIP3   OH227538   3.494   6.095   1.273  0.5828  0.1856 -0.3526
 2016TIP3    H127539   3.507   6.029   1.205 -0.5491 -0.8808  0.4284
 2016TIP3    H227540   3.553   6.067   1.344  0.3088  0.1658 -0.1310
 2017TIP3   OH227541   3.359   4.342   5.176  0.5695  0.3373 -0.0070
 2017TIP3    H127542   3.380   4.277   5.109  0.8473  0.9533 -0.5275
 2017TIP3    H227543   3.268   4.324   5.200  1.2832 -1.5850  1.3932
 2018TIP3   OH227544   4.755   1.663   5.213 -0.1146  0.2869  0.3875
 2018TIP3    H127545   4.736   1.629   5.126 -0.7218 -0.6847  0.9048
 2018TIP3    H227546   4.724   1.754   5.210  0.5794  0.5110 -0.6479
 2019TIP3   OH227547   4.976   0.828  12.496 -0.5566 -0.3200  0.5212
 2019TIP3    H127548   4.958   0.753  12.552 -1.2315  1.0241  2.1495
 2019TIP3    H227549   5.062   0.860  12.523 -0.3605 -0.3667 -0.0247
 2020TIP3   OH227550   6.392   5.520  13.373 -0.1699  0.2691 -0.3907
 2020TIP3    H127551   6.398   5.607  13.413 -2.5925  0.3579 -0.1636
 2020TIP3    H227552   6.458   5.468  13.419 -1.1557  1.0591  1.9871
 2021TIP3   OH227553   0.937   1.113   2.731 -0.0509  0.0428 -0.1787
 2021TIP3    H127554   0.936   1.144   2.641  1.1453  0.7431  0.0384
 2021TIP3    H227555   0.982   1.183   2.780  0.7619 -1.0693  0.6751
 2022TIP3   OH227556   3.341   1.383   1.452  0.0028  0.1012 -0.3706
 2022TIP3    H127557   3.295   1.364   1.370  0.2234  0.7673 -0.6507
 2022TIP3    H227558   3.277   1.430   1.504  0.0824  0.2655 -0.4215
 2023TIP3   OH227559   5.957   3.359  13.013  0.2563 -0.3845  0.3205
 2023TIP3    H127560   5.879   3.402  12.978 -0.8262 -1.5794  1.1891
 2023TIP3    H227561   5.957   3.273  12.970  0.8226 -0.5676  0.6959
 2024TIP3   OH227562   5.505   6.446   3.481 -0.2404 -0.1191  0.1391
 2024TIP3    H127563   5.473   6.532   3.454 -0.9278 -0.3345  0.2511
 2024TIP3    H227564   5.590   6.463   3.520 -1.4271  0.8058  2.3748
 2025TIP3   OH227565   6.523   0.054  11.071  0.3549  0.1104 -0.5754
 2025TIP3    H127566   6.433   0.067  11.041  0.1096 -0.4532 -0.1126
 2025TIP3    H227567   6.544   0.133  11.119 -0.3960 -0.3253  0.5005
 2026TIP3   OH227568   4.076   0.647  16.394  0.3421  0.0739  0.1315
 2026TIP3    H127569   4.013   0.693  16.449  1.1017 -0.0648  1.1167
 2026TIP3    H227570   4.024   0.617  16.319 -0.8442 -0.3865  1.1335
 2027TIP3   OH227571   6.079   1.794  16.475 -0.3763  0.2709 -0.0047
 2027TIP3    H127572   6.145   1.837  16.530 -1.7049  2.1133  0.1947
 2027TIP3    H227573   6.025   1.745  16.537 -0.0567 -0.0963 -0.0156
 2028TIP3   OH227574   0.371   3.093   0.190 -0.2547 -0.1375 -0.3682
 2028TIP3    H127575   0.297   3.149   0.171 -0.6005  0.1440  1.7159
 2028TIP3    H227576   0.343   3.006   0.161 -1.5590 -0.1094  0.7753
 2029TIP3   OH227577   2.011   0.096  16.148 -0.2517  0.0718  0.3721
 2029TIP3    H127578   1.999   0.008  16.114  0.1165 -0.2775  1.1303
 2029TIP3    H227579   1.938   0.109  16.209 -0.5793  0.4751 -0.0979
 2030TIP3   OH227580   4.147   1.841   4.382 -0.0603 -0.1602  0.1555
 2030TIP3    H127581   4.213   1.839   4.313  2.2476 -0.3763  2.2862
 2030TIP3    H227582   4.129   1.934   4.396  1.4597  0.0028  1.0789
 2031TIP3   OH227583   2.795   1.978  17.153 -0.4001  0.1424 -0.3812
 2031TIP3    H127584   2.772   1.899  17.203  2.7000 -0.2131  0.5727
 2031TIP3    H227585   2.836   2.036  17.217 -0.2225  1.4338 -1.6388
 2032TIP3   OH227586   5.455   2.885   3.787 -0.0922  0.0985 -0.0839
 2032TIP3    H127587   5.397   2.893   3.863 -0.9940 -0.5089 -0.6969
 2032TIP3    H227588   5.501   2.968   3.783 -2.2174  1.2802 -0.6319
 2033TIP3   OH227589   6.116   3.567   6.608 -0.6522 -0.5685  0.4102
 2033TIP3    H127590   6.143   3.659   6.612 -2.6992  0.0013  2.2870
 2033TIP3    H227591   6.196   3.517   6.624  0.6107  0.8324 -1.2536
 2034TIP3   OH227592   0.181   2.008   7.100 -0.3841 -0.1542  0.0360
 2034TIP3    H127593   0.265   2.031   7.059 -0.5267 -1.3991 -0.9885
 2034TIP3    H227594   0.165   1.918   7.072 -3.3518  0.9305 -1.9701
 2035TIP3   OH227595   1.155   1.986   6.160  0.0946 -0.4318 -0.1616
 2035TIP3    H127596   1.157   2.081   6.176  0.8650 -0.3155 -0.9043
 2035TIP3    H227597   1.241   1.955   6.187  0.6387 -0.5653 -2.0086
 2036TIP3   OH227598   6.796   0.688   3.975 -0.2331  0.2726 -0.0106
 2036TIP3    H127599   6.701   0.687   3.960  0.0215 -1.4697 -1.6821
 2036TIP3    H227600   6.809   0.626   4.047 -0.1311 -1.4007 -1.4436
 2037TIP3   OH227601   3.940   6.614   2.614  0.2249 -0.2874  0.1621
 2037TIP3    H127602   3.890   6.544   2.573 -0.2646 -0.2911  0.7703
 2037TIP3    H227603   4.016   6.625   2.556 -0.6296 -0.0561 -0.9332
 2038TIP3   OH227604   0.818   2.101  13.185  0.3255 -0.2271 -0.1686
 2038TIP3    H127605   0.756   2.093  13.257  0.9730  0.7694  0.5042
 2038TIP3    H227606   0.763   2.116  13.108 -0.2599  0.6743  0.4252
 2039TIP3   OH227607   0.458   0.302   2.581 -0.0522  0.1046 -0.1694
 2039TIP3    H127608   0.552   0.323   2.578 -0.1856  0.5253 -2.5569
 2039TIP3    H227609   0.452   0.216   2.540 -0.9069  0.8629 -1.6628
 2040TIP3   OH227610   4.461   0.771   1.694 -0.1520  0.1228 -0.1525
 2040TIP3    H127611   4.473   0.795   1.603  0.4742 -1.7163 -0.5838
 2040TIP3    H227612   4.545   0.732   1.720 -0.6199 -0.1789  0.9434
 2041TIP3   OH227613   2.591   2.173  10.586  0.3286  0.2000 -0.3355
 2041TIP3    H127614   2.586   2.175  10.682  0.5079 -1.0036 -0.2858
 2041TIP3    H227615   2.646   2.247  10.563  1.8749 -0.6280  0.6285
 2042TIP3   OH227616   1.404   2.021   5.179  0.4537 -0.0647  0.1293
 2042TIP3    H127617   1.476   2.031   5.117 -1.2062 -1.1013 -2.0624
 2042TIP3    H227618   1.377   1.929   5.169 -1.2995  0.3736  0.6994
 2043TIP3   OH227619   5.134   4.653  12.641 -0.4025 -0.3153 -0.3674
 2043TIP3    H127620   5.060   4.708  12.669 -1.1729 -0.2956 -2.3653
 2043TIP3    H227621   5.094   4.573  12.610  0.4334 -0.3404 -1.3823
 2044TIP3   OH227622   3.245   4.857  13.062  0.3252 -0.5189  0.0081
 2044TIP3    H127623   3.237   4.952  13.071 -1.1742 -0.5957 -0.4317
 2044TIP3    H227624   3.235   4.824  13.152  2.6527 -0.1702  0.4351
 2045TIP3   OH227625   3.674   5.929   0.440 -0.4329  0.4103  0.0924
 2045TIP3    H127626   3.643   6.013   0.472  0.0905  0.5304  0.2919
 2045TIP3    H227627   3.734   5.898   0.508 -0.2722  0.0923 -0.1910
 2046TIP3   OH227628   2.738   1.819  14.477 -0.5391  1.3884  0.0240
 2046TIP3    H127629   2.833   1.820  14.465 -0.3983 -0.2283  0.8486
 2046TIP3    H227630   2.704   1.872  14.405  0.9653  1.6746 -0.4944
 2047TIP3   OH227631   0.109   5.396  15.286 -0.0764 -0.1199  0.4032
 2047TIP3    H127632   0.158   5.314  15.275  1.3041  0.7255  0.1089
 2047TIP3    H227633   0.070   5.412  15.201  0.9840  0.3619  0.0052
 2048TIP3   OH227634   1.289   1.522  13.218 -0.1070  0.3304  0.1883
 2048TIP3    H127635   1.317   1.610  13.195 -0.4778  0.4768  0.3016
 2048TIP3    H227636   1.211   1.534  13.273  0.0557 -0.0525  0.5113
 2049TIP3   OH227637   4.827   2.678  14.741 -0.6712  0.4181 -0.0712
 2049TIP3    H127638   4.834   2.584  14.722  0.6162  0.5323 -0.2349
 2049TIP3    H227639   4.762   2.710  14.679 -0.5151 -0.2258 -0.5791
 2050TIP3   OH227640   5.114   1.745  10.903  0.0281  0.5401  0.1365
 2050TIP3    H127641   5.100   1.835  10.930 -1.0345  0.0809  1.1331
 2050TIP3    H227642   5.203   1.744  10.868 -0.6132  2.3640 -1.5849
 2051TIP3   OH227643   4.056   3.272  12.794 -0.1553  0.2630  0.4095
 2051TIP3    H127644   4.020   3.185  12.775 -1.2302  0.6833  0.4671
 2051TIP3    H227645   4.043   3.321  12.713 -0.1210  0.5481  0.5745
 2052TIP3   OH227646   5.116   3.851   5.656  0.3327 -0.7040  0.3588
 2052TIP3    H127647   5.154   3.939   5.653 -2.4818  0.5065 -0.7653
 2052TIP3    H227648   5.129   3.816   5.568 -1.0913 -0.2764 -0.0386
 2053TIP3   OH227649   2.756   0.693  13.261 -0.5626 -0.6191  0.1486
 2053TIP3    H127650   2.792   0.735  13.183  2.4084 -2.6544  0.3555
 2053TIP3    H227651   2.716   0.613  13.227 -0.7725 -0.6687  0.5178
 2054TIP3   OH227652   3.849   0.306  15.392  0.0086  0.4276 -0.3661
 2054TIP3    H127653   3.936   0.344  15.402 -0.5079  2.0049 -1.5170
 2054TIP3    H227654   3.826   0.322  15.300 -1.1869 -0.6126 -0.2638
 2055TIP3   OH227655   0.643   5.736  12.761  0.4822 -0.1476 -0.0960
 2055TIP3    H127656   0.554   5.729  12.726  0.1306 -1.5135  1.0377
 2055TIP3    H227657   0.631   5.750  12.855  1.4556 -2.8656  0.4793
 2056TIP3   OH227658   6.705   4.619   2.801 -0.3704 -0.4358 -0.1378
 2056TIP3    H127659   6.747   4.705   2.812  1.9603 -1.7619  2.0176
 2056TIP3    H227660   6.653   4.608   2.880  0.6352 -1.6719  0.3629
 2057TIP3   OH227661   4.840   4.319   5.256 -0.0035 -0.5593 -0.2263
 2057TIP3    H127662   4.757   4.325   5.208 -0.3231  0.2122  0.4069
 2057TIP3    H227663   4.831   4.240   5.310 -0.3825 -0.4157 -0.0742
 2058TIP3   OH227664   1.555   6.743   1.805  0.2301 -0.3886 -0.0628
 2058TIP3    H127665   1.567   6.662   1.855  0.9826  0.0898  0.5383
 2058TIP3    H227666   1.599   6.727   1.722 -1.0953 -1.2179 -0.6176
 2059TIP3   OH227667   4.976   3.577   1.989  0.3212  0.3985 -1.1512
 2059TIP3    H127668   4.887   3.572   1.953  0.3574  1.1552 -1.3559
 2059TIP3    H227669   5.029   3.608   1.916  0.9530 -1.0605 -1.3353
 2060TIP3   OH227670   5.510   1.995  11.678 -0.7399 -0.0519 -0.3155
 2060TIP3    H127671   5.544   2.079  11.650 -2.5187  0.6238 -0.5556
 2060TIP3    H227672   5.480   2.010  11.768  0.6823 -0.9524  0.3210
 2061TIP3   OH227673   4.450   6.470   3.904 -0.2280 -0.0183  0.0487
 2061TIP3    H127674   4.402   6.548   3.877 -1.0094 -1.1657 -2.0440
 2061TIP3    H227675   4.444   6.411   3.828  0.0951 -2.2044  1.6747
 2062TIP3   OH227676   2.011   5.026  16.333  0.2607  0.1344  0.0326
 2062TIP3    H127677   1.947   5.092  16.305 -0.6573 -0.5575  0.4788
 2062TIP3    H227678   2.072   5.020  16.260 -1.1837 -0.4707 -1.1645
 2063TIP3   OH227679   4.921   3.128   3.093 -0.3258 -0.0909  0.3384
 2063TIP3    H127680   4.970   3.138   3.174  3.2326  0.1464 -1.7205
 2063TIP3    H227681   4.923   3.034   3.075  2.1020  0.2399 -1.2976
 2064TIP3   OH227682   6.242   0.021   2.332  0.1925  0.1018 -0.1944
 2064TIP3    H127683   6.209  -0.040   2.397 -0.2960 -1.2524 -1.7087
 2064TIP3    H227684   6.198  -0.002   2.251  1.8253  0.8769 -1.3405
 2065TIP3   OH227685   6.671   2.956  13.598 -0.0615  0.0211  0.4310
 2065TIP3    H127686   6.730   3.000  13.660  2.3031 -2.2102 -0.1953
 2065TIP3    H227687   6.728   2.902  13.544 -2.6896 -2.2775 -0.1515
 2066TIP3   OH227688   1.071   5.590   2.561 -0.1795  0.7823 -0.4166
 2066TIP3    H127689   1.039   5.507   2.594  0.7492  0.3822 -0.5215
 2066TIP3    H227690   1.161   5.596   2.593 -0.5238  2.1526  0.3399
 2067TIP3   OH227691   4.458   2.331   1.341 -0.6688  0.2295 -0.0235
 2067TIP3    H127692   4.447   2.289   1.256  0.1784 -0.2658  0.0930
 2067TIP3    H227693   4.474   2.258   1.401  0.2405  0.6649  0.2862
 2068TIP3   OH227694   5.738   6.375   1.256 -0.0209 -0.2200 -0.0289
 2068TIP3    H127695   5.738   6.337   1.344  0.1443  0.5019  0.2834
 2068TIP3    H227696   5.819   6.426   1.252 -0.2051  0.0434 -0.4713
 2069TIP3   OH227697   6.570   1.801   2.638  0.1364  0.3128  0.2226
 2069TIP3    H127698   6.497   1.740   2.650  0.9683 -0.3797  1.8971
 2069TIP3    H227699   6.582   1.841   2.724  0.8492  1.4312 -0.3899
 2070TIP3   OH227700   5.865   5.409   0.230  0.4312  0.0768 -0.5402
 2070TIP3    H127701   5.832   5.418   0.141 -1.9363  0.6546  0.3687
 2070TIP3    H227702   5.885   5.316   0.239 -1.7228 -0.4385 -0.8741
 2071TIP3   OH227703   4.907   1.813  11.589  0.7323 -0.6295  0.6142
 2071TIP3    H127704   4.953   1.809  11.672  0.5997  2.6387  0.9181
 2071TIP3    H227705   4.818   1.841  11.611  0.7628  0.5265 -0.6049
 2072TIP3   OH227706   6.461   5.829  13.716  0.6138 -0.3335 -0.3070
 2072TIP3    H127707   6.421   5.820  13.630  0.9208 -0.2755 -0.4543
 2072TIP3    H227708   6.470   5.739  13.748  0.3367 -0.3446 -0.2596
 2073TIP3   OH227709   5.618   3.439  12.433  0.0034  0.6219  0.0902
 2073TIP3    H127710   5.556   3.490  12.484  0.6286  0.8895  0.5894
 2073TIP3    H227711   5.570   3.414  12.354 -0.2675  2.0654 -0.2078
 2074TIP3   OH227712   3.658   5.981  11.796 -0.0931 -0.4089 -0.6111
 2074TIP3    H127713   3.677   5.955  11.706 -0.1925 -0.0416 -0.7375
 2074TIP3    H227714   3.701   5.914  11.849  0.7510 -0.1031 -0.9093
 2075TIP3   OH227715   0.446   4.422   4.461  0.3125 -0.0213 -0.4817
 2075TIP3    H127716   0.390   4.344   4.459  1.6797 -1.1318  1.9982
 2075TIP3    H227717   0.386   4.496   4.459 -1.0544 -1.1495 -1.8992
 2076TIP3   OH227718   4.589   5.573   2.022  0.1351  0.4639 -0.6138
 2076TIP3    H127719   4.562   5.500   2.079 -0.2348  1.1745  0.1387
 2076TIP3    H227720   4.551   5.552   1.937  0.3772 -0.4308 -0.5130
 2077TIP3   OH227721   3.106   5.144   2.838 -0.4598  0.2068 -0.1484
 2077TIP3    H127722   3.170   5.127   2.908  0.1347 -1.2660 -1.0288
 2077TIP3    H227723   3.044   5.205   2.877  0.9368  0.8986  1.0483
 2078TIP3   OH227724   4.061   1.239   2.991 -0.2603 -0.0766 -0.0015
 2078TIP3    H127725   4.139   1.184   2.997  0.0150 -0.0848 -2.8354
 2078TIP3    H227726   4.074   1.306   3.058  0.1138 -2.5162  2.4500
 2079TIP3   OH227727   0.353   0.098   0.579  0.2399  0.2512 -0.4404
 2079TIP3    H127728   0.288   0.049   0.529  0.4736  0.8834 -1.3840
 2079TIP3    H227729   0.431   0.097   0.524  1.0200 -0.4593  0.6625
 2080TIP3   OH227730   1.440   4.242   5.533  0.8388  0.0617 -0.1734
 2080TIP3    H127731   1.491   4.300   5.590  0.3503  1.2820 -0.9716
 2080TIP3    H227732   1.495   4.229   5.456 -0.0870  1.4996 -1.1034
 2081TIP3   OH227733   0.980   0.136   2.065 -0.7352 -0.4219  0.6134
 2081TIP3    H127734   0.967   0.225   2.100  0.2575 -0.0039 -0.0694
 2081TIP3    H227735   0.933   0.080   2.127 -1.5680  0.5984  0.9280
 2082TIP3   OH227736   1.695   5.208  11.294  0.3625  0.7743 -0.2809
 2082TIP3    H127737   1.625   5.255  11.340 -0.1914  0.6537 -1.0134
 2082TIP3    H227738   1.660   5.189  11.208  0.6068 -0.9719 -0.0099
 2083TIP3   OH227739   0.032   4.809  10.253 -0.4785 -0.1649 -0.4782
 2083TIP3    H127740  -0.060   4.835  10.240 -0.4497  1.2724  1.9333
 2083TIP3    H227741   0.070   4.881  10.303  2.4699  0.0766 -2.9392
 2084TIP3   OH227742   0.773   2.544  11.602  0.0727 -0.3714 -0.1358
 2084TIP3    H127743   0.798   2.457  11.632  1.7509 -0.3705 -1.4733
 2084TIP3    H227744   0.723   2.528  11.522 -0.2476 -0.1454  0.0199
 2085TIP3   OH227745   3.143   3.764   5.923 -0.1092  0.4567  0.2359
 2085TIP3    H127746   3.192   3.688   5.892 -1.8855 -0.1863 -1.0667
 2085TIP3    H227747   3.088   3.731   5.993 -0.8762  0.5316 -0.3218
 2086TIP3   OH227748   2.063   0.596   5.864  0.1912 -0.1573 -0.2029
 2086TIP3    H127749   2.047   0.689   5.879  1.7590  0.0198  0.5440
 2086TIP3    H227750   1.997   0.551   5.915 -2.3842  0.5468 -2.7956
 2087TIP3   OH227751   1.012   3.738   1.756 -0.3749 -0.1463 -0.3196
 2087TIP3    H127752   0.998   3.824   1.794 -1.2767 -0.0647 -0.8262
 2087TIP3    H227753   0.987   3.748   1.664 -0.8717 -1.0462 -0.2862
 2088TIP3   OH227754   6.362   3.756  12.460  0.5872  0.1949 -0.5341
 2088TIP3    H127755   6.294   3.692  12.479 -1.3963  1.6509 -2.4725
 2088TIP3    H227756   6.419   3.754  12.537 -0.3670 -2.6421  0.1607
 2089TIP3   OH227757   6.532   0.585  13.992 -0.2347 -0.0191 -0.2340
 2089TIP3    H127758   6.467   0.516  13.977  1.0183 -1.7134  1.8804
 2089TIP3    H227759   6.596   0.573  13.922 -0.4085 -0.5300 -0.3095
 2090TIP3   OH227760   0.340   2.947  14.516  0.1657 -0.0604 -0.4251
 2090TIP3    H127761   0.385   2.995  14.585  0.2498  0.3148 -0.7430
 2090TIP3    H227762   0.404   2.939  14.445 -0.3953  0.8234 -1.0365
 2091TIP3   OH227763   2.257   3.899  12.336  0.3167  0.2111 -0.3576
 2091TIP3    H127764   2.345   3.927  12.310  0.7297 -0.1770  0.5665
 2091TIP3    H227765   2.266   3.878  12.429 -0.7668  0.1944 -0.2523
 2092TIP3   OH227766   3.042   4.451  14.821 -0.1678 -0.3027  0.1832
 2092TIP3    H127767   3.124   4.457  14.871  0.2270  0.7174 -0.5496
 2092TIP3    H227768   3.013   4.361  14.832  0.7862 -0.5323  0.8805
 2093TIP3   OH227769   6.048   4.583   6.261 -0.1092 -0.0528  0.9855
 2093TIP3    H127770   6.018   4.588   6.351  0.7655  1.4109  1.2096
 2093TIP3    H227771   6.134   4.542   6.266  0.3705  0.9329  0.9285
 2094TIP3   OH227772   6.506   3.902   3.760  0.5675 -0.2061 -0.5230
 2094TIP3    H127773   6.491   3.977   3.818  0.3550 -2.3228  2.2921
 2094TIP3    H227774   6.595   3.915   3.727  0.7953  0.9412  0.5024
 2095TIP3   OH227775   0.028   4.020   4.793 -0.1317  0.5263  0.8301
 2095TIP3    H127776  -0.027   4.083   4.746  1.0114  1.4183  0.6755
 2095TIP3    H227777  -0.024   3.940   4.794 -1.5374  1.4177  0.8808
 2096TIP3   OH227778   1.398   3.989  12.008 -0.8783  0.4745  0.0073
 2096TIP3    H127779   1.488   4.019  11.998 -0.4057 -1.2166 -1.0209
 2096TIP3    H227780   1.357   4.006  11.923 -0.8614 -0.9023 -0.2850
 2097TIP3   OH227781   1.345   3.234   1.429 -0.2311  0.3775  0.4098
 2097TIP3    H127782   1.273   3.206   1.373 -0.6769  0.4503  0.9349
 2097TIP3    H227783   1.367   3.156   1.480 -0.3648  0.5257  0.6975
 2098TIP3   OH227784   1.762   6.422   2.384 -0.1705 -0.6527  0.0878
 2098TIP3    H127785   1.687   6.445   2.438  0.8365  2.3777  0.2609
 2098TIP3    H227786   1.731   6.429   2.294 -0.1008  0.7121  0.1577
 2099TIP3   OH227787   1.894   4.384   3.102 -0.5510 -0.7766 -0.2096
 2099TIP3    H127788   1.838   4.307   3.095 -0.4453 -1.0136  1.4679
 2099TIP3    H227789   1.948   4.382   3.023  0.3634 -3.1401  0.4512
 2100TIP3   OH227790   6.339   0.294  11.827 -0.4784 -0.4799 -0.6175
 2100TIP3    H127791   6.413   0.284  11.767 -0.5559 -1.4297 -0.5753
 2100TIP3    H227792   6.373   0.267  11.912 -1.5457 -3.5032 -1.0828
 2101TIP3   OH227793   4.908   4.595   1.881  0.1155 -0.0936  0.3580
 2101TIP3    H127794   4.935   4.529   1.818 -0.6238 -1.4629  1.4387
 2101TIP3    H227795   4.989   4.637   1.909  0.4304  0.5906 -1.5676
 2102TIP3   OH227796   4.190   0.010   1.351  0.3895  0.3022  0.4484
 2102TIP3    H127797   4.257  -0.049   1.317 -0.6428 -0.1296 -0.8680
 2102TIP3    H227798   4.115  -0.047   1.370 -1.6069  1.4506 -3.3929
 2103TIP3   OH227799   1.124   4.614   2.226  0.0158  0.1351 -0.4918
 2103TIP3    H127800   1.032   4.618   2.201 -0.6276 -0.1926  1.6387
 2103TIP3    H227801   1.141   4.520   2.240  0.7257  0.1737 -1.0922
 2104TIP3   OH227802   5.720   0.256   4.382  0.7161 -0.0432 -0.0435
 2104TIP3    H127803   5.635   0.252   4.337 -0.1699  1.0989  1.4735
 2104TIP3    H227804   5.784   0.245   4.313 -0.6331  1.2228 -1.5394
 2105TIP3   OH227805   6.581   3.075   2.287  0.3868 -0.1261  0.3486
 2105TIP3    H127806   6.486   3.077   2.275  0.1719 -2.1424  1.4125
 2105TIP3    H227807   6.605   2.984   2.270  2.0408  0.2295  0.7200
 2106TIP3   OH227808   1.208   5.400   5.253 -0.5149 -0.1076  0.2054
 2106TIP3    H127809   1.257   5.391   5.335 -1.0652  0.6287  0.6202
 2106TIP3    H227810   1.257   5.348   5.190  0.2174 -0.2327  0.8725
 2107TIP3   OH227811   0.987   2.523   2.820 -0.7670 -0.4975 -0.5292
 2107TIP3    H127812   0.995   2.451   2.883  0.9007 -0.6905 -0.9415
 2107TIP3    H227813   1.013   2.485   2.736 -0.8636  0.3255 -0.9411
 2108TIP3   OH227814   3.304   6.653  11.228  0.7681  0.3544  0.8621
 2108TIP3    H127815   3.218   6.671  11.188  1.5269  1.6756 -0.2040
 2108TIP3    H227816   3.315   6.559  11.217  0.3773  0.4898 -0.9117
 2109TIP3   OH227817   3.439   1.455  16.636 -0.2663 -0.1203  0.2574
 2109TIP3    H127818   3.453   1.550  16.644  2.2733 -0.4906  0.7969
 2109TIP3    H227819   3.462   1.435  16.545 -0.0510 -0.3391  0.3628
 2110TIP3   OH227820   3.614   2.546  17.045 -0.5468  0.0027 -0.1613
 2110TIP3    H127821   3.695   2.498  17.058 -1.0532 -0.6973  0.4700
 2110TIP3    H227822   3.640   2.638  17.042  0.3716 -0.2783 -0.9133
 2111TIP3   OH227823   6.679   3.643  15.153  0.5894  0.0677  0.3782
 2111TIP3    H127824   6.708   3.588  15.226  0.9525 -1.1445 -0.6644
 2111TIP3    H227825   6.760   3.685  15.122  0.8725 -1.4608 -1.0021
 2112TIP3   OH227826   2.724   2.069   3.749 -0.1096  0.5504  0.4645
 2112TIP3    H127827   2.649   2.039   3.800  0.8573 -0.2044  1.4880
 2112TIP3    H227828   2.800   2.045   3.803  0.8071  2.3852  0.0170
 2113TIP3   OH227829   2.762   5.623   4.398  0.0119  0.1837  0.4338
 2113TIP3    H127830   2.749   5.684   4.325  0.9749  0.7262  0.7064
 2113TIP3    H227831   2.833   5.565   4.369 -0.7040 -0.6281  0.2932
 2114TIP3   OH227832   6.353   0.328  12.113 -0.4586  0.2719  0.0720
 2114TIP3    H127833   6.397   0.312  12.196 -1.4244  0.5037  0.6321
 2114TIP3    H227834   6.343   0.423  12.108 -0.2175  0.2738 -0.4014
 2115TIP3   OH227835   5.621   5.090   0.775 -0.2572 -0.2913  0.1206
 2115TIP3    H127836   5.622   5.138   0.858  1.9092  1.1386 -0.6944
 2115TIP3    H227837   5.713   5.086   0.749 -0.9525 -0.3476 -2.4362
 2116TIP3   OH227838   3.516   5.134   6.312 -0.4406  0.0292  0.2451
 2116TIP3    H127839   3.604   5.145   6.349 -1.4328  1.6593  2.1669
 2116TIP3    H227840   3.477   5.064   6.364 -0.3326 -0.6459 -0.5642
 2117TIP3   OH227841   3.728   5.144   3.576 -0.3807 -0.3287 -0.1286
 2117TIP3    H127842   3.781   5.223   3.574 -3.0556  1.5334 -0.6211
 2117TIP3    H227843   3.701   5.131   3.485  0.6116 -2.2422 -0.1774
 2118TIP3   OH227844   0.489   4.713  15.457  0.1726  0.1272  0.2470
 2118TIP3    H127845   0.401   4.745  15.437 -0.3761 -0.6606  1.3232
 2118TIP3    H227846   0.481   4.617  15.455  0.6417  0.0394  1.7754
 2119TIP3   OH227847   4.302   3.149   2.899  0.4440  0.0316 -0.0966
 2119TIP3    H127848   4.394   3.128   2.915  0.7277  2.0471  1.0851
 2119TIP3    H227849   4.304   3.231   2.850 -0.7162 -0.2828 -0.6935
 2120TIP3   OH227850   5.796   5.571   2.394 -0.5802 -0.3665  0.5849
 2120TIP3    H127851   5.734   5.627   2.348  2.2710  0.7188 -2.1345
 2120TIP3    H227852   5.819   5.619   2.473  0.7352  1.6869 -1.0064
 2121TIP3   OH227853   4.910   6.078  11.465 -0.5972 -0.4400  0.1266
 2121TIP3    H127854   5.006   6.079  11.465 -0.5997  0.7016  0.4635
 2121TIP3    H227855   4.886   6.169  11.446 -1.6095 -1.1971 -2.3875
 2122TIP3   OH227856   6.531   1.756   0.738  0.7807  0.4325 -0.7936
 2122TIP3    H127857   6.474   1.754   0.662  0.4072 -0.3298 -0.4935
 2122TIP3    H227858   6.485   1.705   0.805  1.6578  0.0840 -0.4447
 2123TIP3   OH227859   5.114   3.353  10.700 -0.7359  0.7832 -0.2744
 2123TIP3    H127860   5.117   3.448  10.695  0.9039  0.7395 -0.3651
 2123TIP3    H227861   5.055   3.327  10.629 -1.2001  1.7196 -0.2398
 2124TIP3   OH227862   4.820   0.925  13.621  0.0903  0.9382 -0.4593
 2124TIP3    H127863   4.806   0.939  13.715  0.3788  1.0511 -0.4334
 2124TIP3    H227864   4.833   0.831  13.613  0.7755  1.0153 -0.2904
 2125TIP3   OH227865   6.032   1.091  12.833  0.1771 -0.1548  0.4257
 2125TIP3    H127866   6.111   1.127  12.794  0.7743 -2.1700 -0.2261
 2125TIP3    H227867   6.063   1.033  12.903 -0.7014 -1.3330 -0.1506
 2126TIP3   OH227868   4.472   1.662   2.220  0.6090 -0.2505  0.3229
 2126TIP3    H127869   4.472   1.754   2.195  1.5213 -0.0978  0.8772
 2126TIP3    H227870   4.406   1.622   2.163  0.4379  0.6778 -0.1408
 2127TIP3   OH227871   2.672   1.877   3.219  0.3247  0.0112  0.3889
 2127TIP3    H127872   2.607   1.882   3.149 -0.3319  1.8309  1.0931
 2127TIP3    H227873   2.630   1.824   3.287 -0.1171  0.4807  0.4914
 2128TIP3   OH227874   4.152   3.101  15.685 -0.0764  0.3991 -0.1519
 2128TIP3    H127875   4.164   3.187  15.726 -1.5570  1.1806 -1.2951
 2128TIP3    H227876   4.066   3.072  15.716  1.3378 -1.6936  1.9763
 2129TIP3   OH227877   6.389   1.304  12.850 -0.3451  0.5878 -0.2043
 2129TIP3    H127878   6.332   1.375  12.820 -1.0752 -0.1491 -0.5715
 2129TIP3    H227879   6.364   1.229  12.797 -1.4946 -0.6746  2.0404
 2130TIP3   OH227880   1.713   1.877  11.181 -0.0776  0.0592  0.1589
 2130TIP3    H127881   1.774   1.936  11.137  0.3003  0.1200  0.7592
 2130TIP3    H227882   1.638   1.933  11.202  0.5214  0.4703  1.2387
 2131TIP3   OH227883   1.843   4.136   4.436  0.2442  0.4746 -0.0217
 2131TIP3    H127884   1.771   4.169   4.490 -0.0588  1.0238 -0.7643
 2131TIP3    H227885   1.804   4.064   4.387  1.1142 -1.6445  2.2471
 2132TIP3   OH227886   2.420   0.075   4.851 -0.0016 -0.0689  0.0720
 2132TIP3    H127887   2.483   0.009   4.822  0.2122 -0.1196  0.6415
 2132TIP3    H227888   2.432   0.148   4.790  1.4156  0.3719  0.8542
 2133TIP3   OH227889   0.912   1.952  12.637 -0.1857 -0.4592  0.9104
 2133TIP3    H127890   0.962   2.008  12.697 -1.6998 -1.1787  2.8775
 2133TIP3    H227891   0.929   1.989  12.550  4.0990 -0.9220  1.4323
 2134TIP3   OH227892   4.618   0.057  12.757 -0.2090 -0.1140 -0.5903
 2134TIP3    H127893   4.586   0.130  12.704 -0.3275  0.7866  0.7192
 2134TIP3    H227894   4.705   0.038  12.722  0.2733  1.3777 -0.1946
 2135TIP3   OH227895   4.781   3.207  11.939 -0.1321 -0.1128 -0.2262
 2135TIP3    H127896   4.720   3.264  11.986 -1.5279  0.2589 -2.4291
 2135TIP3    H227897   4.840   3.175  12.007 -2.4997 -0.1479  1.8969
 2136TIP3   OH227898   6.645   4.330   3.884 -0.8088  0.0814  0.2300
 2136TIP3    H127899   6.587   4.254   3.886 -2.6637  1.5038  2.6545
 2136TIP3    H227900   6.687   4.326   3.798 -2.3644 -2.5657 -0.4449
 2137TIP3   OH227901   1.738   5.647   4.099 -0.5453  0.0814  0.2754
 2137TIP3    H127902   1.791   5.713   4.054 -1.4115  1.5015  1.3049
 2137TIP3    H227903   1.714   5.585   4.030  1.0700  0.3178 -0.5141
 2138TIP3   OH227904   5.319   2.881  16.783 -0.4687  0.5371  0.0819
 2138TIP3    H127905   5.264   2.829  16.842 -0.1977 -0.3393 -0.4266
 2138TIP3    H227906   5.278   2.968  16.783 -0.7383  0.4224  1.1967
 2139TIP3   OH227907   6.511   4.275  15.565  0.0543 -0.2154  0.1778
 2139TIP3    H127908   6.570   4.204  15.542  1.7961  0.9541  0.8869
 2139TIP3    H227909   6.530   4.344  15.501  1.2566  1.0845  1.8452
 2140TIP3   OH227910   1.113   6.067  14.601 -0.1809  0.0610  0.3059
 2140TIP3    H127911   1.026   6.072  14.641 -0.7157 -1.4277 -0.6103
 2140TIP3    H227912   1.106   6.119  14.521 -0.4966 -0.7324 -0.1946
 2141TIP3   OH227913   2.828   2.865  14.171  0.0953 -0.5074 -0.0615
 2141TIP3    H127914   2.784   2.949  14.186 -0.3024 -0.6310 -0.5287
 2141TIP3    H227915   2.807   2.843  14.080  1.6156 -0.2741 -0.4801
 2142TIP3   OH227916   4.663   0.022   4.493 -0.2445 -0.2988 -0.4476
 2142TIP3    H127917   4.569   0.035   4.506 -0.0919  0.7072 -0.3012
 2142TIP3    H227918   4.697   0.005   4.581  0.2014  2.6546 -0.0063
 2143TIP3   OH227919   4.805   1.482  12.151 -0.1807 -0.1186  0.0789
 2143TIP3    H127920   4.900   1.471  12.157 -0.1476 -0.8652 -1.5201
 2143TIP3    H227921   4.770   1.398  12.179 -0.3346 -0.2266 -0.4449
 2144TIP3   OH227922   0.180   3.574  15.718 -0.1126  0.1492 -0.3808
 2144TIP3    H127923   0.218   3.543  15.636  2.4777  0.8913  0.4675
 2144TIP3    H227924   0.229   3.528  15.786 -3.1382 -1.4948  0.7853
 2145TIP3   OH227925   1.910   0.191  12.299 -0.3662  1.0833  0.0818
 2145TIP3    H127926   1.883   0.132  12.228 -0.6504  1.5280 -0.1826
 2145TIP3    H227927   1.869   0.275  12.278 -0.9724  1.0539  1.1161
 2146TIP3   OH227928   1.475   0.081   2.409  0.1664  0.1091  0.2298
 2146TIP3    H127929   1.478   0.156   2.468  0.1613  1.0545 -0.9511
 2146TIP3    H227930   1.563   0.043   2.413 -0.2425 -0.6912  1.9223
 2147TIP3   OH227931   4.129   5.510   3.784  0.1105  0.1191  0.2467
 2147TIP3    H127932   4.136   5.584   3.845  1.9890  0.0366  0.1509
 2147TIP3    H227933   4.149   5.434   3.838  0.2268 -0.1096 -0.1224
 2148TIP3   OH227934   6.606   3.466   5.489  0.2352 -0.1503 -0.2797
 2148TIP3    H127935   6.671   3.489   5.422 -0.3019  1.0524 -0.3911
 2148TIP3    H227936   6.620   3.373   5.504  0.4017 -0.4181 -2.0158
 2149TIP3   OH227937   6.705   0.696   1.082  0.0880  0.6262  0.2676
 2149TIP3    H127938   6.768   0.768   1.082  0.4197  0.3637 -1.2021
 2149TIP3    H227939   6.759   0.617   1.082 -0.2371  0.3969 -0.0827
 2150TIP3   OH227940   5.081   1.307  11.406  0.0310 -0.3105 -0.2948
 2150TIP3    H127941   5.070   1.387  11.457 -2.1483  1.4694 -3.4042
 2150TIP3    H227942   5.054   1.237  11.466 -2.7018  1.7161  0.9614
 2151TIP3   OH227943   5.130   1.784   0.304 -0.6169  0.6081  0.0770
 2151TIP3    H127944   5.162   1.763   0.392  0.6632 -1.3239 -0.8072
 2151TIP3    H227945   5.144   1.879   0.295  4.3695  0.0203  0.0097
 2152TIP3   OH227946   3.082   0.423   3.298  0.3449  0.0263 -0.2316
 2152TIP3    H127947   3.101   0.413   3.392 -0.0501  2.3490  0.1398
 2152TIP3    H227948   3.169   0.428   3.257  0.5254 -0.4412  0.0957
 2153TIP3   OH227949   5.100   4.871  15.783  0.4379 -0.5428 -0.0753
 2153TIP3    H127950   5.033   4.822  15.736  0.6083 -1.1622  0.3259
 2153TIP3    H227951   5.087   4.962  15.755 -0.9517 -0.5695  0.4436
 2154TIP3   OH227952   2.302   4.768  16.278  0.2519  0.0864 -0.0824
 2154TIP3    H127953   2.332   4.689  16.323 -0.8280 -1.3256 -1.7648
 2154TIP3    H227954   2.340   4.761  16.190  0.0601  1.3772 -0.2736
 2155TIP3   OH227955   6.042   4.636  13.074 -0.3373  0.4910 -0.5520
 2155TIP3    H127956   6.077   4.688  13.146 -0.2837 -0.6829  0.2893
 2155TIP3    H227957   6.116   4.623  13.015  0.3813 -1.0278  0.6527
 2156TIP3   OH227958   1.901   2.483  13.315 -0.4676 -0.0314  0.9557
 2156TIP3    H127959   1.820   2.465  13.268 -0.6786 -1.2284  1.7311
 2156TIP3    H227960   1.965   2.504  13.247 -0.6771 -2.0586  0.1012
 2157TIP3   OH227961   5.041   1.527   4.063  0.2122  0.4095 -0.0091
 2157TIP3    H127962   4.988   1.497   3.989 -0.8050  1.7355  0.1535
 2157TIP3    H227963   5.131   1.514   4.035 -0.1811 -0.6489 -0.8180
 2158TIP3   OH227964   4.877   1.554   3.344 -0.2558 -0.2751 -0.3510
 2158TIP3    H127965   4.898   1.630   3.290 -1.7201  0.0751 -0.4505
 2158TIP3    H227966   4.913   1.480   3.295  1.7720  0.4089  0.0871
 2159TIP3   OH227967   3.815   6.331  12.606  0.6140 -0.0923  0.6102
 2159TIP3    H127968   3.808   6.265  12.537 -2.1420 -0.3461  1.0780
 2159TIP3    H227969   3.794   6.414  12.562  1.6621  0.1651  0.5632
 2160TIP3   OH227970   4.426   1.442   3.165  0.2117 -0.6902 -0.2799
 2160TIP3    H127971   4.351   1.485   3.122 -0.0589 -1.6795 -0.8197
 2160TIP3    H227972   4.385   1.380   3.225  0.5996  0.1545  0.8716
 2161TIP3   OH227973   6.442   5.824  12.307  0.1241  0.2171 -0.2361
 2161TIP3    H127974   6.506   5.757  12.282  1.2774  0.4279  2.0536
 2161TIP3    H227975   6.360   5.776  12.318  0.5787 -0.5567 -0.2107
 2162TIP3   OH227976   2.517   1.570  15.776  0.4785  0.0763  0.4311
 2162TIP3    H127977   2.480   1.658  15.763  2.4604  0.7538 -0.8274
 2162TIP3    H227978   2.479   1.517  15.706 -0.5613 -0.0268  1.0682
 2163TIP3   OH227979   2.167   1.184  13.610  0.2395 -0.1911 -0.0057
 2163TIP3    H127980   2.117   1.102  13.605 -1.9204  1.1213 -0.6553
 2163TIP3    H227981   2.102   1.252  13.592  1.8493  1.7185  1.2569
 2164TIP3   OH227982   3.885   6.787  11.731  0.4022 -0.5551 -0.0015
 2164TIP3    H127983   3.905   6.704  11.775  1.7423  1.0370  2.4742
 2164TIP3    H227984   3.822   6.831  11.788  0.0835  0.3698 -1.0440
 2165TIP3   OH227985   2.443   2.343   5.827 -0.1680  0.2985 -0.2041
 2165TIP3    H127986   2.512   2.341   5.893  0.4614  0.7194 -0.8396
 2165TIP3    H227987   2.424   2.250   5.809  0.6475  0.1778 -0.4522
 2166TIP3   OH227988   5.003   3.511  14.406 -0.2481  0.4728  0.2518
 2166TIP3    H127989   5.046   3.494  14.322  0.7499  1.6189  0.5201
 2166TIP3    H227990   5.067   3.481  14.471 -1.2209 -0.8758  0.6027
 2167TIP3   OH227991   0.882   3.760   2.637 -0.0197 -0.5767  0.0048
 2167TIP3    H127992   0.887   3.756   2.542 -0.7949 -1.9471  0.0039
 2167TIP3    H227993   0.956   3.707   2.668 -0.3533 -0.9620  0.1514
 2168TIP3   OH227994   3.730   4.444  14.265 -0.7282 -0.5530  0.0875
 2168TIP3    H127995   3.805   4.495  14.235  0.6970 -2.0465  0.9977
 2168TIP3    H227996   3.683   4.422  14.184  0.0284  0.0709 -0.5338
 2169TIP3   OH227997   0.972   5.525  13.113 -0.2523  0.0587 -0.1699
 2169TIP3    H127998   0.948   5.571  13.033 -1.2896  2.1411  1.2981
 2169TIP3    H227999   0.898   5.466  13.130 -0.9292  1.0454  0.3156
 2170TIP3   OH228000   3.013   1.899  12.121  0.6137  0.0876 -0.2740
 2170TIP3    H128001   2.984   1.933  12.036  1.7849  0.4963 -0.5198
 2170TIP3    H228002   2.985   1.966  12.184 -0.0332 -0.0943 -0.3693
 2171TIP3   OH228003   0.476   3.287  17.256 -0.2069  0.5707 -0.3755
 2171TIP3    H128004   0.388   3.261  17.283  0.1811  1.2194  1.5975
 2171TIP3    H228005   0.526   3.205  17.255 -0.6260  0.3151 -0.7185
 2172TIP3   OH228006   0.444   2.919  14.250 -0.1241  0.5330 -0.0169
 2172TIP3    H128007   0.469   2.993  14.195  0.0049  1.0675  0.7572
 2172TIP3    H228008   0.359   2.891  14.215  0.2981  0.4134 -0.9397
 2173TIP3   OH228009   3.110   4.258   4.118 -0.0666 -0.7940  0.0059
 2173TIP3    H128010   3.102   4.321   4.190  1.1953 -0.4958 -0.0966
 2173TIP3    H228011   3.192   4.212   4.136  0.6552 -0.1891 -1.6296
 2174TIP3   OH228012   0.883   3.125   3.805  0.1626 -0.3115 -0.1668
 2174TIP3    H128013   0.949   3.057   3.792 -0.5311 -0.8235 -1.0405
 2174TIP3    H228014   0.864   3.122   3.899 -0.8659 -2.2710 -0.4081
 2175TIP3   OH228015   2.863   1.070   4.325  0.1670 -0.2399 -0.4185
 2175TIP3    H128016   2.836   1.131   4.394  1.5892 -0.1240  0.0449
 2175TIP3    H228017   2.781   1.031   4.295 -0.6305  0.9122  0.2052
 2176TIP3   OH228018   1.610   3.354   6.250 -0.7662 -0.0045 -0.7302
 2176TIP3    H128019   1.672   3.427   6.252 -0.3600 -0.3267 -1.4954
 2176TIP3    H228020   1.665   3.276   6.265 -1.1524 -0.1820 -0.2344
 2177TIP3   OH228021   6.129   0.445  11.905  0.0683 -0.3489 -0.4075
 2177TIP3    H128022   6.223   0.433  11.891  0.1853  0.8737 -0.8147
 2177TIP3    H228023   6.088   0.384  11.844  0.6068  0.6268 -1.7719
 2178TIP3   OH228024   2.786   6.643  15.286  0.4705 -0.6451 -0.6429
 2178TIP3    H128025   2.737   6.637  15.368  0.7574 -1.9649 -0.5606
 2178TIP3    H228026   2.876   6.623  15.311  0.6588 -0.4835 -1.1838
 2179TIP3   OH228027   5.679   2.048   2.585 -0.4158 -0.1405  0.0443
 2179TIP3    H128028   5.699   2.024   2.494  0.7648 -0.6177  0.4226
 2179TIP3    H228029   5.592   2.087   2.580 -0.0922  0.4564 -1.3983
 2180TIP3   OH228030   1.982   6.322  10.725  0.0101  0.1859 -0.0064
 2180TIP3    H128031   2.068   6.281  10.728 -0.5477 -1.0891 -0.9744
 2180TIP3    H228032   1.988   6.395  10.786  1.7425  0.0492  0.0029
 2181TIP3   OH228033   5.331   3.568  14.279 -0.2646  0.0804 -0.7034
 2181TIP3    H128034   5.405   3.616  14.240 -1.3728  1.8989 -0.6366
 2181TIP3    H228035   5.351   3.565  14.372 -0.8286  1.6029 -0.5255
 2182TIP3   OH228036   2.316   1.940   2.299 -0.0731  0.4263 -0.0297
 2182TIP3    H128037   2.376   1.959   2.371 -0.4659  1.1052  0.1231
 2182TIP3    H228038   2.332   2.009   2.234 -1.7594  1.5284  0.6824
 2183TIP3   OH228039   1.734   3.543  15.700 -0.5482  0.4331 -0.1063
 2183TIP3    H128040   1.737   3.635  15.676 -0.3264  0.1313 -1.2362
 2183TIP3    H228041   1.642   3.525  15.717 -0.7675  0.5440 -1.1582
 2184TIP3   OH228042   6.495   5.231  16.262 -0.4232 -0.0309 -0.4711
 2184TIP3    H128043   6.525   5.141  16.276  0.1532 -0.0265 -1.5905
 2184TIP3    H228044   6.567   5.272  16.213 -0.3288  1.2670  0.7484
 2185TIP3   OH228045   6.088   2.466   5.579 -0.0291  0.0928  0.1782
 2185TIP3    H128046   6.145   2.390   5.587  0.5307  0.5994  1.0279
 2185TIP3    H228047   6.143   2.540   5.605 -1.0202  0.6085  0.8293
 2186TIP3   OH228048   3.041   6.168  12.649  0.0692 -0.0764 -0.0457
 2186TIP3    H128049   3.106   6.126  12.593  0.1076  0.6507 -0.5490
 2186TIP3    H228050   3.020   6.102  12.715  0.6339 -0.6397 -0.4272
 2187TIP3   OH228051   5.469   2.568   3.676  0.3246  0.1785  0.0059
 2187TIP3    H128052   5.428   2.561   3.762 -2.1080 -1.4603 -1.2192
 2187TIP3    H228053   5.506   2.481   3.661 -0.4123  0.0520 -1.1392
 2188TIP3   OH228054   4.565   2.060  13.446 -0.2700 -0.2252  0.0251
 2188TIP3    H128055   4.560   2.099  13.533  1.8797  0.2245 -0.0303
 2188TIP3    H228056   4.482   2.082  13.404 -1.0049  0.1921  1.6911
 2189TIP3   OH228057   4.951   0.191  16.827 -0.1950 -0.4833 -0.2816
 2189TIP3    H128058   4.919   0.240  16.902  1.7997  1.2990 -0.5532
 2189TIP3    H228059   4.924   0.243  16.751 -0.2179 -1.1095 -0.7149
 2190TIP3   OH228060   3.607   2.423  13.972 -0.1300  0.5634 -0.3113
 2190TIP3    H128061   3.610   2.359  13.901 -0.4252  0.8195 -0.5544
 2190TIP3    H228062   3.581   2.373  14.049 -1.5968  0.6164 -0.7568
 2191TIP3   OH228063   1.180   2.462  11.932  0.9231 -0.9698 -0.6228
 2191TIP3    H128064   1.133   2.526  11.986  0.3130 -2.0257  0.1002
 2191TIP3    H228065   1.170   2.495  11.843 -1.5444 -1.3844 -0.5231
 2192TIP3   OH228066   6.328   2.361   2.871 -0.3277  0.3017 -0.9680
 2192TIP3    H128067   6.365   2.369   2.959  1.1180  0.4866 -1.5906
 2192TIP3    H228068   6.239   2.328   2.886 -0.2658  0.7897  0.5896
 2193TIP3   OH228069   5.838   0.993  12.662 -0.0821  0.2980  0.1422
 2193TIP3    H128070   5.867   1.052  12.592  0.4216 -0.5386 -0.3592
 2193TIP3    H228071   5.905   1.001  12.729 -0.3110  0.7236  0.3269
 2194TIP3   OH228072   6.791   4.467   2.428 -0.4820 -1.0559 -0.0316
 2194TIP3    H128073   6.771   4.392   2.485 -0.9744  0.3759  1.7281
 2194TIP3    H228074   6.885   4.483   2.442 -0.5872 -0.7483  0.3169
 2195TIP3   OH228075   1.331   4.628   5.031  0.1005  0.1871 -0.5815
 2195TIP3    H128076   1.343   4.602   4.940  0.3945  0.3444 -0.5890
 2195TIP3    H228077   1.350   4.548   5.081  2.1376  0.6570 -0.5444
 2196TIP3   OH228078   1.675   3.200   1.457 -0.5710 -0.5605 -0.2859
 2196TIP3    H128079   1.597   3.144   1.463  0.9947 -2.7023  1.3590
 2196TIP3    H228080   1.744   3.141   1.424  0.8317  0.7052  0.3179
 2197TIP3   OH228081   3.907   0.686   5.416  0.5262  0.4130  0.2170
 2197TIP3    H128082   3.874   0.753   5.476 -2.5332  0.2670 -1.1662
 2197TIP3    H228083   3.992   0.720   5.387  0.0147  2.6603  1.1869
 2198TIP3   OH228084   4.160   0.244   1.176 -0.3653 -0.2931  0.0391
 2198TIP3    H128085   4.222   0.183   1.137  0.8278  0.5644  0.5894
 2198TIP3    H228086   4.109   0.191   1.237  0.6557 -0.7414  0.5109
 2199TIP3   OH228087   3.255   2.931   1.798 -0.0556  0.4129 -0.2581
 2199TIP3    H128088   3.176   2.912   1.848  0.1958 -1.2589 -0.4406
 2199TIP3    H228089   3.318   2.961   1.863  0.4758 -2.3582  0.5897
 2200TIP3   OH228090   3.411   4.725  16.922 -0.5764  0.3061  0.3139
 2200TIP3    H128091   3.438   4.644  16.878  2.1123  1.3661 -0.0868
 2200TIP3    H228092   3.408   4.790  16.851  0.9252  1.3690  1.2032
 2201TIP3   OH228093   3.451   4.634   0.117 -0.2373  0.0519 -0.0522
 2201TIP3    H128094   3.453   4.637   0.021 -1.4171  0.3783 -0.0784
 2201TIP3    H228095   3.428   4.722   0.144 -1.1795 -0.3474  0.4808
 2202TIP3   OH228096   3.475   0.673   5.622 -0.6214 -0.1045 -0.3998
 2202TIP3    H128097   3.475   0.646   5.530  0.6489 -0.1942 -0.3897
 2202TIP3    H228098   3.523   0.756   5.622  1.0166 -1.0195  0.4230
 2203TIP3   OH228099   0.933   4.441  11.002  0.6170  0.1134  0.7379
 2203TIP3    H128100   0.993   4.468  11.072  2.3640  1.1085 -1.0970
 2203TIP3    H228101   0.958   4.351  10.982  2.1596  0.8237 -0.6487
 2204TIP3   OH228102   0.257   0.732   0.848  0.5950 -0.3036  0.0255
 2204TIP3    H128103   0.331   0.751   0.906  1.6619  0.3414 -1.5264
 2204TIP3    H228104   0.294   0.681   0.776 -0.5851 -0.5286 -0.4465
 2205TIP3   OH228105   0.003   0.747   5.346 -0.5659  0.2175  0.8861
 2205TIP3    H128106   0.034   0.836   5.360 -0.8306  0.2138  1.4866
 2205TIP3    H228107  -0.006   0.740   5.251 -0.5797  0.8434  0.8389
 2206TIP3   OH228108   5.037   2.783   5.493 -0.4332  0.0253 -0.3727
 2206TIP3    H128109   4.970   2.849   5.507  0.8830  1.2154  0.5423
 2206TIP3    H228110   5.093   2.820   5.424  0.6771  0.1828  0.5931
 2207TIP3   OH228111   5.351   2.528   2.783 -0.3170  0.0466  0.2795
 2207TIP3    H128112   5.320   2.502   2.696  2.7866  1.0977 -1.2008
 2207TIP3    H228113   5.434   2.572   2.767  0.8865 -0.7314  3.9164
 2208TIP3   OH228114   3.688   5.401  14.484  0.2357 -0.0925 -0.3812
 2208TIP3    H128115   3.656   5.394  14.394  0.4205  1.5059 -0.5976
 2208TIP3    H228116   3.682   5.313  14.519  0.1609 -0.7315 -1.9668
 2209TIP3   OH228117   4.443   5.705  13.505 -0.3993 -0.4328 -0.6978
 2209TIP3    H128118   4.451   5.791  13.464 -0.1764  0.4263  1.0900
 2209TIP3    H228119   4.376   5.660  13.454 -1.5834  1.3556 -0.7581
 2210TIP3   OH228120   1.062   3.338   3.810 -0.3553 -0.3482  0.0652
 2210TIP3    H128121   0.997   3.278   3.775  0.1907 -0.3048 -1.0447
 2210TIP3    H228122   1.014   3.393   3.871 -1.4860  0.0791 -1.2053
 2211TIP3   OH228123   5.732   3.571   2.232  0.3331 -0.5778 -0.3717
 2211TIP3    H128124   5.653   3.550   2.280  1.3263  0.1847  1.6563
 2211TIP3    H228125   5.802   3.568   2.298  1.7843  0.0890 -1.8413
 2212TIP3   OH228126   2.587   0.580  12.846 -0.2018 -0.5603  0.4543
 2212TIP3    H128127   2.678   0.605  12.833 -0.3185 -0.3791 -0.0212
 2212TIP3    H228128   2.537   0.661  12.833 -0.5781 -1.0115 -1.0405
 2213TIP3   OH228129   4.625   2.378   2.212 -0.0126 -0.0624  0.4415
 2213TIP3    H128130   4.638   2.450   2.150  0.8927 -1.4939 -1.0556
 2213TIP3    H228131   4.572   2.417   2.282  0.2220  1.9828 -0.4715
 2214TIP3   OH228132   0.867   4.495   2.589 -0.6083 -0.1191 -0.7785
 2214TIP3    H128133   0.898   4.464   2.504  0.0519  1.4047 -1.1204
 2214TIP3    H228134   0.944   4.536   2.629 -0.2862 -2.8553  1.5778
 2215TIP3   OH228135   2.167   4.974  12.543 -0.0546 -0.2447 -0.4287
 2215TIP3    H128136   2.086   4.932  12.514  0.1129 -1.2255  0.4698
 2215TIP3    H228137   2.142   5.064  12.562 -1.2385 -0.8630  1.0543
 2216TIP3   OH228138   6.745   6.047  16.194  0.5700 -0.0152  0.0049
 2216TIP3    H128139   6.701   6.021  16.275 -0.0665 -0.6662 -0.5453
 2216TIP3    H228140   6.725   5.977  16.132  0.8122  0.6200 -0.8022
 2217TIP3   OH228141   1.541   0.700   1.009 -0.5966  0.9079 -0.0610
 2217TIP3    H128142   1.553   0.795   1.002 -2.4723  1.3339  1.9833
 2217TIP3    H228143   1.539   0.683   1.103 -1.5713 -0.9820 -0.4109
 2218TIP3   OH228144   6.625   5.416   1.307 -0.0988 -0.7571 -0.0547
 2218TIP3    H128145   6.691   5.485   1.296 -1.1094  0.0120 -1.4946
 2218TIP3    H228146   6.593   5.427   1.396  1.2375 -0.7189  0.4355
 2219TIP3   OH228147   1.673   1.128   1.917  0.5635  0.1173 -0.5268
 2219TIP3    H128148   1.752   1.182   1.925  0.1352  0.8958 -1.3919
 2219TIP3    H228149   1.606   1.189   1.886 -0.3925 -0.5269  0.2309
 2220TIP3   OH228150   3.287   1.532  16.390  0.0965 -0.3158  1.2070
 2220TIP3    H128151   3.281   1.439  16.368  0.4390 -0.4059  1.5005
 2220TIP3    H228152   3.213   1.547  16.449 -0.9635 -0.0236 -0.1574
 2221TIP3   OH228153   0.110   3.537  16.305 -0.4150 -0.1888 -0.0050
 2221TIP3    H128154   0.170   3.612  16.306 -0.0648 -0.4642 -0.2897
 2221TIP3    H228155   0.098   3.518  16.212  1.8345 -2.3582  0.0882
 2222TIP3   OH228156   5.585   3.228   0.777 -0.0826 -0.0471 -0.5121
 2222TIP3    H128157   5.614   3.225   0.869 -0.7770 -2.1374 -0.3297
 2222TIP3    H228158   5.590   3.321   0.754  0.2112  0.5088  1.6048
 2223TIP3   OH228159   5.096   2.143   2.021 -0.0526  0.1086 -0.4164
 2223TIP3    H128160   5.155   2.215   1.999  0.7493 -0.0505  1.1349
 2223TIP3    H228161   5.142   2.094   2.090 -2.2818  0.4077  1.3630
 2224TIP3   OH228162   2.287   3.206  15.073  0.3257  0.2168  0.3610
 2224TIP3    H128163   2.246   3.272  15.128 -0.2406  0.2545 -0.0944
 2224TIP3    H228164   2.280   3.125  15.124 -1.4396 -0.0264 -0.2055
 2225TIP3   OH228165   6.257   4.500  13.314 -0.5782 -0.2920 -0.2598
 2225TIP3    H128166   6.352   4.509  13.319 -0.4922 -1.7067  0.7994
 2225TIP3    H228167   6.225   4.538  13.396 -0.7688 -1.8056  0.3816
 2226TIP3   OH228168   1.307   5.275   5.033  0.6735  0.3257 -0.2334
 2226TIP3    H128169   1.361   5.290   4.955 -0.5905 -0.7771 -1.3369
 2226TIP3    H228170   1.338   5.190   5.067  0.0159 -0.0439 -0.5554
 2227TIP3   OH228171   3.025   5.269  11.006  0.3273 -0.4984  0.1469
 2227TIP3    H128172   2.973   5.321  10.945 -0.1926 -2.1585 -0.8640
 2227TIP3    H228173   2.997   5.179  10.990  1.7835 -1.1726  1.3017
 2228TIP3   OH228174   1.706   1.012  14.624 -0.1322 -0.1089 -0.5651
 2228TIP3    H128175   1.791   1.055  14.634 -0.3035  0.0001  0.4743
 2228TIP3    H228176   1.704   0.984  14.533  0.9307  0.0886 -0.6568
 2229TIP3   OH228177   3.810   0.271  11.872 -0.2198  0.2866  0.1723
 2229TIP3    H128178   3.777   0.259  11.783  0.8902 -0.6054 -0.1388
 2229TIP3    H228179   3.773   0.198  11.922 -0.6729  0.6679  0.4025
 2230TIP3   OH228180   5.884   6.161   5.257  0.4240  0.8239  0.6245
 2230TIP3    H128181   5.863   6.212   5.179 -0.1340  0.7787  0.7412
 2230TIP3    H228182   5.800   6.152   5.303  0.3950 -0.6752  0.3214
 2231TIP3   OH228183   4.457   0.423  15.346  0.2975 -0.2881  0.2795
 2231TIP3    H128184   4.496   0.420  15.258 -0.6230 -0.1484 -0.1417
 2231TIP3    H228185   4.451   0.517  15.366  0.7754 -0.3295  0.6110
 2232TIP3   OH228186   5.960   5.798   6.322 -0.2893  0.4167 -0.3672
 2232TIP3    H128187   6.050   5.805   6.352 -0.1928  1.2208 -0.8421
 2232TIP3    H228188   5.908   5.787   6.402 -0.1438  3.4672  0.1866
 2233TIP3   OH228189   2.103   6.295   2.142  0.5522  0.3419 -0.2001
 2233TIP3    H128190   2.107   6.329   2.053  2.8320  1.9062  0.4714
 2233TIP3    H228191   2.067   6.366   2.194  0.5634 -0.0673  0.3743
 2234TIP3   OH228192   0.931   4.172  16.726  0.2474  0.0096  0.2503
 2234TIP3    H128193   0.928   4.080  16.698 -0.2811  0.1446 -0.1401
 2234TIP3    H228194   0.968   4.219  16.651 -2.3983  0.5614 -0.7410
 2235TIP3   OH228195   0.478   3.892   5.629  0.0362  0.3760 -0.2608
 2235TIP3    H128196   0.556   3.919   5.677 -0.3296 -0.4277  0.7986
 2235TIP3    H228197   0.410   3.955   5.655 -0.9934 -1.8783  2.7190
 2236TIP3   OH228198   5.491   3.472  15.311 -0.3361 -0.2579  0.0345
 2236TIP3    H128199   5.574   3.496  15.270 -1.2263  1.4898 -0.7970
 2236TIP3    H228200   5.436   3.441  15.239 -1.8395  2.6386 -0.1519
 2237TIP3   OH228201   2.412   5.801  15.563 -0.2442 -0.1239  0.0633
 2237TIP3    H128202   2.459   5.800  15.647 -0.0530 -1.6451 -0.0399
 2237TIP3    H228203   2.350   5.873  15.571  2.3473  2.2348  0.0601
 2238TIP3   OH228204   6.001   5.233   2.529  0.1577  0.3323  0.6452
 2238TIP3    H128205   5.911   5.207   2.511  0.5223 -1.4977  1.4516
 2238TIP3    H228206   6.016   5.306   2.468 -1.8724  0.7126  0.5438
 2239TIP3   OH228207   4.226   1.225  13.034  0.3012  0.2296 -0.3414
 2239TIP3    H128208   4.192   1.303  13.077 -1.4485 -0.9406  0.4718
 2239TIP3    H228209   4.277   1.180  13.101 -0.6130 -0.4791 -0.1040
 2240TIP3   OH228210   4.173   1.839  11.710  0.1629  0.6061 -0.3481
 2240TIP3    H128211   4.174   1.779  11.785  0.5157  1.8477  0.6736
 2240TIP3    H228212   4.105   1.903  11.732 -1.5747 -0.5317 -2.3438
 2241TIP3   OH228213   1.834   0.470   2.447 -0.4325 -0.4045  0.0167
 2241TIP3    H128214   1.752   0.508   2.416 -0.8132  0.5905  2.1820
 2241TIP3    H228215   1.815   0.440   2.536  1.4656 -0.4826  0.4251
 2242TIP3   OH228216   3.427   2.464   4.329 -0.2571 -0.2936 -0.3075
 2242TIP3    H128217   3.338   2.498   4.314 -0.4289 -0.9333 -0.7418
 2242TIP3    H228218   3.484   2.539   4.313 -0.6236 -0.2502 -1.4611
 2243TIP3   OH228219   4.173   4.900   0.573 -0.0401  0.1189 -0.1333
 2243TIP3    H128220   4.088   4.883   0.532  0.0226  2.3024 -1.2388
 2243TIP3    H228221   4.158   4.978   0.626  0.8108 -0.5991  1.2030
 2244TIP3   OH228222   3.055   1.948   3.215  0.0640 -0.4384  0.3913
 2244TIP3    H128223   3.000   1.884   3.169 -2.0542  0.1012  2.0572
 2244TIP3    H228224   3.099   1.996   3.145 -0.7646 -1.6164 -0.9779
 2245TIP3   OH228225   2.723   6.759   3.188 -0.8223  0.0866  0.8791
 2245TIP3    H128226   2.757   6.809   3.262  1.3747 -1.3027  0.8642
 2245TIP3    H228227   2.676   6.685   3.228 -1.0179  0.2149  0.8881
 2246TIP3   OH228228   5.208   6.001  14.294  0.7948 -0.5343 -0.0001
 2246TIP3    H128229   5.267   5.977  14.365  0.7494  0.6672  0.4545
 2246TIP3    H228230   5.134   6.044  14.338  1.5239  1.6897 -0.8934
 2247TIP3   OH228231   0.408   1.058  16.448 -0.0753 -0.3046  0.1680
 2247TIP3    H128232   0.411   1.141  16.401 -1.3017  0.9220  2.1839
 2247TIP3    H228233   0.317   1.028  16.438 -0.2626 -0.2014  1.4087
 2248TIP3   OH228234   5.948   4.869  15.698 -0.2796 -0.6647 -0.3425
 2248TIP3    H128235   6.024   4.849  15.753  0.7734  1.5859 -0.9098
 2248TIP3    H228236   5.876   4.821  15.739  0.8309 -0.4388  1.9963
 2249TIP3   OH228237   3.854   4.453   2.264  0.2770 -0.2573  0.2082
 2249TIP3    H128238   3.781   4.514   2.277  1.9861  1.2742  3.1831
 2249TIP3    H228239   3.880   4.428   2.353  2.8346 -1.4477 -0.8290
 2250TIP3   OH228240   5.888   4.148  12.755  0.8413 -0.2687 -0.0945
 2250TIP3    H128241   5.820   4.214  12.768  1.6338  0.4944  0.1422
 2250TIP3    H228242   5.966   4.185  12.796  1.2456 -1.4196  0.1960
 2251TIP3   OH228243   3.901   6.105   4.422  0.0999 -0.0213 -0.1178
 2251TIP3    H128244   3.853   6.037   4.374  1.2589 -1.8185  1.1978
 2251TIP3    H228245   3.833   6.159   4.462 -0.8327 -0.7928 -0.6509
 2252TIP3   OH228246   3.102   5.950   1.612  0.5159  0.6421  0.0659
 2252TIP3    H128247   3.156   6.003   1.671 -0.1367  1.0318  0.3142
 2252TIP3    H228248   3.158   5.937   1.535  0.6974  1.6607  0.0161
 2253TIP3   OH228249   5.463   1.926  15.671  0.5067 -0.1458  0.2284
 2253TIP3    H128250   5.478   1.919  15.577 -0.4989 -3.8239  0.2833
 2253TIP3    H228251   5.545   1.897  15.711  0.4916  0.1630  0.4858
 2254TIP3   OH228252   1.909   1.780   0.269  0.2459 -0.0599 -0.2501
 2254TIP3    H128253   1.915   1.858   0.325  4.2433 -0.4600 -0.0077
 2254TIP3    H228254   1.890   1.815   0.182  0.0839  1.0196  0.2090
 2255TIP3   OH228255   6.444   5.569   2.224  0.2555 -0.3867  0.4094
 2255TIP3    H128256   6.388   5.518   2.282 -1.3927  0.6640 -0.2327
 2255TIP3    H228257   6.401   5.564   2.138  1.3763  0.0557 -0.1890
 2256TIP3   OH228258   4.255   5.190  10.536  0.3971  0.1421  0.1296
 2256TIP3    H128259   4.198   5.261  10.504 -0.7544 -0.8740 -0.1000
 2256TIP3    H228260   4.201   5.142  10.599  0.5297 -1.6479 -1.0841
 2257TIP3   OH228261   6.500   2.748  15.594 -0.5197 -0.3377 -0.2368
 2257TIP3    H128262   6.470   2.837  15.578 -0.0207 -0.1115  0.0478
 2257TIP3    H228263   6.541   2.721  15.512  0.0944  0.0151 -0.0526
 2258TIP3   OH228264   0.192   6.254  15.818  0.0846  0.0345  0.1463
 2258TIP3    H128265   0.100   6.231  15.804  0.0071 -0.3193  1.1945
 2258TIP3    H228266   0.202   6.257  15.913  1.4255 -0.9975  0.0584
 2259TIP3   OH228267   2.883   4.588  12.731  0.2481  0.2748 -0.3912
 2259TIP3    H128268   2.896   4.529  12.657  0.8004  0.2947 -0.3081
 2259TIP3    H228269   2.835   4.536  12.795 -0.2052  0.2471 -0.7472
 2260TIP3   OH228270   6.396   5.229   0.304 -0.5856  0.1881  0.6363
 2260TIP3    H128271   6.469   5.241   0.243  0.3154 -2.2172  1.1725
 2260TIP3    H228272   6.427   5.162   0.365 -2.8940 -0.1800  1.4564
 2261TIP3   OH228273   4.103   1.426   3.467 -0.0099 -0.8684 -0.0487
 2261TIP3    H128274   4.113   1.399   3.559  2.1293  0.6900  0.2084
 2261TIP3    H228275   4.030   1.488   3.469  2.9369  2.7519  1.4673
 2262TIP3   OH228276   1.489   4.763   5.526  0.8805 -0.3149 -0.0882
 2262TIP3    H128277   1.550   4.796   5.461  1.5583  0.0293  0.7226
 2262TIP3    H228278   1.415   4.731   5.474  0.7101  1.4021 -0.9484
 2263TIP3   OH228279   4.437   1.325  12.490  0.4048  0.2648  0.1426
 2263TIP3    H128280   4.426   1.357  12.400 -2.2314 -3.4386 -0.9479
 2263TIP3    H228281   4.531   1.311  12.499  0.9839  2.8448 -1.1907
 2264TIP3   OH228282   1.507   6.005  14.058 -0.2431 -0.5639  0.2375
 2264TIP3    H128283   1.477   5.971  13.974  0.9628  2.6719 -1.6061
 2264TIP3    H228284   1.597   6.035  14.041  0.4512 -0.9326  3.0110
 2265TIP3   OH228285   0.559   1.005   4.344 -0.1886 -0.6006  0.1896
 2265TIP3    H128286   0.564   1.004   4.248  0.7247 -1.3813  0.2361
 2265TIP3    H228287   0.580   0.915   4.370 -0.9730 -0.5302  1.1052
 2266TIP3   OH228288   4.603   1.910   3.800  0.7017 -0.0847 -0.4114
 2266TIP3    H128289   4.606   1.845   3.870 -2.7320 -0.4300 -0.5210
 2266TIP3    H228290   4.580   1.992   3.844  2.3054  0.5250 -0.6581
 2267TIP3   OH228291   4.636   5.750  13.969  0.2071 -0.1881  0.0799
 2267TIP3    H128292   4.612   5.711  13.884 -0.6154 -1.1257  0.7393
 2267TIP3    H228293   4.562   5.805  13.992  0.6365  0.4352 -0.0280
 2268TIP3   OH228294   1.329   5.591   1.647  0.2275 -0.0009 -0.3519
 2268TIP3    H128295   1.376   5.573   1.565  1.9234  0.0726  0.5729
 2268TIP3    H228296   1.284   5.674   1.631  0.5106 -0.0073 -1.2282
 2269TIP3   OH228297   2.869   1.905   4.395  0.4033 -0.0477  0.0925
 2269TIP3    H128298   2.805   1.863   4.453 -1.4397  1.8935 -0.4784
 2269TIP3    H228299   2.818   1.929   4.318  1.1563  4.2103  0.8310
 2270TIP3   OH228300   4.457   1.684  13.146 -0.1126 -0.1601  0.4871
 2270TIP3    H128301   4.552   1.691  13.155 -0.2238  0.9094  0.8316
 2270TIP3    H228302   4.438   1.593  13.168  0.9749 -0.7296 -0.8705
 2271TIP3   OH228303   6.164   5.322   5.457 -0.3146 -0.3118  0.1237
 2271TIP3    H128304   6.206   5.278   5.383 -1.2252 -0.1977 -0.4757
 2271TIP3    H228305   6.077   5.347   5.424  0.0210  1.5434  0.5905
 2272TIP3   OH228306   3.432   5.738   5.787 -0.0313  0.1160  0.3161
 2272TIP3    H128307   3.463   5.787   5.711  1.1156 -1.2090 -0.0897
 2272TIP3    H228308   3.419   5.649   5.755  0.1660 -0.3885  1.6063
 2273TIP3   OH228309   1.977   3.022  15.429  0.0988  0.2739 -0.2185
 2273TIP3    H128310   2.026   2.941  15.442 -0.4321 -0.1024 -0.5040
 2273TIP3    H228311   1.892   2.993  15.395 -0.3030  0.9170  0.2266
 2274TIP3   OH228312   4.650   1.243  12.156 -0.6017  0.0759  0.0823
 2274TIP3    H128313   4.558   1.217  12.153 -1.0101  1.1251  2.1638
 2274TIP3    H228314   4.681   1.211  12.241  1.3165 -1.3458 -1.0969
 2275TIP3   OH228315   6.325   3.046   0.524  0.1357  0.3472 -0.6056
 2275TIP3    H128316   6.358   3.131   0.494 -0.3047  0.4384 -0.8324
 2275TIP3    H228317   6.402   2.989   0.523  0.7505  1.1032  0.9410
 2276TIP3   OH228318   2.144   1.676   1.480  0.5841  0.0603 -0.5851
 2276TIP3    H128319   2.050   1.684   1.492  0.7541  0.6063  0.4374
 2276TIP3    H228320   2.155   1.601   1.421 -0.4720 -0.1662 -0.4934
 2277TIP3   OH228321   6.292   2.582   2.037 -0.2830 -0.0455  0.0699
 2277TIP3    H128322   6.289   2.579   1.942  1.9573 -1.3646 -0.0025
 2277TIP3    H228323   6.256   2.498   2.065 -2.8901  1.1587  0.5003
 2278TIP3   OH228324   5.837   3.779   1.127  0.1412 -0.2283 -0.3236
 2278TIP3    H128325   5.805   3.692   1.150 -0.5302  0.1490  0.1943
 2278TIP3    H228326   5.813   3.834   1.202 -1.5923  0.9151 -1.6670
 2279TIP3   OH228327   1.638   0.335  15.646 -0.0805  0.0499  0.2687
 2279TIP3    H128328   1.608   0.425  15.651  0.8445  0.4569 -1.2704
 2279TIP3    H228329   1.565   0.283  15.680 -0.7268  1.3483  0.8659
 2280TIP3   OH228330   2.733   0.435  12.274  0.1607  0.2804 -0.6875
 2280TIP3    H128331   2.758   0.344  12.286 -0.5728  0.3001  1.1495
 2280TIP3    H228332   2.708   0.441  12.181  0.0984 -1.4034 -0.7907
 2281TIP3   OH228333   2.710   4.417  12.913 -0.2963 -0.4294 -0.1700
 2281TIP3    H128334   2.746   4.340  12.956  1.0768  0.3324  0.0996
 2281TIP3    H228335   2.624   4.430  12.952  0.8986  0.2241  2.3191
 2282TIP3   OH228336   0.222   2.950   1.668 -0.1557  0.8924 -0.2604
 2282TIP3    H128337   0.198   2.859   1.651 -0.1817  0.8459  0.0242
 2282TIP3    H228338   0.203   2.963   1.761 -1.5525  1.6139 -0.6366
 2283TIP3   OH228339   4.225   4.587   1.310 -0.7818 -0.4135 -0.6231
 2283TIP3    H128340   4.278   4.632   1.244 -1.2107  0.4701 -0.3642
 2283TIP3    H228341   4.267   4.608   1.393  0.8861 -3.0735 -0.7402
 2284TIP3   OH228342   2.982   4.139   0.029 -0.4869 -0.3178  0.2469
 2284TIP3    H128343   2.892   4.117   0.005 -0.7559  0.0812  0.8604
 2284TIP3    H228344   2.985   4.127   0.124  0.3143 -1.0363  0.1327
 2285TIP3   OH228345   6.046   2.090  15.338  0.6413 -0.6876 -0.0496
 2285TIP3    H128346   5.978   2.097  15.271  2.7260  0.4315 -2.1152
 2285TIP3    H228347   6.093   2.010  15.317  1.2988 -0.3353  0.0437
 2286TIP3   OH228348   6.580   3.708  11.662  0.1979 -0.4024 -0.5403
 2286TIP3    H128349   6.618   3.661  11.736 -0.4571  0.7235  0.5392
 2286TIP3    H228350   6.563   3.641  11.596  1.3408 -1.3291  0.1016
 2287TIP3   OH228351   5.153   4.002  13.423 -0.1244  0.5058 -0.3472
 2287TIP3    H128352   5.131   3.922  13.375  1.1676  0.2384 -0.5208
 2287TIP3    H228353   5.241   4.024  13.394 -0.2842  1.7323  0.0616
 2288TIP3   OH228354   4.135   4.155  10.821  0.0362  0.4575 -0.0684
 2288TIP3    H128355   4.216   4.167  10.772 -1.3590 -0.6848 -2.7504
 2288TIP3    H228356   4.072   4.124  10.756 -1.6105 -2.1869  2.6853
 2289TIP3   OH228357   1.190   5.129  12.954 -0.4470  0.4007 -0.0262
 2289TIP3    H128358   1.190   5.200  13.017 -0.0040  1.2119 -0.9261
 2289TIP3    H228359   1.240   5.163  12.880 -0.9248 -0.5473 -0.7947
 2290TIP3   OH228360   1.910   5.646  15.798  0.3708 -0.1395 -0.4003
 2290TIP3    H128361   1.924   5.611  15.886 -2.2254 -1.7625 -0.5909
 2290TIP3    H228362   1.954   5.584  15.741 -1.0418 -1.0830 -0.4795
 2291TIP3   OH228363   6.669   3.599   2.080  0.0958  0.0041  0.6329
 2291TIP3    H128364   6.635   3.624   1.994  0.5759  0.6904  0.6368
 2291TIP3    H228365   6.596   3.555   2.123 -0.5465  0.7936  0.3527
 2292TIP3   OH228366   2.392   0.391  13.799 -0.0849  0.0107  0.0889
 2292TIP3    H128367   2.446   0.353  13.868 -1.5661  1.3837  2.0413
 2292TIP3    H228368   2.429   0.478  13.784  1.3866 -0.9465 -2.2146
 2293TIP3   OH228369   3.435   2.154  16.017  0.6921  0.0778 -0.2127
 2293TIP3    H128370   3.379   2.199  15.954 -0.7349  2.1961  2.4674
 2293TIP3    H228371   3.403   2.182  16.103  2.2903 -3.0505  1.5153
 2294TIP3   OH228372   0.904   4.027  15.428 -0.3378 -0.4192 -0.2157
 2294TIP3    H128373   0.896   3.964  15.356 -0.3702 -1.9123  1.0689
 2294TIP3    H228374   0.954   4.100  15.391 -2.0656 -0.2677 -2.3196
 2295TIP3   OH228375   2.979   5.581  14.261 -0.3823 -0.7537 -0.3011
 2295TIP3    H128376   2.900   5.629  14.237 -0.7873 -0.6545  1.1648
 2295TIP3    H228377   3.049   5.648  14.260 -0.5846 -0.5409 -0.1607
 2296TIP3   OH228378   4.293   4.074  14.807 -0.5692  0.6373  0.4447
 2296TIP3    H128379   4.348   4.110  14.877 -1.0261  1.8771  0.1622
 2296TIP3    H228380   4.317   4.123  14.729 -0.8626  0.0137 -0.0473
 2297TIP3   OH228381   2.813   4.665  13.566 -0.2677 -0.1147  0.4302
 2297TIP3    H128382   2.892   4.613  13.553  0.5051  1.2466 -0.5799
 2297TIP3    H228383   2.789   4.651  13.657  1.4552 -0.1331  0.9042
 2298TIP3   OH228384   2.443   1.965  14.975 -0.4329  0.6419 -0.5461
 2298TIP3    H128385   2.375   2.031  14.961 -0.4097  0.8113  0.1500
 2298TIP3    H228386   2.474   1.944  14.887  0.3120  2.3353 -0.6870
 2299TIP3   OH228387   0.225   5.021  10.351  0.1264 -0.2575 -0.3197
 2299TIP3    H128388   0.190   5.103  10.388  0.0849  0.1563 -1.2679
 2299TIP3    H228389   0.260   4.974  10.427  3.4782  2.2503 -0.1826
 2300TIP3   OH228390   5.274   1.053  14.911 -0.6538  0.3534 -0.1357
 2300TIP3    H128391   5.273   1.077  15.004  1.0851 -0.5183  0.1221
 2300TIP3    H228392   5.281   1.136  14.865 -4.4032  1.0215  0.3789
 2301TIP3   OH228393   6.367   2.048  14.653  0.4136 -0.3482 -0.0535
 2301TIP3    H128394   6.334   1.964  14.686  0.0831  0.2445  1.1615
 2301TIP3    H228395   6.372   2.037  14.558  0.0079 -1.6140  0.0681
 2302TIP3   OH228396   0.566   1.268  15.987 -0.6135  0.1479  0.5141
 2302TIP3    H128397   0.524   1.199  16.038  1.4586 -1.1881  0.4750
 2302TIP3    H228398   0.623   1.313  16.049 -1.5053  1.4634  0.3976
 2303TIP3   OH228399   3.633   5.794  14.831  0.5283  0.5564  0.8341
 2303TIP3    H128400   3.648   5.703  14.856  0.6395  0.2265 -0.4187
 2303TIP3    H228401   3.540   5.809  14.849  0.6816  0.4197  1.7410
 2304TIP3   OH228402   4.390   5.088  11.257 -0.1196 -0.2164 -0.3139
 2304TIP3    H128403   4.363   5.016  11.315 -0.1292 -0.0277 -0.0825
 2304TIP3    H228404   4.309   5.118  11.218 -0.3478  0.8198  0.9240
 2305TIP3   OH228405   3.869   6.395   4.611 -0.5034 -0.3493 -0.2230
 2305TIP3    H128406   3.922   6.327   4.652  0.4421  1.6471  1.9845
 2305TIP3    H228407   3.927   6.470   4.603 -1.7891  0.5274 -1.7385
 2306TIP3   OH228408   1.063   4.072   5.320 -0.6142 -0.0755  0.1227
 2306TIP3    H128409   1.062   4.123   5.401  0.7049 -1.3832  0.9916
 2306TIP3    H228410   1.034   3.985   5.347  2.3929 -1.2620 -0.2531
 2307TIP3   OH228411   2.517   0.028   0.398 -0.6913 -0.1452 -0.6773
 2307TIP3    H128412   2.445   0.029   0.461 -1.0694  0.6091 -1.1100
 2307TIP3    H228413   2.493   0.094   0.333  0.6439  0.4762 -0.5548
 2308TIP3   OH228414   3.789   2.542   4.560  0.4824 -0.0485 -0.0313
 2308TIP3    H128415   3.710   2.596   4.562  1.6348  1.6619  0.1721
 2308TIP3    H228416   3.781   2.491   4.479 -1.2226 -0.5400  0.4214
 2309TIP3   OH228417   4.158   3.378   4.157  0.7417  0.2090  0.4560
 2309TIP3    H128418   4.171   3.420   4.242 -0.8504 -1.9745  1.8322
 2309TIP3    H228419   4.089   3.429   4.115  1.6151  1.3620  0.4137
 2310TIP3   OH228420   4.145   5.318   4.934  0.5314  0.5145 -0.0541
 2310TIP3    H128421   4.108   5.358   5.012 -0.3459 -1.3387  0.5083
 2310TIP3    H228422   4.123   5.378   4.862 -1.8798  0.3779  0.5660
 2311TIP3   OH228423   4.578   5.066   2.065  0.5471 -0.3684 -0.5463
 2311TIP3    H128424   4.530   5.034   2.141  1.5981 -0.9049 -0.0946
 2311TIP3    H228425   4.666   5.084   2.099  0.4451  1.3751 -1.1741
 2312TIP3   OH228426   4.497   3.853   4.445 -0.2823 -0.6713  0.1023
 2312TIP3    H128427   4.463   3.901   4.520  0.8399 -1.1135  0.9037
 2312TIP3    H228428   4.555   3.915   4.400  0.2092 -0.8834  0.4433
 2313TIP3   OH228429   2.595   4.115   0.645 -0.5845 -0.7171  0.0699
 2313TIP3    H128430   2.566   4.048   0.583  0.0429 -0.5374 -0.4311
 2313TIP3    H228431   2.572   4.198   0.604 -2.1291 -0.6335  1.0827
 2314TIP3   OH228432   1.274   1.763   1.705  0.0234 -0.0605 -0.2165
 2314TIP3    H128433   1.353   1.812   1.682  0.7221 -0.7673  0.6563
 2314TIP3    H228434   1.204   1.828   1.701  0.4088  0.2675 -2.4100
 2315TIP3   OH228435   6.425   4.764  11.725  0.1198  0.1100 -0.5139
 2315TIP3    H128436   6.344   4.773  11.674 -0.4819 -2.5541 -0.1157
 2315TIP3    H228437   6.411   4.820  11.801 -0.7601  0.7747 -1.1553
 2316TIP3   OH228438   5.364   3.429   5.645  0.2914 -0.0271  0.0663
 2316TIP3    H128439   5.355   3.450   5.552 -1.4148 -0.3976  0.1363
 2316TIP3    H228440   5.448   3.467   5.670  2.2402 -2.5317 -2.3391
 2317TIP3   OH228441   0.444   3.811   3.193  0.1251  0.4093 -0.3199
 2317TIP3    H128442   0.444   3.742   3.127 -1.6103  0.0416  0.0434
 2317TIP3    H228443   0.469   3.766   3.274 -2.5994 -0.1738  0.2521
 2318TIP3   OH228444   0.151   2.470   0.028  0.3101  0.0427  0.0869
 2318TIP3    H128445   0.070   2.493   0.073 -0.6326  0.5554 -1.8048
 2318TIP3    H228446   0.200   2.417   0.091 -2.4499 -2.0911  0.5202
 2319TIP3   OH228447   4.641   5.493  15.734  0.1298 -0.2233 -0.0893
 2319TIP3    H128448   4.631   5.472  15.827 -1.6670  1.7542  0.2165
 2319TIP3    H228449   4.734   5.485  15.717  0.8511  1.8348  2.5285
 2320TIP3   OH228450   0.874   3.281   5.428 -0.0339  0.3490  0.6134
 2320TIP3    H128451   0.944   3.317   5.482  1.3869  0.6456 -1.3821
 2320TIP3    H228452   0.859   3.346   5.360 -1.4522 -0.2355  0.3304
 2321TIP3   OH228453   0.971   3.521   0.372 -0.2535  0.4382 -0.1409
 2321TIP3    H128454   1.006   3.551   0.289 -1.5886  2.6802  0.0330
 2321TIP3    H228455   1.047   3.515   0.430  0.7473 -1.6749 -1.6478
 2322TIP3   OH228456   1.798   4.949  11.359  0.4383  0.1986  0.0688
 2322TIP3    H128457   1.761   4.877  11.411 -1.7911 -0.0969 -1.8645
 2322TIP3    H228458   1.730   5.016  11.359  1.1682  0.9492 -0.9290
 2323TIP3   OH228459   6.237   1.827  14.754 -0.7891 -0.4665  0.2825
 2323TIP3    H128460   6.307   1.787  14.703 -1.1219 -0.6684 -0.0101
 2323TIP3    H228461   6.273   1.833  14.843 -0.9364 -1.9220  0.4549
 2324TIP3   OH228462   0.381   4.337   1.729  0.1365  0.0925  0.0102
 2324TIP3    H128463   0.451   4.369   1.672 -0.9575  0.9095 -0.8971
 2324TIP3    H228464   0.396   4.380   1.813  0.9369 -0.0275 -0.0702
 2325TIP3   OH228465   5.271   2.363  12.930 -0.3533 -0.4069  0.5925
 2325TIP3    H128466   5.305   2.310  13.003  2.0256  1.9725  1.2886
 2325TIP3    H228467   5.206   2.307  12.888  0.7537 -3.1690  2.4230
 2326TIP3   OH228468   4.443   2.042   3.510  0.3567  0.5362 -0.8442
 2326TIP3    H128469   4.406   2.027   3.597  2.1615 -1.1451 -0.3432
 2326TIP3    H228470   4.366   2.058   3.454 -0.7972  1.8518  1.0652
 2327TIP3   OH228471   0.328   6.647   2.254 -0.0370 -0.1172  0.6298
 2327TIP3    H128472   0.277   6.588   2.198  1.1940 -1.9942  1.4271
 2327TIP3    H228473   0.288   6.639   2.341  1.0941 -0.9776  1.0796
 2328TIP3   OH228474   5.522   4.556  13.780  0.0255  0.1004 -0.4547
 2328TIP3    H128475   5.451   4.607  13.819  0.5934  0.5612 -0.0159
 2328TIP3    H228476   5.558   4.506  13.854  0.3194  0.0572 -0.6291
 2329TIP3   OH228477   2.906   1.164   3.255 -0.2485 -0.1726  0.6984
 2329TIP3    H128478   2.890   1.080   3.298  2.1694 -1.1951 -0.3146
 2329TIP3    H228479   2.878   1.151   3.164  1.3231 -0.2987  0.2247
 2330TIP3   OH228480   0.073   1.287   0.549 -0.0130  0.1915  0.1887
 2330TIP3    H128481   0.132   1.360   0.531  0.0874 -0.1214 -0.8088
 2330TIP3    H228482   0.032   1.308   0.633 -0.0910  1.4481 -0.1670
 2331TIP3   OH228483   3.627   4.874  11.669 -0.0806 -0.6801 -0.3421
 2331TIP3    H128484   3.687   4.933  11.715  1.3635 -2.2022 -0.2507
 2331TIP3    H228485   3.557   4.932  11.638  0.8903  0.9640  0.4304
 2332TIP3   OH228486   1.742   3.486   1.431 -0.1999  0.5105 -0.4362
 2332TIP3    H128487   1.764   3.393   1.425 -0.3773  0.4942 -0.8170
 2332TIP3    H228488   1.671   3.498   1.369  0.7970  1.2107 -1.4451
 2333TIP3   OH228489   2.026   2.131  13.687 -0.1390  0.0585 -0.2743
 2333TIP3    H128490   2.093   2.124  13.755  0.6340 -0.6803 -1.0851
 2333TIP3    H228491   2.036   2.220  13.653  0.4545 -0.0527 -0.4011
 2334TIP3   OH228492   1.429   1.246   4.737 -0.3206  0.4662 -0.0315
 2334TIP3    H128493   1.486   1.179   4.699 -1.0005  0.7804 -1.6271
 2334TIP3    H228494   1.473   1.271   4.819  2.3292  1.3496 -1.6719
 2335TIP3   OH228495   6.288   4.128  15.306  0.1210  0.0150 -0.6209
 2335TIP3    H128496   6.282   4.036  15.331  0.6891  0.4372  1.1405
 2335TIP3    H228497   6.368   4.133  15.254 -0.5893 -0.7100 -1.8026
 2336TIP3   OH228498   6.718   4.735  15.757  0.3371  0.1587  0.7859
 2336TIP3    H128499   6.635   4.687  15.756  0.8994 -0.8101 -0.4232
 2336TIP3    H228500   6.779   4.676  15.802  0.4580  0.7293  1.3758
 2337TIP3   OH228501   0.267   5.579   3.102 -0.6540 -0.0038  0.5560
 2337TIP3    H128502   0.343   5.522   3.090 -0.4571 -0.2927  2.8224
 2337TIP3    H228503   0.191   5.522   3.092 -0.5128 -0.1996  0.5980
 2338TIP3   OH228504   3.780   2.109  13.572 -0.5193 -0.7195 -0.1366
 2338TIP3    H128505   3.702   2.105  13.517  1.1553 -0.4890 -2.6265
 2338TIP3    H228506   3.805   2.202  13.572  2.5170 -1.4147 -3.5300
 2339TIP3   OH228507   0.874   4.927   0.724  0.2095  0.8044 -0.6645
 2339TIP3    H128508   0.936   4.882   0.667  0.0947 -1.0174  0.6279
 2339TIP3    H228509   0.925   4.951   0.801  0.0747  2.2273 -0.9876
 2340TIP3   OH228510   1.111   5.565   5.652  0.6344 -0.4255  0.2777
 2340TIP3    H128511   1.151   5.478   5.640  0.0633 -0.4198 -1.8684
 2340TIP3    H228512   1.186   5.624   5.660  1.0507 -0.8787 -0.1719
 2341TIP3   OH228513   3.963   0.588  13.683  0.3794 -0.0725 -0.1088
 2341TIP3    H128514   3.992   0.672  13.719 -0.6068 -0.0242  0.5760
 2341TIP3    H228515   3.982   0.524  13.752 -0.4133 -0.1630  0.0209
 2342TIP3   OH228516   4.129   2.799  15.537 -0.0370 -0.1575 -0.6949
 2342TIP3    H128517   4.080   2.717  15.541  0.7213 -0.6230 -0.8037
 2342TIP3    H228518   4.169   2.807  15.624  0.8075 -0.4876 -1.0445
 2343TIP3   OH228519   5.825   6.493  14.447  0.3873  0.5038  0.0537
 2343TIP3    H128520   5.913   6.530  14.455  0.4237  0.6578 -0.9304
 2343TIP3    H228521   5.810   6.488  14.352 -0.5098  0.1172  0.2106
 2344TIP3   OH228522   6.563   6.355  16.060  0.2093 -0.0583  0.4821
 2344TIP3    H128523   6.582   6.380  16.151  0.3997  0.0388  0.4155
 2344TIP3    H228524   6.599   6.426  16.007  1.1182 -0.6630  0.2764
 2345TIP3   OH228525   0.029   1.438   2.283  0.4967  0.9881  0.0612
 2345TIP3    H128526   0.109   1.428   2.335  0.8871  0.3628 -0.6354
 2345TIP3    H228527  -0.027   1.495   2.335  0.4304 -0.5292  1.6956
 2346TIP3   OH228528   5.216   1.890  14.716 -0.5606 -0.2747 -0.4241
 2346TIP3    H128529   5.308   1.870  14.732 -0.9008 -0.4216  1.5030
 2346TIP3    H228530   5.176   1.806  14.695 -0.5386 -0.4454  0.2178
 2347TIP3   OH228531   3.615   4.265  15.818 -0.2104  0.1349 -0.0925
 2347TIP3    H128532   3.655   4.316  15.748  1.6738  0.7104  1.3706
 2347TIP3    H228533   3.645   4.175  15.803  3.4731  0.8844  2.1850
 2348TIP3   OH228534   2.887   5.854   3.437 -1.1026  0.1165  0.1641
 2348TIP3    H128535   2.927   5.889   3.358  1.3366 -3.0163 -0.0761
 2348TIP3    H228536   2.794   5.845   3.415 -0.8466  1.4172 -1.5238
 2349TIP3   OH228537   6.216   6.112   3.587  0.1068  0.1349 -0.3735
 2349TIP3    H128538   6.151   6.049   3.557  1.7514 -1.3365 -0.9490
 2349TIP3    H228539   6.279   6.060   3.637 -0.8201  2.0217  2.8839
 2350TIP3   OH228540   3.030   2.204  11.880  0.1015 -0.2267 -0.2890
 2350TIP3    H128541   2.999   2.258  11.953 -0.7499  0.1368 -0.9139
 2350TIP3    H228542   2.953   2.153  11.853 -0.2028  1.3087 -2.4163
 2351TIP3   OH228543   2.159   4.520  12.029  0.2937 -0.0469 -0.2321
 2351TIP3    H128544   2.125   4.441  11.987  0.0973 -2.2357  3.8209
 2351TIP3    H228545   2.254   4.514  12.020  0.1654  0.7990 -2.4711
 2352TIP3   OH228546   4.367   0.166   2.264 -0.3143 -0.5544 -0.1230
 2352TIP3    H128547   4.312   0.151   2.341 -1.1697  0.8978 -0.4349
 2352TIP3    H228548   4.415   0.083   2.253  0.8651 -0.3302  2.7722
 2353TIP3   OH228549   5.024   4.990  16.054 -0.2985  0.3170 -0.0720
 2353TIP3    H128550   4.980   5.052  15.996 -1.4964 -1.8257 -1.4971
 2353TIP3    H228551   5.066   4.927  15.995  0.3201 -0.6357  1.3576
 2354TIP3   OH228552   1.331   1.314   1.706  0.0919  0.1143  0.0111
 2354TIP3    H128553   1.343   1.385   1.644  0.3334 -0.1491 -0.2456
 2354TIP3    H228554   1.399   1.327   1.771  0.0202  0.2235  0.0642
 2355TIP3   OH228555   0.535   6.041  15.453 -0.0905  0.1064  0.1126
 2355TIP3    H128556   0.470   5.975  15.426  1.7364 -1.9285  0.5591
 2355TIP3    H228557   0.500   6.075  15.536 -0.7587 -0.7300  0.1838
 2356TIP3   OH228558   3.222   4.023   3.420  0.0783  0.7344 -0.2377
 2356TIP3    H128559   3.276   4.096   3.450 -1.3667  1.5328  0.4878
 2356TIP3    H228560   3.236   3.955   3.485  0.6503  0.7253 -0.3657
 2357TIP3   OH228561   4.566   5.202  10.180  0.2741 -0.4595  0.1646
 2357TIP3    H128562   4.615   5.201  10.262  0.9828 -0.5254 -0.2466
 2357TIP3    H228563   4.625   5.246  10.118  1.1139 -3.2316 -1.1154
 2358TIP3   OH228564   3.960   1.245  14.949  0.3537 -0.5912  0.0754
 2358TIP3    H128565   3.963   1.215  15.040  0.0267  0.1144  0.3151
 2358TIP3    H228566   3.956   1.340  14.954 -0.0751 -0.5650 -0.6737
 2359TIP3   OH228567   2.592   3.004  16.049  0.3077  0.5305  0.1419
 2359TIP3    H128568   2.685   3.020  16.032  0.2767  1.0884  0.4670
 2359TIP3    H228569   2.559   3.088  16.080 -0.1296  0.1239  0.7972
 2360TIP3   OH228570   3.871   2.554   1.974  0.4562 -0.1672 -0.5246
 2360TIP3    H128571   3.797   2.532   1.918 -0.7844  3.4189 -0.4290
 2360TIP3    H228572   3.834   2.606   2.045  2.0963 -4.0725  3.4405
 2361TIP3   OH228573   5.099   3.771  12.688 -0.3948 -1.1649 -0.0403
 2361TIP3    H128574   5.005   3.765  12.676 -0.4462  0.1930 -0.4705
 2361TIP3    H228575   5.136   3.757  12.601 -0.5042  3.5954 -0.9781
 2362TIP3   OH228576   4.884   4.862  17.119 -0.0857  0.4014  0.6139
 2362TIP3    H128577   4.806   4.886  17.169  0.2913  2.3408  0.3228
 2362TIP3    H228578   4.957   4.891  17.174  0.4006 -0.2868  0.3304
 2363TIP3   OH228579   0.539   1.390   1.244  0.4006  0.4546  0.0521
 2363TIP3    H128580   0.497   1.351   1.167 -1.2452  1.4328  0.4182
 2363TIP3    H228581   0.624   1.421   1.212 -0.0438  0.3572 -1.2493
 2364TIP3   OH228582   2.365   0.856   6.033 -0.0133 -0.0287 -0.1798
 2364TIP3    H128583   2.400   0.912   5.963 -1.2711 -0.7944 -1.4463
 2364TIP3    H228584   2.351   0.916   6.106  1.3959  0.7740 -0.5585
 2365TIP3   OH228585   2.813   2.273   6.137  0.0649  0.4695 -0.0120
 2365TIP3    H128586   2.787   2.316   6.056  0.2571  0.2680 -0.1795
 2365TIP3    H228587   2.832   2.183   6.112 -0.0175  0.3700  0.2808
 2366TIP3   OH228588   6.629   4.214  12.244 -0.3292  0.0062  0.4280
 2366TIP3    H128589   6.717   4.209  12.280 -1.0126 -0.3586  2.0766
 2366TIP3    H228590   6.613   4.307  12.229 -0.0661  0.1614  1.1231
 2367TIP3   OH228591   4.929   6.722  11.483  0.0057  0.4099 -0.9934
 2367TIP3    H128592   4.994   6.661  11.517 -1.7381 -0.3649  1.1402
 2367TIP3    H228593   4.878   6.671  11.421  0.0639  0.3717 -1.0091
 2368TIP3   OH228594   6.740   3.288   3.012 -0.0801 -0.4025  0.1916
 2368TIP3    H128595   6.801   3.355   2.980 -0.2448 -1.4276 -2.3451
 2368TIP3    H228596   6.783   3.252   3.090  1.6021  0.2952 -0.3912
 2369TIP3   OH228597   5.051   5.065   4.798 -0.5837  0.3536 -0.4740
 2369TIP3    H128598   5.004   4.985   4.823  0.9755 -0.0705  1.2883
 2369TIP3    H228599   5.093   5.044   4.715  0.8929 -1.1516  0.6228
 2370TIP3   OH228600   6.042   3.817   2.767  0.2775 -0.4424 -0.1004
 2370TIP3    H128601   6.050   3.905   2.728  2.3398 -1.4941 -2.1747
 2370TIP3    H228602   5.953   3.789   2.744 -0.2827  0.9339  0.2881
 2371TIP3   OH228603   5.309   6.723  13.727 -0.2457 -0.2318 -0.7437
 2371TIP3    H128604   5.393   6.764  13.749 -1.0820  0.6142  0.9215
 2371TIP3    H228605   5.333   6.633  13.704  1.0043 -0.3065  0.7574
 2372TIP3   OH228606   5.418   1.391  13.442 -0.5580  0.3583 -0.0857
 2372TIP3    H128607   5.399   1.332  13.515 -3.3730  0.3442 -0.7613
 2372TIP3    H228608   5.356   1.365  13.374  2.0737  0.3075 -2.5731
 2373TIP3   OH228609   5.156   0.234  11.856 -0.3045 -0.8578 -0.3277
 2373TIP3    H128610   5.237   0.251  11.905 -0.1477 -2.1497 -0.1189
 2373TIP3    H228611   5.186   0.221  11.766 -0.2964 -1.1549 -0.2827
 2374TIP3   OH228612   1.425   4.765  13.289  0.5196 -0.2620  0.0581
 2374TIP3    H128613   1.446   4.858  13.291  0.2016 -0.1876 -0.0554
 2374TIP3    H228614   1.402   4.744  13.380 -1.0669  0.1548 -0.2408
 2375TIP3   OH228615   4.626   6.472  15.820  0.2292 -0.0926  0.1747
 2375TIP3    H128616   4.642   6.560  15.852  0.7804 -0.0775 -0.1385
 2375TIP3    H228617   4.631   6.479  15.725  1.3860 -0.6703  0.1864
 2376TIP3   OH228618   5.867   3.782  13.725  0.6288 -0.6201  0.0796
 2376TIP3    H128619   5.857   3.821  13.638  0.2050 -0.5780  0.1434
 2376TIP3    H228620   5.940   3.830  13.765  0.0673  0.1634  0.1814
 2377TIP3   OH228621   5.699   4.626   0.062  0.7108 -0.7721  0.2411
 2377TIP3    H128622   5.608   4.619   0.091 -0.3756  3.0856 -1.8252
 2377TIP3    H228623   5.698   4.596  -0.029  1.2636  0.2698 -0.1165
 2378TIP3   OH228624   5.106   6.440   1.940 -0.3181 -0.0591 -0.4162
 2378TIP3    H128625   5.083   6.425   2.032 -0.8033  2.6417 -0.0525
 2378TIP3    H228626   5.027   6.415   1.891 -0.8517  0.6345  0.0889
 2379TIP3   OH228627   0.165   5.051   5.425 -0.8963 -0.1941 -0.1895
 2379TIP3    H128628   0.152   5.083   5.514  0.2085  1.1722 -0.5022
 2379TIP3    H228629   0.079   5.060   5.384 -0.6369  2.4405 -0.2577
 2380TIP3   OH228630   3.749   0.448  15.125 -0.6705 -0.0086 -0.3927
 2380TIP3    H128631   3.759   0.526  15.180  0.6681 -0.0397 -0.5729
 2380TIP3    H228632   3.663   0.458  15.084 -1.2578  0.5003  0.9430
 2381TIP3   OH228633   5.422   4.432  11.890  0.3127  0.6043 -0.0729
 2381TIP3    H128634   5.330   4.417  11.870  0.2060  0.0746  0.7888
 2381TIP3    H228635   5.462   4.345  11.886  1.0024  0.9819 -1.5517
 2382TIP3   OH228636   1.313   6.802  12.573  0.1413  0.1051  0.4148
 2382TIP3    H128637   1.282   6.764  12.656 -0.5387 -1.3413 -0.4689
 2382TIP3    H228638   1.375   6.870  12.599 -0.8373  0.3732  2.1373
 2383TIP3   OH228639   5.424   1.186  17.268  0.0622 -0.4714 -0.0913
 2383TIP3    H128640   5.429   1.091  17.275 -0.3195 -0.5164 -0.4255
 2383TIP3    H228641   5.392   1.214  17.354 -1.8191 -0.8108 -0.6499
 2384TIP3   OH228642   1.120   3.308  13.528 -0.4342  0.1323 -0.1909
 2384TIP3    H128643   1.072   3.391  13.529  0.1694  0.4779  0.4528
 2384TIP3    H228644   1.182   3.316  13.601  2.4604  0.7792 -2.6357
 2385TIP3   OH228645   0.208   3.218   1.815 -0.1331 -0.4686 -0.0247
 2385TIP3    H128646   0.234   3.133   1.850 -0.5560 -0.2077  0.9307
 2385TIP3    H228647   0.222   3.280   1.887  2.9227  0.7827 -1.5828
 2386TIP3   OH228648   2.847   0.138   4.137  0.5784 -0.2953  0.3237
 2386TIP3    H128649   2.890   0.223   4.150  0.3375 -0.0326 -0.5396
 2386TIP3    H228650   2.874   0.086   4.212  0.4517  0.6620  1.0404
 2387TIP3   OH228651   5.994   5.536  15.059  0.0626  0.2774  0.1111
 2387TIP3    H128652   5.944   5.611  15.026 -1.0560 -0.3348  0.3607
 2387TIP3    H228653   5.973   5.465  14.998 -0.3349 -0.3065  0.9162
 2388TIP3   OH228654   4.317   6.326  17.013 -0.0165 -0.5181  0.0487
 2388TIP3    H128655   4.233   6.363  17.040 -0.1056  0.0871 -1.0225
 2388TIP3    H228656   4.317   6.335  16.918  0.1798 -2.8013 -0.1972
 2389TIP3   OH228657   5.119   3.070   0.317  0.1900 -0.4243  0.1119
 2389TIP3    H128658   5.063   2.999   0.349 -1.7357  0.5844 -0.8629
 2389TIP3    H228659   5.103   3.142   0.378 -0.5358  0.2540 -0.8488
 2390TIP3   OH228660   2.540   1.070   6.046 -0.4918  0.2070 -0.0671
 2390TIP3    H128661   2.629   1.039   6.062 -1.3251 -2.1005  0.3188
 2390TIP3    H228662   2.530   1.145   6.105  0.6909 -0.4569  0.9942
 2391TIP3   OH228663   6.244   1.502  12.696 -0.2592  0.5312 -0.7160
 2391TIP3    H128664   6.257   1.595  12.676  2.1865  0.2449 -0.5906
 2391TIP3    H228665   6.248   1.458  12.611  2.7899  0.1072 -0.3819
 2392TIP3   OH228666   5.050   0.341   4.885 -0.1494 -0.5578  0.3563
 2392TIP3    H128667   4.966   0.319   4.926 -0.5700  0.3363  0.0015
 2392TIP3    H228668   5.044   0.307   4.796 -0.6620  0.6547 -0.0817
 2393TIP3   OH228669   4.386   0.933  11.811 -0.6187 -0.4872  0.0509
 2393TIP3    H128670   4.452   0.921  11.879  0.4584 -1.2324 -1.1049
 2393TIP3    H228671   4.386   1.027  11.793 -0.0563 -0.4582  0.2157
 2394TIP3   OH228672   3.811   6.326   5.632 -0.3204  0.1697  0.5819
 2394TIP3    H128673   3.804   6.238   5.670 -2.8348  0.8387  1.7698
 2394TIP3    H228674   3.802   6.385   5.707 -1.8197  1.4730 -0.5988
 2395TIP3   OH228675   1.403   1.758  12.731 -0.1303 -0.4066 -0.1492
 2395TIP3    H128676   1.371   1.737  12.643 -0.0608 -0.5376 -0.1441
 2395TIP3    H228677   1.348   1.706  12.789 -1.4789  1.1769  0.0189
 2396TIP3   OH228678   0.093   0.262   4.863  0.1614  0.0110  0.2787
 2396TIP3    H128679   0.012   0.214   4.849 -0.0618  0.4783 -0.0359
 2396TIP3    H228680   0.160   0.209   4.820 -0.0389 -0.1660  0.1869
 2397TIP3   OH228681   5.239   3.146   1.481 -0.2002 -0.0749  0.3216
 2397TIP3    H128682   5.237   3.080   1.550  2.1339 -1.0413 -0.4951
 2397TIP3    H228683   5.187   3.219   1.515 -0.8045 -1.3694  2.2160
 2398TIP3   OH228684   4.158   5.594   6.148  0.3522 -0.1295  0.2656
 2398TIP3    H128685   4.139   5.687   6.134  2.5827  0.6613  2.2748
 2398TIP3    H228686   4.095   5.566   6.215  0.0120  0.0585  0.0245
 2399TIP3   OH228687   0.960   1.586   1.527 -0.2503 -0.1511  0.2199
 2399TIP3    H128688   1.052   1.609   1.529 -0.3749  0.2914  2.2095
 2399TIP3    H228689   0.914   1.669   1.512 -0.4882  0.3320  3.2498
 2400TIP3   OH228690   6.647   5.015   1.305 -0.0401  0.3303 -0.4613
 2400TIP3    H128691   6.730   5.009   1.353 -0.5810  1.7128  0.6901
 2400TIP3    H228692   6.643   4.935   1.253  2.3209  0.5309 -1.0119
 2401TIP3   OH228693   5.429   5.099  12.016 -0.5833  0.1171  0.2901
 2401TIP3    H128694   5.368   5.155  12.063  1.1326  2.2929  0.0448
 2401TIP3    H228695   5.459   5.036  12.081 -0.6586  1.0685  1.2573
 2402TIP3   OH228696   1.562   5.452  15.153 -0.4802  0.0558 -0.5874
 2402TIP3    H128697   1.572   5.547  15.162  0.9108  0.0071 -1.3614
 2402TIP3    H228698   1.542   5.421  15.241 -2.6769  1.2516 -0.6274
 2403TIP3   OH228699   5.204   5.767  11.345 -0.3239 -0.1101  0.4051
 2403TIP3    H128700   5.171   5.848  11.306  0.2008 -0.2744 -0.3788
 2403TIP3    H228701   5.207   5.786  11.439 -2.0203  0.1374  0.4416
 2404TIP3   OH228702   3.502   1.384   5.628 -0.3114 -0.2237  0.2088
 2404TIP3    H128703   3.484   1.368   5.721  0.9626  0.8238  0.6499
 2404TIP3    H228704   3.455   1.464   5.608 -0.6386 -0.4853 -0.0641
 2405TIP3   OH228705   0.016   3.723   4.685 -0.2820  0.2967 -0.3618
 2405TIP3    H128706  -0.051   3.756   4.624 -1.0715  0.9768  0.8380
 2405TIP3    H228707  -0.034   3.693   4.761  0.8369  2.0260  1.1041
 2406TIP3   OH228708   6.371   4.219  11.711  0.1945 -0.0425  0.5598
 2406TIP3    H128709   6.411   4.133  11.709 -2.1033 -1.2092  2.9340
 2406TIP3    H228710   6.397   4.259  11.627 -1.4752 -4.2809 -2.1112
 2407TIP3   OH228711   6.499   2.739   5.800 -0.1891  0.4518 -0.8046
 2407TIP3    H128712   6.577   2.700   5.840 -0.5738 -1.2197 -1.6504
 2407TIP3    H228713   6.472   2.807   5.862 -0.5099 -1.7835  1.5729
 2408TIP3   OH228714   2.709   6.597   3.465  0.2681  0.3299  0.1701
 2408TIP3    H128715   2.735   6.680   3.505  3.4087 -0.6624  0.3826
 2408TIP3    H228716   2.789   6.566   3.422 -1.2126 -1.9298 -1.0287
 2409TIP3   OH228717   2.905   5.593  13.499  0.0606 -0.5826 -0.4138
 2409TIP3    H128718   2.938   5.506  13.473  1.5286 -0.6504  1.5264
 2409TIP3    H228719   2.848   5.575  13.574  0.4140  0.1177  0.0292
 2410TIP3   OH228720   0.230   4.996   5.723  0.1467 -0.0952 -0.5011
 2410TIP3    H128721   0.293   5.018   5.792 -1.3387  1.3542  0.4361
 2410TIP3    H228722   0.249   4.905   5.702  0.9922 -0.4095  1.4585
 2411TIP3   OH228723   3.304   3.424   6.610  0.5501  0.2375 -0.2753
 2411TIP3    H128724   3.289   3.469   6.692  0.7372  1.6793 -1.0129
 2411TIP3    H228725   3.219   3.423   6.566  0.3862 -0.7851  0.0499
 2412TIP3   OH228726   3.911   1.901  14.431  0.8443 -0.5814  0.1871
 2412TIP3    H128727   3.986   1.854  14.466  1.2038 -0.9925 -1.1153
 2412TIP3    H228728   3.839   1.880  14.490  1.0147 -2.7280 -0.3329
 2413TIP3   OH228729   3.392   5.934   3.203  0.3701  0.2181 -0.6613
 2413TIP3    H128730   3.438   6.006   3.162  1.6765  0.6888  1.5665
 2413TIP3    H228731   3.460   5.882   3.246 -0.8944 -0.4547  0.5947
 2414TIP3   OH228732   3.167   6.232  10.967 -0.1188  0.3360 -0.4382
 2414TIP3    H128733   3.087   6.265  10.926 -1.8920 -1.4978  1.4304
 2414TIP3    H228734   3.205   6.173  10.902  0.0193  1.6557 -1.5572
 2415TIP3   OH228735   5.417   2.856  14.244  0.2561 -0.9361  0.0162
 2415TIP3    H128736   5.459   2.782  14.287  1.3098 -0.1633  0.3413
 2415TIP3    H228737   5.484   2.892  14.186 -0.2480 -0.2553 -0.1594
 2416TIP3   OH228738   3.710   2.027  15.179 -0.2892 -0.5084 -0.8292
 2416TIP3    H128739   3.750   1.943  15.200  0.8601 -0.0046 -0.9759
 2416TIP3    H228740   3.760   2.060  15.104  0.2210  0.9796  0.1454
 2417TIP3   OH228741   0.763   6.629   1.015 -0.0546  0.4232  0.8853
 2417TIP3    H128742   0.731   6.718   1.030 -2.4562 -0.4660  1.2794
 2417TIP3    H228743   0.705   6.574   1.067  1.5280 -1.3623  0.7992
 2418TIP3   OH228744   4.524   6.436  14.565  0.3199 -0.0509 -0.8377
 2418TIP3    H128745   4.514   6.494  14.640 -0.9510 -1.2767 -0.0358
 2418TIP3    H228746   4.442   6.446  14.516 -0.4492 -2.0925 -0.0109
 2419TIP3   OH228747   2.911   0.927   3.393 -0.3103  0.4080  0.3310
 2419TIP3    H128748   2.878   0.986   3.461 -0.7565  0.1119  0.3737
 2419TIP3    H228749   2.919   0.842   3.436 -3.0540 -0.3817 -0.6277
 2420TIP3   OH228750   2.852   0.505  15.922  0.1669  0.1977  0.1767
 2420TIP3    H128751   2.918   0.557  15.876  1.1513 -0.8102  0.4347
 2420TIP3    H228752   2.800   0.465  15.853 -1.5290  2.6821 -0.0219
 2421TIP3   OH228753   1.515   1.314  14.572  0.3110 -0.1316 -0.3470
 2421TIP3    H128754   1.466   1.396  14.560  1.3144  0.5059 -0.1799
 2421TIP3    H228755   1.518   1.275  14.484  1.0784  0.7413 -0.7239
 2422TIP3   OH228756   0.635   2.783  12.163  0.7121 -0.4732  0.5232
 2422TIP3    H128757   0.630   2.878  12.153 -0.4215 -0.5505  0.2816
 2422TIP3    H228758   0.723   2.767  12.198  1.1800  0.5924 -0.1510
 2423TIP3   OH228759   2.687   2.086   1.528 -0.7632  0.1552  0.2951
 2423TIP3    H128760   2.618   2.131   1.576  0.5884  0.7127  1.7587
 2423TIP3    H228761   2.750   2.155   1.506 -0.2121 -0.4975 -0.1836
 2424TIP3   OH228762   0.608   0.441  13.734  0.2813  0.4364 -0.1280
 2424TIP3    H128763   0.616   0.443  13.639 -0.6438  0.2353 -0.2169
 2424TIP3    H228764   0.529   0.390  13.751  0.0957  0.9889  0.7262
 2425TIP3   OH228765   2.579   1.058   4.323  0.4069 -0.2240 -0.1604
 2425TIP3    H128766   2.581   0.984   4.383 -0.9609 -1.2390 -1.3314
 2425TIP3    H228767   2.502   1.108   4.351 -1.4044 -1.7479 -2.2377
 2426TIP3   OH228768   5.828   0.864   4.528  0.6579 -0.4073  0.0521
 2426TIP3    H128769   5.893   0.841   4.595 -0.9125 -0.6126  1.5339
 2426TIP3    H228770   5.793   0.780   4.500 -0.0155 -0.2096  0.3103
 2427TIP3   OH228771   5.271   6.704  12.920  0.0996  0.3333 -0.4604
 2427TIP3    H128772   5.279   6.671  12.830  1.0531  0.8252 -0.5560
 2427TIP3    H228773   5.360   6.709  12.952 -0.2901 -0.7080  0.8550
 2428TIP3   OH228774   4.443   6.097   3.475  0.4136 -0.0495 -0.3661
 2428TIP3    H128775   4.480   6.051   3.400 -1.0501  0.8375 -1.6660
 2428TIP3    H228776   4.386   6.032   3.517 -0.4689  0.1083 -1.3099
 2429TIP3   OH228777   5.095   5.655   4.448 -0.5069  0.2424 -0.0516
 2429TIP3    H128778   5.069   5.570   4.482 -0.5340  0.6908  1.0591
 2429TIP3    H228779   5.045   5.718   4.500  1.5554  1.0553  1.0082
 2430TIP3   OH228780   1.293   4.178   1.401  0.5275 -0.1422  0.5627
 2430TIP3    H128781   1.330   4.194   1.314 -0.7811  0.9183  0.1870
 2430TIP3    H228782   1.366   4.193   1.461  1.0915  0.4710 -0.2645
 2431TIP3   OH228783   2.640   3.292   4.366  0.1704  0.7366 -0.0622
 2431TIP3    H128784   2.703   3.224   4.393 -0.4950  0.6137  1.2554
 2431TIP3    H228785   2.654   3.302   4.272  0.6866 -0.8195 -0.1669
 2432TIP3   OH228786   0.238   3.919   3.052 -0.0797 -0.1986 -0.5808
 2432TIP3    H128787   0.286   3.856   3.105 -0.5899 -2.8527 -3.1294
 2432TIP3    H228788   0.149   3.918   3.087  0.2080  0.0328  0.1598
 2433TIP3   OH228789   4.307   5.081   2.672  1.0222 -0.3812  0.2490
 2433TIP3    H128790   4.241   5.022   2.635  1.1804 -0.1017 -0.4969
 2433TIP3    H228791   4.269   5.112   2.753 -0.7609  1.5264 -1.2582
 2434TIP3   OH228792   1.206   6.353  14.523 -0.0616 -0.1123  0.2562
 2434TIP3    H128793   1.218   6.447  14.508  1.9337 -0.1253  1.6119
 2434TIP3    H228794   1.143   6.326  14.456  0.3303  1.9325 -0.9857
 2435TIP3   OH228795   6.699   3.887  12.426 -0.4780 -0.1000 -0.1611
 2435TIP3    H128796   6.787   3.882  12.388 -0.3882  2.7660 -0.4339
 2435TIP3    H228797   6.646   3.830  12.370  0.8551 -0.5505 -1.0044
 2436TIP3   OH228798   2.533   1.508   4.382 -0.4477  0.0995 -0.2196
 2436TIP3    H128799   2.585   1.584   4.358  0.3761 -0.4937 -0.3240
 2436TIP3    H228800   2.442   1.539   4.379 -0.0694  1.2902  0.5712
 2437TIP3   OH228801   3.728   2.796  13.200 -0.2922 -0.0447 -0.1011
 2437TIP3    H128802   3.808   2.823  13.154 -0.5431  0.1334 -0.4410
 2437TIP3    H228803   3.732   2.700  13.201  0.1607 -0.0200  0.3066
 2438TIP3   OH228804   0.098   1.417  14.438 -0.1994  0.4697  0.3431
 2438TIP3    H128805   0.047   1.343  14.470  0.7900  0.2285  1.3689
 2438TIP3    H228806   0.087   1.414  14.343 -1.3188 -0.1377  0.4866
 2439TIP3   OH228807   2.829   3.203  12.948  0.0884  0.5437 -0.3697
 2439TIP3    H128808   2.793   3.173  13.031 -0.0929 -0.4430 -0.7973
 2439TIP3    H228809   2.923   3.213  12.965  0.1890 -0.5007 -0.2837
 2440TIP3   OH228810   6.531   6.724   0.380  0.0120 -0.1612 -0.2850
 2440TIP3    H128811   6.561   6.799   0.432 -1.2277 -0.0471  0.2836
 2440TIP3    H228812   6.553   6.747   0.290 -0.3811  0.9159 -0.1196
 2441TIP3   OH228813   1.194   1.806   5.230  0.0905  0.2558 -0.3694
 2441TIP3    H128814   1.275   1.768   5.265  0.1465  1.0315  0.3395
 2441TIP3    H228815   1.214   1.822   5.137  0.0527 -1.4831 -0.7051
 2442TIP3   OH228816   4.265   6.640  17.046  0.1171 -0.1136 -0.2304
 2442TIP3    H128817   4.206   6.567  17.066  0.0414  0.0166  0.0237
 2442TIP3    H228818   4.268   6.643  16.950 -0.3236 -0.0950 -0.2476
 2443TIP3   OH228819   1.006   6.628   0.892  0.3816  0.1701 -0.1319
 2443TIP3    H128820   1.025   6.711   0.937  1.1604 -0.1450  0.1356
 2443TIP3    H228821   0.923   6.598   0.930  0.0400  0.8882 -0.3120
 2444TIP3   OH228822   3.123   2.341   1.194  0.2542  0.2378 -0.8186
 2444TIP3    H128823   3.210   2.378   1.211 -0.4304  1.0430  1.0566
 2444TIP3    H228824   3.071   2.366   1.271 -0.7899 -2.8857 -0.4591
 2445TIP3   OH228825   4.370   6.051   5.201  0.0992  0.8428 -0.2030
 2445TIP3    H128826   4.345   5.969   5.244 -1.4792  0.7765 -1.2294
 2445TIP3    H228827   4.411   6.103   5.271 -1.3101  0.2534  1.0904
 2446TIP3   OH228828   3.824   6.381   3.131 -0.2002  0.1163 -0.0670
 2446TIP3    H128829   3.880   6.329   3.074  1.4349 -0.5458  2.0658
 2446TIP3    H228830   3.772   6.317   3.180  0.6344  0.4936  1.3703
 2447TIP3   OH228831   4.438   3.620   4.338  0.1963  0.0586  0.0383
 2447TIP3    H128832   4.445   3.708   4.374 -1.8339  1.1825 -2.1793
 2447TIP3    H228833   4.520   3.606   4.290  0.7024  0.5703  0.7611
 2448TIP3   OH228834   0.645   1.779   5.388  0.0721 -0.4267 -0.0371
 2448TIP3    H128835   0.608   1.867   5.383 -0.4497 -0.4731  2.5784
 2448TIP3    H228836   0.738   1.793   5.407  0.5319 -0.4328 -2.0695
 2449TIP3   OH228837   5.103   2.997   2.709 -0.3235 -0.8093 -0.2498
 2449TIP3    H128838   5.025   3.052   2.722 -0.3782 -0.0936 -3.0581
 2449TIP3    H228839   5.069   2.917   2.668  0.3503 -0.6243 -1.1938
 2450TIP3   OH228840   6.341   0.722   0.399  0.1741  0.5539 -0.0430
 2450TIP3    H128841   6.402   0.766   0.340 -1.1640  2.9218  0.2741
 2450TIP3    H228842   6.387   0.717   0.483  1.0865 -0.4750 -0.5980
 2451TIP3   OH228843   4.036   2.699  16.801  0.0742 -0.1602  0.6257
 2451TIP3    H128844   4.095   2.752  16.746  1.0319 -0.3930  1.4134
 2451TIP3    H228845   4.095   2.652  16.860 -0.9384 -0.1248  1.6617
 2452TIP3   OH228846   0.163   2.208   2.923  1.0069 -0.1606 -0.1872
 2452TIP3    H128847   0.097   2.189   2.989  1.5049  2.0315  0.9977
 2452TIP3    H228848   0.112   2.231   2.845  0.4202 -3.0700 -0.7350
 2453TIP3   OH228849   5.927   4.193  16.250  0.0183 -0.3822  0.0094
 2453TIP3    H128850   5.950   4.170  16.340 -2.9871  0.3915  1.0464
 2453TIP3    H228851   5.960   4.282  16.238 -0.9252  0.0916  0.8848
 2454TIP3   OH228852   0.611   3.365   5.103 -0.1204 -0.3182  0.0621
 2454TIP3    H128853   0.662   3.367   5.022  1.5991  0.6056  1.1292
 2454TIP3    H228854   0.667   3.320   5.166 -0.2603  1.3955  1.4701
 2455TIP3   OH228855   4.571   4.923   4.880  0.0191 -0.5777  0.0307
 2455TIP3    H128856   4.483   4.887   4.881 -0.0461 -0.4091  0.8611
 2455TIP3    H228857   4.565   5.002   4.827 -0.0624 -1.2151 -0.9200
 2456TIP3   OH228858   6.523   5.065   0.500  0.2391 -0.5209  0.2257
 2456TIP3    H128859   6.463   5.050   0.574  2.0032 -0.9378  1.5970
 2456TIP3    H228860   6.610   5.054   0.537  1.2064  0.7375 -1.6035
 2457TIP3   OH228861   4.293   2.761   0.568  0.6046  0.3328 -0.0517
 2457TIP3    H128862   4.322   2.838   0.518  0.0657 -0.5012 -1.6807
 2457TIP3    H228863   4.205   2.743   0.534  0.1177 -0.1065  1.3919
 2458TIP3   OH228864   5.162   0.675  11.735 -0.0938 -0.2180 -0.4567
 2458TIP3    H128865   5.235   0.622  11.703  0.1164 -1.0929  1.4330
 2458TIP3    H228866   5.084   0.625  11.712 -0.0265 -0.0925 -0.9717
 2459TIP3   OH228867   0.009   1.167  17.255  0.0826  0.0163  0.4705
 2459TIP3    H128868   0.011   1.177  17.160 -0.9294  0.0049  0.4409
 2459TIP3    H228869   0.088   1.117  17.275  0.0449 -0.4213 -0.4200
 2460TIP3   OH228870   0.339   2.311   3.959  0.3248  0.4414 -0.3656
 2460TIP3    H128871   0.381   2.225   3.966 -0.5440  0.0171 -0.3387
 2460TIP3    H228872   0.293   2.308   3.875 -2.1745 -0.2248  0.9851
 2461TIP3   OH228873   4.105   5.371   2.508  0.0380 -0.2221  0.0405
 2461TIP3    H128874   4.194   5.380   2.474 -0.5084 -0.5926 -1.5323
 2461TIP3    H228875   4.099   5.436   2.578  0.7267  1.5990 -1.5478
 2462TIP3   OH228876   4.265   3.270   0.065 -0.0757  0.0619  0.0163
 2462TIP3    H128877   4.319   3.316   0.129 -0.9892  0.8341  0.2462
 2462TIP3    H228878   4.326   3.241  -0.002  0.7292  0.2488  0.6578
 2463TIP3   OH228879   5.804   0.592   3.663 -0.2936  0.3342 -0.4537
 2463TIP3    H128880   5.778   0.504   3.691  0.8621 -0.2044 -1.0450
 2463TIP3    H228881   5.745   0.651   3.712 -1.5831 -0.7809 -0.6223
 2464TIP3   OH228882   1.785   0.899   3.689  0.0781 -0.1286  0.3055
 2464TIP3    H128883   1.800   0.840   3.763 -0.6638 -0.1273  0.4601
 2464TIP3    H228884   1.811   0.985   3.722  1.3905 -0.3983  0.0023
 2465TIP3   OH228885   0.804   5.333  11.923  0.1584 -0.0545  0.0914
 2465TIP3    H128886   0.824   5.415  11.967  0.9161 -1.2172  1.9828
 2465TIP3    H228887   0.772   5.276  11.993 -0.6788 -1.2666 -1.2537
 2466TIP3   OH228888   1.617   0.321  16.755  0.3368  0.0312 -0.4709
 2466TIP3    H128889   1.563   0.348  16.829  0.0723  0.6133 -0.8739
 2466TIP3    H228890   1.707   0.338  16.783  0.1135  2.5054 -1.1792
 2467TIP3   OH228891   2.903   2.358   0.311  0.5439 -0.1269  0.5896
 2467TIP3    H128892   2.850   2.286   0.346  2.4798 -1.8942 -0.0197
 2467TIP3    H228893   2.874   2.366   0.220 -0.6165  0.8010  1.0208
 2468TIP3   OH228894   3.964   2.780  16.449  0.0285  0.0772 -0.0929
 2468TIP3    H128895   4.049   2.742  16.427 -0.8388 -0.8986 -1.9096
 2468TIP3    H228896   3.900   2.718  16.412 -1.4697  0.9864  0.9128
 2469TIP3   OH228897   2.385   0.574  15.348  0.1047 -0.6708  0.1658
 2469TIP3    H128898   2.310   0.517  15.361 -0.2893 -0.4627 -1.1331
 2469TIP3    H228899   2.457   0.515  15.325 -0.5371 -0.5968 -2.1641
 2470TIP3   OH228900   3.461   4.683  11.378  0.1862 -0.2511 -0.4555
 2470TIP3    H128901   3.389   4.720  11.429  0.5061 -1.8167  1.1757
 2470TIP3    H228902   3.427   4.675  11.289 -0.5443  2.0614 -0.4140
 2471TIP3   OH228903   4.126   4.539  11.153  0.1257  0.0273  0.5539
 2471TIP3    H128904   4.112   4.575  11.065  0.3252 -0.4948  0.3089
 2471TIP3    H228905   4.214   4.502  11.151 -0.4135 -1.3070  0.5067
 2472TIP3   OH228906   0.792   5.350   1.722  0.7128 -0.6346 -0.4166
 2472TIP3    H128907   0.767   5.316   1.808  2.6193  0.1247  0.4787
 2472TIP3    H228908   0.814   5.442   1.739  3.3106 -1.0601 -1.2555
 2473TIP3   OH228909   1.975   0.420   3.459  0.1310  0.1262 -0.3796
 2473TIP3    H128910   2.021   0.404   3.541  0.2750  0.4594 -0.3969
 2473TIP3    H228911   1.920   0.496   3.476  1.8317  1.5797 -1.2655
 2474TIP3   OH228912   2.804   5.168   4.492 -0.3985 -0.0108  0.1815
 2474TIP3    H128913   2.885   5.125   4.468 -0.9705 -0.4997 -0.8975
 2474TIP3    H228914   2.817   5.196   4.582  1.2901  0.6765 -0.2634
 2475TIP3   OH228915   1.272   5.791  11.240  0.0028 -0.0405  0.1058
 2475TIP3    H128916   1.301   5.769  11.152  1.3085 -0.8722  0.7322
 2475TIP3    H228917   1.202   5.729  11.259  0.3899 -0.5010  0.0261
 2476TIP3   OH228918   4.376   5.379  12.466 -0.7188 -0.3236  0.4100
 2476TIP3    H128919   4.385   5.358  12.373  2.0468  1.5235  0.2221
 2476TIP3    H228920   4.456   5.345  12.506  0.3185  3.0204  1.3150
 2477TIP3   OH228921   0.338   1.213   0.732  0.5877 -0.4611  0.2630
 2477TIP3    H128922   0.431   1.214   0.708  0.8850  0.3017  1.3914
 2477TIP3    H228923   0.295   1.168   0.660  1.6537  0.3539 -0.8960
 2478TIP3   OH228924   1.427   0.464   1.386 -0.1910 -0.2088 -0.2195
 2478TIP3    H128925   1.346   0.413   1.390 -0.4834 -0.1161 -3.4877
 2478TIP3    H228926   1.481   0.427   1.455 -2.2764 -1.6014  0.7422
 2479TIP3   OH228927   1.580   3.663  14.606  0.1249  0.2541  0.6359
 2479TIP3    H128928   1.500   3.716  14.610  0.0344  0.1528  0.2044
 2479TIP3    H228929   1.578   3.611  14.687 -0.2541  0.2363  0.6171
 2480TIP3   OH228930   1.514   0.497  11.634  0.2025 -0.0498  0.3390
 2480TIP3    H128931   1.457   0.456  11.570 -0.6582 -0.3213  1.2775
 2480TIP3    H228932   1.547   0.425  11.687 -1.3616  0.4613  2.0314
 2481TIP3   OH228933   0.004   4.759   3.647  0.2001 -0.5643 -0.0394
 2481TIP3    H128934  -0.092   4.752   3.649  0.0269  0.9676 -2.0728
 2481TIP3    H228935   0.031   4.691   3.585  0.4919 -1.3936  0.9828
 2482TIP3   OH228936   1.008   1.156   1.416  0.5283  0.1796 -0.5222
 2482TIP3    H128937   1.049   1.175   1.500 -0.0710  1.7905 -0.5922
 2482TIP3    H228938   1.008   1.239   1.370 -0.2717 -0.4351 -1.6367
 2483TIP3   OH228939   2.260   0.216   4.374 -0.5455 -0.4635 -0.3373
 2483TIP3    H128940   2.256   0.148   4.441  2.4353  0.8331  1.2607
 2483TIP3    H228941   2.246   0.298   4.423  1.1201  0.4533 -1.3699
 2484TIP3   OH228942   6.022   2.736  15.906  0.1193  0.2442 -0.5862
 2484TIP3    H128943   5.994   2.676  15.837 -0.8416  2.0183 -1.7708
 2484TIP3    H228944   6.036   2.680  15.982 -2.1280 -1.2973 -1.2629
 2485TIP3   OH228945   0.773   0.982  12.229 -0.2633  0.0764  0.0028
 2485TIP3    H128946   0.801   0.957  12.317  0.6941 -0.3096 -0.4101
 2485TIP3    H228947   0.723   0.907  12.197  1.3788 -0.7425 -0.6770
 2486TIP3   OH228948   6.516   6.349   2.436 -0.3435  0.3111 -0.4265
 2486TIP3    H128949   6.528   6.360   2.341  1.4632 -0.2326 -0.2738
 2486TIP3    H228950   6.594   6.387   2.475 -1.2458  0.8719  0.8927
 2487TIP3   OH228951   5.588   2.512   2.248 -0.8118  0.7609 -0.5691
 2487TIP3    H128952   5.609   2.578   2.314  2.2444 -0.7034  0.0153
 2487TIP3    H228953   5.641   2.536   2.172 -0.4318 -0.4547 -0.6972
 2488TIP3   OH228954   0.115   3.972  13.289  0.2213  1.3430  0.3032
 2488TIP3    H128955   0.115   3.982  13.384 -0.2107 -1.3303  0.6206
 2488TIP3    H228956   0.023   3.978  13.264  0.3682  2.4236 -0.0080
 2489TIP3   OH228957   2.266   2.674   1.751  0.2405 -0.1684 -0.1132
 2489TIP3    H128958   2.236   2.747   1.697  0.3050  0.3925  0.6140
 2489TIP3    H228959   2.188   2.646   1.799  0.5697  0.4023  0.7484
 2490TIP3   OH228960   4.886   3.982  15.737  0.1945  0.2891 -0.8628
 2490TIP3    H128961   4.900   3.935  15.819 -0.6739  2.3636  0.5358
 2490TIP3    H228962   4.858   3.915  15.675 -0.0660 -1.1685  0.7963
 2491TIP3   OH228963   5.057   3.063  13.997 -0.1016 -0.1414  0.1597
 2491TIP3    H128964   5.021   3.067  13.908  1.1877  0.5613 -0.3336
 2491TIP3    H228965   5.149   3.086  13.987  0.2186 -0.7461  1.5883
 2492TIP3   OH228966   6.339   1.210   5.238 -0.4128 -0.2313 -0.5595
 2492TIP3    H128967   6.338   1.121   5.201  1.2644 -0.0931 -0.9569
 2492TIP3    H228968   6.294   1.201   5.323  0.6547 -1.6673 -0.1339
 2493TIP3   OH228969   4.837   0.887  11.597  0.5901  0.5262 -0.6507
 2493TIP3    H128970   4.785   0.853  11.524 -0.5150  2.6217 -0.8811
 2493TIP3    H228971   4.868   0.809  11.643 -1.2873 -0.7874 -1.5433
 2494TIP3   OH228972   4.873   1.007  16.646  0.1321  0.2756 -0.2363
 2494TIP3    H128973   4.912   1.037  16.728  0.1146 -0.8042  0.1855
 2494TIP3    H228974   4.796   1.062  16.633 -0.6598 -0.4639  1.2134
 2495TIP3   OH228975   4.483   6.255  14.137  0.6304 -0.9232 -0.0942
 2495TIP3    H128976   4.511   6.339  14.101 -0.7500 -0.7067 -0.6934
 2495TIP3    H228977   4.404   6.233  14.087  0.1591 -1.8695  1.0583
 2496TIP3   OH228978   3.037   2.148   4.438 -0.3228 -0.4283 -0.3641
 2496TIP3    H128979   2.964   2.089   4.420 -0.6851  0.1001 -0.6428
 2496TIP3    H228980   3.114   2.091   4.436 -0.6853 -0.9252 -0.4472
 2497TIP3   OH228981   4.340   4.332  14.163  0.6273 -0.0806 -0.1142
 2497TIP3    H128982   4.299   4.291  14.239 -1.6030  0.5395 -0.9310
 2497TIP3    H228983   4.366   4.419  14.193 -2.8901  1.2956 -0.7341
 2498TIP3   OH228984   4.874   1.169  12.302 -0.2388  0.2155 -0.0967
 2498TIP3    H128985   4.966   1.185  12.324 -0.6898  1.7683  0.7397
 2498TIP3    H228986   4.871   1.174  12.206  0.4143  0.9404 -0.0826
 2499TIP3   OH228987   1.055   1.345   0.026 -0.0709  0.0054 -0.8740
 2499TIP3    H128988   1.128   1.400  -0.002  0.3242  0.1961  0.4973
 2499TIP3    H228989   1.016   1.392   0.100 -1.7921  0.0699 -1.7952
 2500TIP3   OH228990   1.432   2.672  14.901 -0.2113  0.4163  0.1504
 2500TIP3    H128991   1.336   2.672  14.902 -0.2680  1.3361 -1.9551
 2500TIP3    H228992   1.455   2.740  14.838  1.8562  0.8761  1.3411
 2501TIP3   OH228993   2.992   5.380  17.013  0.5452 -0.5349 -0.1177
 2501TIP3    H128994   2.915   5.322  17.016  0.8290 -0.8782  0.5484
 2501TIP3    H228995   2.957   5.463  16.982 -0.1713 -0.5826  0.5229
 2502TIP3   OH228996   0.427   2.140   0.774  0.0586  0.0739  0.2989
 2502TIP3    H128997   0.353   2.084   0.795 -1.4798  1.9997  0.2041
 2502TIP3    H228998   0.451   2.180   0.858  1.9119 -1.5866  0.5910
 2503TIP3   OH228999   1.585   1.638   5.098 -0.0336  0.6072  0.7957
 2503TIP3    H129000   1.602   1.730   5.080 -0.2603  0.8076  1.5739
 2503TIP3    H229001   1.668   1.594   5.079 -0.2808  0.7858 -0.7650
 2504TIP3   OH229002   2.590   5.287  13.170  0.0609  0.2273 -0.3654
 2504TIP3    H129003   2.524   5.343  13.130  0.4770 -0.4876 -2.0737
 2504TIP3    H229004   2.557   5.272  13.259 -2.2096 -0.3054 -1.2522
 2505TIP3   OH229005   0.512   0.731  15.394 -0.3873 -0.6587 -0.0273
 2505TIP3    H129006   0.586   0.715  15.337  0.2043  2.4454 -0.2363
 2505TIP3    H229007   0.547   0.784  15.466 -1.9816 -0.8488  0.9390
 2506TIP3   OH229008   5.436   3.572  13.305 -0.4229 -0.5362  0.2350
 2506TIP3    H129009   5.442   3.649  13.362 -1.9501  0.2368 -0.6349
 2506TIP3    H229010   5.500   3.589  13.236 -1.9101  0.7324 -0.8545
 2507TIP3   OH229011   4.118   4.654  14.018  0.6784  0.5532  0.8016
 2507TIP3    H129012   4.210   4.626  14.016  0.5429  0.1752 -0.1242
 2507TIP3    H229013   4.080   4.617  13.939 -0.2420  0.8415  1.1080
 2508TIP3   OH229014   5.704   3.046   5.753 -0.8540  0.7821  0.3605
 2508TIP3    H129015   5.687   3.139   5.768 -0.4229  0.6157  1.9168
 2508TIP3    H229016   5.774   3.024   5.814 -0.9934 -0.5952  0.0428
 2509TIP3   OH229017   5.838   6.607   6.046  0.5746  0.0746 -0.2087
 2509TIP3    H129018   5.762   6.578   5.995  1.5211 -2.0029 -0.4908
 2509TIP3    H229019   5.810   6.690   6.085 -1.6101 -0.3332 -0.8070
 2510TIP3   OH229020   1.212   0.378  15.689  0.7259 -0.1967  0.2885
 2510TIP3    H129021   1.264   0.336  15.621  0.7894 -1.6121  1.1735
 2510TIP3    H229022   1.175   0.305  15.739 -0.8977  0.7915  0.5876
 2511TIP3   OH229023   4.697   0.069   5.801  0.4834 -0.4038  0.5498
 2511TIP3    H129024   4.778   0.019   5.792  1.7208  1.0512  2.8572
 2511TIP3    H229025   4.672   0.057   5.893 -0.7611  0.8633  0.3965
 2512TIP3   OH229026   3.551   6.119   2.794  0.7387 -0.1384 -0.4186
 2512TIP3    H129027   3.534   6.194   2.852 -0.4794 -1.1553  0.5827
 2512TIP3    H229028   3.469   6.069   2.795  1.0391 -0.7019 -2.2576
 2513TIP3   OH229029   4.483   5.372   5.548  0.2140 -0.5478  0.8893
 2513TIP3    H129030   4.445   5.457   5.529  1.7500  0.4267  2.0683
 2513TIP3    H229031   4.553   5.390   5.610  1.0418 -2.5830  0.5955
 2514TIP3   OH229032   0.844   3.456   2.830  0.7006  0.3861  0.3605
 2514TIP3    H129033   0.896   3.378   2.845  0.4167  0.0993 -0.1182
 2514TIP3    H229034   0.907   3.520   2.796  0.8922  0.3022  0.5542
 2515TIP3   OH229035   5.171   5.598  16.140  0.0770  0.2289 -0.2774
 2515TIP3    H129036   5.217   5.616  16.222  1.5162 -0.9114 -0.8041
 2515TIP3    H229037   5.132   5.682  16.116  0.0358  0.6888  1.3159
 2516TIP3   OH229038   1.411   6.186   3.579  0.4079  0.2829  0.1451
 2516TIP3    H129039   1.476   6.243   3.537 -0.7471  1.1845 -0.4597
 2516TIP3    H229040   1.343   6.176   3.513 -1.0223  1.0008  1.4914
 2517TIP3   OH229041   3.427   3.404  11.966  0.1014 -0.3239 -0.5483
 2517TIP3    H129042   3.522   3.401  11.974 -0.0660  0.0964  2.0085
 2517TIP3    H229043   3.404   3.494  11.989 -0.8372 -0.0522 -2.4248
 2518TIP3   OH229044   1.019   2.508  12.421 -0.5592  0.4165  0.4668
 2518TIP3    H129045   1.003   2.547  12.507 -0.9096  0.9087  0.1875
 2518TIP3    H229046   1.113   2.513  12.409 -0.5911  1.0971  0.4769
 2519TIP3   OH229047   6.703   1.464   6.708  0.3933 -0.3553  0.2871
 2519TIP3    H129048   6.636   1.476   6.641  2.1223 -1.6848 -1.7509
 2519TIP3    H229049   6.734   1.552   6.727 -1.9042  0.2852  1.2780
 2520TIP3   OH229050   1.428   0.396   6.202 -0.5875 -0.1354 -0.6521
 2520TIP3    H129051   1.400   0.307   6.181 -0.7481 -0.0737 -0.7042
 2520TIP3    H229052   1.515   0.404   6.164 -0.6909 -0.1735 -0.8989
 2521TIP3   OH229053   4.099   1.089  11.455  0.3123  0.3823 -0.1865
 2521TIP3    H129054   4.189   1.113  11.431  1.1155 -0.7939  1.5866
 2521TIP3    H229055   4.109   1.015  11.515 -1.8317  0.5845  0.4471
 2522TIP3   OH229056   1.976   0.949   0.164 -0.2491 -0.1897  0.1366
 2522TIP3    H129057   2.047   0.889   0.141  0.9437  0.8113  1.1636
 2522TIP3    H229058   1.979   1.017   0.096  0.3276  0.3054  0.6523
 2523TIP3   OH229059   3.571   4.139   2.719  0.1016 -0.4866 -0.2304
 2523TIP3    H129060   3.519   4.182   2.651  0.6864 -0.8208 -0.8931
 2523TIP3    H229061   3.506   4.101   2.778 -0.4365  1.9725  0.8188
 2524TIP3   OH229062   0.533   0.703   0.955 -0.4501 -0.1968 -0.0923
 2524TIP3    H129063   0.561   0.662   1.037 -0.9942  0.7837  0.5932
 2524TIP3    H229064   0.542   0.634   0.889  0.1223 -0.9486  0.7711
 2525TIP3   OH229065   0.056   3.038   4.080  0.2476  0.4218  0.2153
 2525TIP3    H129066   0.054   3.057   3.987 -0.2582  1.2358  0.3915
 2525TIP3    H229067  -0.009   2.968   4.091  1.2746 -0.6067 -0.2482
 2526TIP3   OH229068   6.122   4.794  13.294 -0.1310  0.5758 -0.0713
 2526TIP3    H129069   6.053   4.816  13.356  0.0189 -1.8587  1.0000
 2526TIP3    H229070   6.191   4.755  13.347  0.7834  0.1412 -1.5303
 2527TIP3   OH229071   0.154   4.691   5.230  0.4491  0.3928  0.4901
 2527TIP3    H129072   0.106   4.627   5.178  1.2963 -1.3795  1.8393
 2527TIP3    H229073   0.140   4.664   5.321 -0.2218  2.8760  1.1830
 2528TIP3   OH229074   6.351   3.084   5.712  0.3096  0.0697  0.2646
 2528TIP3    H129075   6.288   3.070   5.641  2.4691 -1.6141 -1.4152
 2528TIP3    H229076   6.307   3.052   5.790 -2.2650  2.2729 -0.1927
 2529TIP3   OH229077   2.051   4.694   1.273  0.1201 -0.7051  0.1535
 2529TIP3    H129078   2.016   4.642   1.345  2.0898 -0.4355  1.3503
 2529TIP3    H229079   2.113   4.636   1.229 -0.6921 -0.6960 -1.0012
 2530TIP3   OH229080   4.965   2.742   3.992 -0.0151  0.6188 -0.3001
 2530TIP3    H129081   4.941   2.834   3.981 -1.6706  0.3796  0.9787
 2530TIP3    H229082   4.884   2.701   4.023  0.9792 -1.0736  0.0866
 2531TIP3   OH229083   3.571   2.165  16.492 -0.6497 -0.1344 -0.5010
 2531TIP3    H129084   3.636   2.142  16.425 -2.3986 -0.3710 -2.1305
 2531TIP3    H229085   3.599   2.252  16.523  0.8059 -0.5065 -0.7195
 2532TIP3   OH229086   5.232   1.202   4.521 -0.0572 -0.2614  0.0489
 2532TIP3    H129087   5.221   1.107   4.510  0.8173 -0.4753  0.9527
 2532TIP3    H229088   5.160   1.240   4.471  0.4031 -1.3634 -1.4835
 2533TIP3   OH229089   5.382   4.926  17.262  0.2252 -0.0749 -0.1551
 2533TIP3    H129090   5.390   4.890  17.350 -0.5791 -1.0138 -0.4635
 2533TIP3    H229091   5.297   4.970  17.260  0.7168  0.9047 -0.1313
 2534TIP3   OH229092   4.845   3.835  10.940 -0.3710  0.5107 -0.3462
 2534TIP3    H129093   4.872   3.845  10.849 -0.5744 -1.6545 -0.6703
 2534TIP3    H229094   4.794   3.914  10.959  1.7879  2.1682 -1.3089
 2535TIP3   OH229095   0.342   0.269   3.424  0.2260 -0.7121  0.0959
 2535TIP3    H129096   0.278   0.300   3.488  0.6276  0.9099 -0.2506
 2535TIP3    H229097   0.322   0.319   3.345  2.3773  0.4149  0.2105
 2536TIP3   OH229098   0.526   4.179   4.156  0.4952 -0.2643 -0.3556
 2536TIP3    H129099   0.604   4.163   4.208 -0.4571 -0.1472  1.1316
 2536TIP3    H229100   0.531   4.272   4.133  1.2635 -0.4750 -1.0866
 2537TIP3   OH229101   2.486   0.349   4.950  0.3354 -0.2425  0.3293
 2537TIP3    H129102   2.497   0.364   5.044  1.4242 -0.8474  0.3022
 2537TIP3    H229103   2.535   0.269   4.933  1.3350  0.6420 -1.0267
 2538TIP3   OH229104   1.313   5.417   4.551 -0.8179  0.3947 -0.1472
 2538TIP3    H129105   1.255   5.460   4.614 -1.2554  0.0951 -0.3485
 2538TIP3    H229106   1.279   5.328   4.543 -0.8186  0.4610 -0.8812
 2539TIP3   OH229107   5.394   0.675   5.163  0.4036 -0.0691 -0.1409
 2539TIP3    H129108   5.429   0.639   5.244  1.2726 -0.7005 -0.7848
 2539TIP3    H229109   5.302   0.648   5.162  0.7848 -1.3875 -0.1169
 2540TIP3   OH229110   0.841   3.414  13.619 -0.0354  0.3151  0.0338
 2540TIP3    H129111   0.799   3.362  13.688  2.3278  0.0018  1.2906
 2540TIP3    H229112   0.812   3.504  13.636 -0.5554  0.0358  0.6179
 2541TIP3   OH229113   3.361   3.527  11.546 -0.3866 -0.2985  0.3356
 2541TIP3    H129114   3.368   3.504  11.454 -0.0579 -1.3531  0.6196
 2541TIP3    H229115   3.269   3.550  11.558 -0.6601 -1.1725 -0.0293
 2542TIP3   OH229116   1.497   5.601  17.014 -0.0617  0.5713  0.5512
 2542TIP3    H129117   1.542   5.660  16.954 -3.5227  1.5591 -1.2088
 2542TIP3    H229118   1.456   5.659  17.079 -0.9365 -0.0989  0.6067
 2543TIP3   OH229119   0.967   1.130  15.351  0.0384  0.4164  0.0576
 2543TIP3    H129120   0.996   1.069  15.282 -1.0046 -1.0902  0.9151
 2543TIP3    H229121   1.030   1.119  15.421  0.0361  0.5791  0.0850
 2544TIP3   OH229122   3.409   4.159   4.985 -0.3512 -0.3790  0.1513
 2544TIP3    H129123   3.473   4.190   4.921 -0.1996 -0.2595  0.3587
 2544TIP3    H229124   3.372   4.081   4.946 -1.0496  0.3107 -0.5717
 2545TIP3   OH229125   6.196   1.903   0.077  1.0574  0.0835  0.1430
 2545TIP3    H129126   6.134   1.975   0.091  0.4138 -0.7825  1.9812
 2545TIP3    H229127   6.260   1.937   0.016 -0.6778  1.3593 -1.0010
 2546TIP3   OH229128   4.601   2.798  16.727 -0.0437 -0.4231  0.0679
 2546TIP3    H129129   4.574   2.775  16.638 -0.5391 -1.2748  0.4245
 2546TIP3    H229130   4.537   2.754  16.783 -0.5272  1.1898  0.8116
 2547TIP3   OH229131   4.892   4.013  14.206  0.6377 -0.2019 -0.1061
 2547TIP3    H129132   4.965   3.957  14.179 -0.8374 -1.6277 -1.2758
 2547TIP3    H229133   4.914   4.100  14.171  1.4777 -0.7638 -1.0180
 2548TIP3   OH229134   2.886   3.788   1.239 -0.2780 -0.6343  0.0878
 2548TIP3    H129135   2.947   3.745   1.298  0.3592  0.0832 -0.0337
 2548TIP3    H229136   2.848   3.859   1.291  2.4240  1.8297 -1.1703
 2549TIP3   OH229137   4.287   4.662   3.952  0.0099  0.1178  0.3833
 2549TIP3    H129138   4.326   4.623   3.873  1.3146  1.8916  0.1233
 2549TIP3    H229139   4.349   4.641   4.022 -1.3029 -1.7195  1.0256
 2550TIP3   OH229140   5.320   0.978  16.358 -0.0513 -0.0858  0.7628
 2550TIP3    H129141   5.225   0.985  16.345  0.0453  0.4149  0.3041
 2550TIP3    H229142   5.334   0.887  16.383 -0.4960 -0.5277 -0.5447
 2551TIP3   OH229143   1.660   3.694   3.064  0.1275  0.4360 -0.1030
 2551TIP3    H129144   1.643   3.726   3.153  0.2827 -0.5554  0.2925
 2551TIP3    H229145   1.680   3.773   3.014 -0.7464  1.0919  0.5530
 2552TIP3   OH229146   1.084   0.507  11.271  0.2857 -0.1693 -0.3220
 2552TIP3    H129147   1.160   0.499  11.213  0.3448  1.3637 -0.4706
 2552TIP3    H229148   1.112   0.465  11.353  0.6518 -1.1949 -0.9670
 2553TIP3   OH229149   0.598   3.779   2.769 -0.2534  0.6906  0.1634
 2553TIP3    H129150   0.587   3.685   2.787  0.5914  0.3014 -1.2748
 2553TIP3    H229151   0.685   3.786   2.732  0.3832  2.3118  1.8922
 2554TIP3   OH229152   2.750   0.137  15.555 -0.0553 -0.1916  0.3815
 2554TIP3    H129153   2.666   0.154  15.512  0.4219  2.1104  0.2798
 2554TIP3    H229154   2.815   0.148  15.485  0.5490  1.3627  1.1557
 2555TIP3   OH229155   0.062   6.032   3.787  0.0887 -0.5467 -0.2443
 2555TIP3    H129156   0.007   6.009   3.862  1.0119  1.5706  1.1331
 2555TIP3    H229157   0.006   6.021   3.711 -0.9767 -2.3778  0.7665
 2556TIP3   OH229158   4.260   2.278   2.936 -0.3582  0.8317 -0.5619
 2556TIP3    H129159   4.187   2.304   2.991 -0.5323 -2.5397  0.9543
 2556TIP3    H229160   4.337   2.284   2.994  0.4571  3.4411 -1.8624
 2557TIP3   OH229161   3.392   1.019   3.270 -0.1089  0.1300 -0.0171
 2557TIP3    H129162   3.307   1.030   3.311 -0.1790  0.8130 -0.3314
 2557TIP3    H229163   3.421   1.108   3.249 -1.0915 -0.2654 -3.4706
 2558TIP3   OH229164   6.305   0.055   1.969  0.1032  0.3182 -0.4062
 2558TIP3    H129165   6.363   0.110   2.022  1.7797 -1.0784 -0.7307
 2558TIP3    H229166   6.278   0.112   1.897  0.6498  1.1575  0.0400
 2559TIP3   OH229167   5.447   2.875  14.917 -0.5216  0.5152 -0.4440
 2559TIP3    H129168   5.503   2.945  14.952 -0.6083  0.2419  0.2594
 2559TIP3    H229169   5.440   2.812  14.989  0.9291 -1.0555 -1.6474
 2560TIP3   OH229170   2.373   1.109  10.963 -0.0777 -0.3571  0.0310
 2560TIP3    H129171   2.334   1.179  10.910  2.0585  1.8755  1.2935
 2560TIP3    H229172   2.448   1.079  10.912 -0.4607 -1.0958 -0.0968
 2561TIP3   OH229173   2.005   0.056   0.555 -0.8370 -0.2158 -0.7744
 2561TIP3    H129174   1.975   0.005   0.631  1.4116 -2.2566 -1.2012
 2561TIP3    H229175   2.050   0.131   0.593  0.2778 -1.2266 -0.0307
 2562TIP3   OH229176   2.743   3.566   3.211  0.2170 -0.1894 -0.3431
 2562TIP3    H129177   2.812   3.631   3.223 -0.1768  0.2745 -0.5712
 2562TIP3    H229178   2.698   3.592   3.131 -0.8604  0.0976  0.3459
 2563TIP3   OH229179   4.069   5.840   4.214 -0.1682 -0.4433 -0.2692
 2563TIP3    H129180   4.022   5.895   4.276  0.1090  1.0075 -1.3090
 2563TIP3    H229181   4.005   5.774   4.186 -0.1600 -1.4024  1.8672
 2564TIP3   OH229182   2.679   4.466   4.829 -0.2247 -0.0813  0.3166
 2564TIP3    H129183   2.677   4.373   4.806  0.3991 -0.0923  0.3020
 2564TIP3    H229184   2.735   4.470   4.906 -0.3093  0.2756  0.3580
 2565TIP3   OH229185   0.229   1.010   6.143  0.1662  0.0630 -0.2141
 2565TIP3    H129186   0.155   0.951   6.153 -1.5994  1.9579 -1.6478
 2565TIP3    H229187   0.190   1.098   6.144  2.3431  1.0814 -1.2523
 2566TIP3   OH229188   5.157   2.732  13.094  0.3305 -0.1420 -0.1062
 2566TIP3    H129189   5.085   2.674  13.119 -0.6119  1.6384  1.3933
 2566TIP3    H229190   5.234   2.694  13.136  0.4622 -2.4315 -2.2500
 2567TIP3   OH229191   5.604   6.397   4.783 -0.0118  0.0038 -0.1015
 2567TIP3    H129192   5.652   6.465   4.829 -0.5752  0.1321  0.3047
 2567TIP3    H229193   5.625   6.411   4.691  0.3488  0.3562  0.0327
 2568TIP3   OH229194   2.117   6.361  11.336 -0.0370 -0.1213  0.4550
 2568TIP3    H129195   2.204   6.396  11.357 -0.7609  2.4820 -0.6948
 2568TIP3    H229196   2.058   6.436  11.343 -1.7428 -1.2104 -1.5831
 2569TIP3   OH229197   4.663   3.882   2.381  0.4311  0.0854 -0.6544
 2569TIP3    H129198   4.573   3.912   2.365 -1.4431 -4.1238  1.2130
 2569TIP3    H229199   4.690   3.843   2.298  0.4349  1.0919 -1.1336
 2570TIP3   OH229200   6.668   5.431  12.683 -0.0300  0.1994 -0.1683
 2570TIP3    H129201   6.676   5.523  12.658  2.3043  0.3752  1.0764
 2570TIP3    H229202   6.620   5.391  12.611  0.9656  1.9414 -1.8445
 2571TIP3   OH229203   5.958   5.809  12.688 -0.4568 -0.5039 -0.1549
 2571TIP3    H129204   5.997   5.838  12.605 -1.3809 -1.1087 -0.8116
 2571TIP3    H229205   5.948   5.715  12.678 -1.3442 -0.4690  0.3120
 2572TIP3   OH229206   0.447   4.813  17.046 -0.0903 -0.5361 -0.2632
 2572TIP3    H129207   0.495   4.792  16.966 -2.2944  1.8985 -2.3273
 2572TIP3    H229208   0.503   4.781  17.116  2.7920 -1.1221 -2.6959
 2573TIP3   OH229209   4.833   3.930   6.006  0.5486  0.4204  0.5802
 2573TIP3    H129210   4.867   3.934   6.095 -0.4702  2.4011  0.9149
 2573TIP3    H229211   4.903   3.967   5.952  0.7547  0.1940  0.6934
 2574TIP3   OH229212   0.889   3.324  14.763 -0.8085  0.1027 -0.3896
 2574TIP3    H129213   0.900   3.241  14.810  2.6507  0.6689 -0.0154
 2574TIP3    H229214   0.884   3.390  14.832 -0.6638  0.4576 -0.7194
 2575TIP3   OH229215   5.686   0.818  14.003  0.0151 -0.5924  0.3896
 2575TIP3    H129216   5.739   0.888  14.040 -0.8671  0.4022 -0.2093
 2575TIP3    H229217   5.734   0.738  14.023  2.7643  0.4223 -1.8042
 2576TIP3   OH229218   5.346   2.251  11.201  0.1520 -0.6339  0.1734
 2576TIP3    H129219   5.387   2.170  11.232 -0.5132 -0.3408  1.8331
 2576TIP3    H229220   5.402   2.280  11.129  1.3245 -1.6803  0.6542
 2577TIP3   OH229221   2.054   1.354  15.207  0.3621  0.5034 -0.1533
 2577TIP3    H129222   1.995   1.300  15.260  1.0606 -0.1485 -0.0216
 2577TIP3    H229223   2.142   1.325  15.233  0.7487  2.0666  0.2887
 2578TIP3   OH229224   2.176   3.495  11.888 -0.1241 -0.3352  0.5341
 2578TIP3    H129225   2.154   3.503  11.795  2.1674 -1.6691 -0.1749
 2578TIP3    H229226   2.152   3.580  11.925  0.2481  0.7438 -1.5691
 2579TIP3   OH229227   5.804   5.296   1.473 -0.3662 -0.9563 -0.0010
 2579TIP3    H129228   5.812   5.225   1.410 -0.8179  0.1989 -1.3989
 2579TIP3    H229229   5.711   5.297   1.496 -0.1318 -1.6147  0.9585
 2580TIP3   OH229230   1.268   4.560  11.382  0.4434  0.4765 -0.1375
 2580TIP3    H129231   1.230   4.524  11.462 -0.8639 -1.1526 -1.4585
 2580TIP3    H229232   1.222   4.516  11.311  1.3849  2.0921 -1.8144
 2581TIP3   OH229233   1.612   6.376  11.820  0.5548 -0.1775 -0.3668
 2581TIP3    H129234   1.705   6.358  11.805  1.1244  1.6810  0.7994
 2581TIP3    H229235   1.591   6.327  11.899  0.8849  0.4680  0.1214
 2582TIP3   OH229236   0.350   2.916  17.080 -0.5357  0.1821  0.0731
 2582TIP3    H129237   0.361   2.996  17.132 -3.1495  0.3338  0.4406
 2582TIP3    H229238   0.347   2.946  16.989  3.0335  0.0092 -0.1946
 2583TIP3   OH229239   6.271   3.157   4.297  0.2344 -0.3424 -0.2076
 2583TIP3    H129240   6.186   3.121   4.320  0.1200 -0.4516 -0.8033
 2583TIP3    H229241   6.305   3.194   4.379 -0.1360 -0.7977  0.1496
 2584TIP3   OH229242   3.923   3.303   1.509 -0.0731 -0.7094 -0.1266
 2584TIP3    H129243   3.943   3.215   1.541  2.4598  0.4596  1.6385
 2584TIP3    H229244   3.957   3.304   1.420  1.4370 -1.0053  0.4320
 2585TIP3   OH229245   1.685   2.413   5.967  0.4375 -0.0458 -0.5281
 2585TIP3    H129246   1.622   2.478   5.997  1.7385  1.5955 -1.3007
 2585TIP3    H229247   1.699   2.356   6.043 -0.4748  0.7662  0.2492
 2586TIP3   OH229248   3.717   5.848   2.643 -0.2151 -0.0147 -0.1036
 2586TIP3    H129249   3.753   5.852   2.731  1.5818 -0.6213 -0.7883
 2586TIP3    H229250   3.673   5.763   2.639 -1.5394  0.6245  0.6576
 2587TIP3   OH229251   6.770   3.463   1.325  0.2336 -0.2883  0.2182
 2587TIP3    H129252   6.849   3.469   1.273 -0.2406  2.0161 -0.2766
 2587TIP3    H229253   6.784   3.387   1.382  2.0120 -0.9813 -1.1208
 2588TIP3   OH229254   4.078   6.098   4.873  0.1117 -0.8452  0.7664
 2588TIP3    H129255   4.056   6.008   4.851 -0.3865 -0.5517  0.0353
 2588TIP3    H229256   4.039   6.112   4.960 -0.2021 -1.1905  0.6790
 2589TIP3   OH229257   4.651   0.165   6.042  0.0651 -0.2109  0.4487
 2589TIP3    H129258   4.569   0.214   6.035 -0.0165 -0.4641 -0.3304
 2589TIP3    H229259   4.719   0.233   6.045 -0.2287  0.0362  2.0748
 2590TIP3   OH229260   3.252   4.012  16.210 -0.2797 -0.0282 -0.1063
 2590TIP3    H129261   3.308   4.025  16.286 -0.2660  0.8983 -0.2699
 2590TIP3    H229262   3.273   4.084  16.151  0.0944 -1.0375 -1.2314
 2591TIP3   OH229263   5.205   0.919  11.641  0.2592  0.0992 -0.2500
 2591TIP3    H129264   5.273   0.946  11.703  2.9856 -2.3910 -2.0459
 2591TIP3    H229265   5.164   0.844  11.684 -0.7057  0.9592  0.3631
 2592TIP3   OH229266   5.701   6.055   1.409 -0.5474  0.2597  0.0954
 2592TIP3    H129267   5.769   6.088   1.468  0.0543  1.0099 -1.0003
 2592TIP3    H229268   5.697   5.961   1.427  0.6143  0.2531  0.3449
 2593TIP3   OH229269   2.997   3.843   3.614  0.6350 -0.3909  0.4183
 2593TIP3    H129270   3.052   3.777   3.656 -0.0345 -0.3501  1.3900
 2593TIP3    H229271   2.953   3.887   3.687  1.5468  1.5635 -0.1661
 2594TIP3   OH229272   6.598   1.610  14.058  0.2506 -0.2372  0.1729
 2594TIP3    H129273   6.609   1.616  13.963 -0.7298  1.0485  0.1379
 2594TIP3    H229274   6.552   1.527  14.072  2.2892 -1.4843 -0.3013
 2595TIP3   OH229275   5.548   2.825   3.524 -0.1315 -0.3813 -0.4953
 2595TIP3    H129276   5.539   2.731   3.504 -0.1589 -0.3470 -0.6381
 2595TIP3    H229277   5.492   2.837   3.601  0.6720 -0.6925  0.1452
 2596TIP3   OH229278   2.638   3.758  15.817 -0.5948 -0.6905  0.3030
 2596TIP3    H129279   2.686   3.748  15.899  0.2485 -0.8437 -0.2049
 2596TIP3    H229280   2.641   3.671  15.777  0.2713 -0.2681 -0.5761
 2597TIP3   OH229281   2.202   0.494  15.732 -0.1210 -0.0922 -0.7481
 2597TIP3    H129282   2.150   0.525  15.658 -3.9869  0.6167  2.0986
 2597TIP3    H229283   2.163   0.410  15.756  0.0804  0.4040  1.4341
 2598TIP3   OH229284   3.410   2.211   1.608  0.4205 -0.2078 -0.0546
 2598TIP3    H129285   3.439   2.146   1.544  1.5627  0.2517 -0.0003
 2598TIP3    H229286   3.426   2.295   1.567  1.0751  0.0848  0.7984
 2599TIP3   OH229287   2.285   6.756  14.343  0.1297  0.3160 -0.2237
 2599TIP3    H129288   2.214   6.705  14.303  0.0598 -2.5249  3.2566
 2599TIP3    H229289   2.255   6.846  14.340 -2.9631 -0.6607 -0.1833
 2600TIP3   OH229290   1.733   0.301  13.802 -0.2918  0.4224  0.0657
 2600TIP3    H129291   1.826   0.285  13.787 -0.1753  1.4437 -0.2862
 2600TIP3    H229292   1.699   0.215  13.828  0.5023 -0.2297 -0.9841
 2601TIP3   OH229293   5.433   2.625   4.804  0.0372  0.0528 -0.2729
 2601TIP3    H129294   5.500   2.557   4.801 -0.4389 -0.4311  0.0946
 2601TIP3    H229295   5.350   2.579   4.794 -0.3367  0.4949  0.6368
 2602TIP3   OH229296   0.125   2.756  13.047 -0.4866  0.7628  0.2062
 2602TIP3    H129297   0.166   2.822  13.104  1.4545 -0.0902 -0.1523
 2602TIP3    H229298   0.111   2.801  12.964  2.7204  0.2135 -0.7025
 2603TIP3   OH229299   4.346   4.167  15.326  0.3082  0.4328  0.8270
 2603TIP3    H129300   4.339   4.219  15.406 -2.5818  0.4617  0.5944
 2603TIP3    H229301   4.298   4.217  15.261  0.8228 -0.6347 -0.3872
 2604TIP3   OH229302   1.338   6.575   5.643 -0.5990  0.0776  0.6141
 2604TIP3    H129303   1.302   6.486   5.647 -1.2035  0.1931 -1.3625
 2604TIP3    H229304   1.318   6.604   5.554  0.9432  1.6320  0.7551
 2605TIP3   OH229305   4.347   6.309  13.798  0.3737 -0.1659  0.1456
 2605TIP3    H129306   4.391   6.229  13.827  1.1607  0.5235  0.8783
 2605TIP3    H229307   4.345   6.302  13.703  1.1066 -0.6952  0.1650
 2606TIP3   OH229308   4.852   0.300  11.530 -0.3243 -0.0640  0.3597
 2606TIP3    H129309   4.780   0.237  11.536 -1.3359  1.0323 -0.0681
 2606TIP3    H229310   4.839   0.343  11.445  1.3752 -0.4983 -0.1392
 2607TIP3   OH229311   1.124   6.425  15.386  0.6814  0.1777  0.0532
 2607TIP3    H129312   1.043   6.439  15.339  1.0337  0.4785 -0.4677
 2607TIP3    H229313   1.193   6.451  15.324  1.2188 -1.1633  0.0781
 2608TIP3   OH229314   3.094   1.344   4.542 -0.5182 -0.1702 -0.1868
 2608TIP3    H129315   3.125   1.303   4.622 -3.3266  0.3017  1.2178
 2608TIP3    H229316   3.111   1.437   4.554  1.0083 -0.3097 -1.0985
 2609TIP3   OH229317   6.458   3.074  12.390  0.2570  0.0753  0.1249
 2609TIP3    H129318   6.383   3.042  12.340  0.3787 -0.3525  0.2080
 2609TIP3    H229319   6.517   2.998  12.395  0.1594  0.0555  1.0897
 2610TIP3   OH229320   1.275   2.686   0.471 -0.4185 -0.7787  0.5589
 2610TIP3    H129321   1.272   2.600   0.514 -2.3940 -2.1512 -2.1312
 2610TIP3    H229322   1.301   2.666   0.381  0.7959  1.6780  0.3140
 2611TIP3   OH229323   6.287   1.707  16.284  0.7692  0.0169 -0.1006
 2611TIP3    H129324   6.247   1.627  16.250 -1.1997  1.0065 -0.1660
 2611TIP3    H229325   6.224   1.740  16.347  2.2295  0.7730  0.9917
 2612TIP3   OH229326   2.101   4.754   3.027  0.4955 -0.4100 -0.4070
 2612TIP3    H129327   2.192   4.726   3.022  0.6142 -0.0897 -0.0695
 2612TIP3    H229328   2.063   4.729   2.942  1.2703  0.7439 -1.1183
 2613TIP3   OH229329   2.659   3.697   4.456  0.0752 -0.2679 -0.3376
 2613TIP3    H129330   2.736   3.727   4.409  0.8278 -0.0170  1.0075
 2613TIP3    H229331   2.585   3.723   4.402  0.8473  1.4430 -0.6014
 2614TIP3   OH229332   1.451   5.809   0.728  0.7841 -0.0030 -0.3052
 2614TIP3    H129333   1.501   5.852   0.659  0.4776 -0.7864 -1.0132
 2614TIP3    H229334   1.377   5.768   0.683 -0.0231  0.4133  0.6227
 2615TIP3   OH229335   2.979   2.567   2.304  0.0560 -0.2989 -0.3655
 2615TIP3    H129336   2.910   2.604   2.249  1.7984  0.8010 -1.8440
 2615TIP3    H229337   3.011   2.642   2.354  0.6248 -0.6836 -0.1534
 2616TIP3   OH229338   3.812   2.998   3.440  0.3670 -0.7707 -0.4046
 2616TIP3    H129339   3.730   3.014   3.394  0.4244 -0.4385 -0.3991
 2616TIP3    H229340   3.866   2.951   3.377  0.6533  0.1848 -0.8876
 2617TIP3   OH229341   2.546   2.024   5.570 -0.6093 -0.0615 -0.0690
 2617TIP3    H129342   2.527   1.947   5.624 -0.9873 -1.8614 -2.6879
 2617TIP3    H229343   2.481   2.089   5.598 -3.8868 -2.5543 -1.5389
 2618TIP3   OH229344   4.657   6.583  11.464 -0.2584 -0.0159 -0.0397
 2618TIP3    H129345   4.570   6.622  11.470  1.2888  3.6074  0.3127
 2618TIP3    H229346   4.681   6.592  11.372  0.3584  0.4452  0.1629
 2619TIP3   OH229347   2.844   6.674   2.941 -0.1611 -0.6041  0.3079
 2619TIP3    H129348   2.797   6.717   3.013  0.1930  0.6771 -0.2139
 2619TIP3    H229349   2.797   6.703   2.862 -1.3031 -2.9662  0.0901
 2620TIP3   OH229350   3.465   0.730  17.248 -0.0222 -0.5704 -0.7904
 2620TIP3    H129351   3.460   0.732  17.343  3.0270  0.8905 -0.5985
 2620TIP3    H229352   3.459   0.638  17.225  0.7278 -1.0646  0.9407
 2621TIP3   OH229353   6.049   0.494   5.900 -0.0907  0.3547  0.0034
 2621TIP3    H129354   6.077   0.562   5.839  0.8137 -1.8969 -2.1828
 2621TIP3    H229355   6.040   0.416   5.846 -2.2710 -1.0083  2.2347
 2622TIP3   OH229356   4.932   3.166  16.125  0.1754  0.2071  0.0705
 2622TIP3    H129357   4.863   3.182  16.060  0.1751  1.2606  0.3140
 2622TIP3    H229358   5.003   3.224  16.099  0.9619 -0.8247 -0.1357
 2623TIP3   OH229359   3.018   3.357   2.952  0.0322 -0.0433  0.0223
 2623TIP3    H129360   2.981   3.445   2.964  0.3101 -0.2073  2.3977
 2623TIP3    H229361   3.110   3.366   2.977  0.2284 -0.8638 -0.3861
 2624TIP3   OH229362   3.444   5.131   4.601  0.3352 -0.0707  0.2767
 2624TIP3    H129363   3.410   5.101   4.517  1.1060 -0.8374  0.2245
 2624TIP3    H229364   3.377   5.107   4.665 -0.5601  1.1238 -0.1964
 2625TIP3   OH229365   1.921   0.576   0.965  0.1889  0.2741 -0.3550
 2625TIP3    H129366   1.904   0.507   1.030  1.6177  0.1244 -0.1323
 2625TIP3    H229367   1.898   0.657   1.010 -1.8685 -0.0565 -0.7418
 2626TIP3   OH229368   3.444   0.808   2.282 -0.0528 -0.1811 -0.2287
 2626TIP3    H129369   3.487   0.827   2.366  2.9790 -2.4937 -1.1893
 2626TIP3    H229370   3.357   0.775   2.307 -0.5262  2.3593  1.8244
 2627TIP3   OH229371   3.356   5.494  14.284 -0.2539 -0.1173 -0.3393
 2627TIP3    H129372   3.401   5.549  14.219 -0.2148 -0.0548 -0.2612
 2627TIP3    H229373   3.339   5.553  14.357 -1.3459  0.1019 -0.7639
 2628TIP3   OH229374   6.315   1.278   0.511 -0.8551 -0.6170 -0.2665
 2628TIP3    H129375   6.336   1.367   0.537 -0.0779 -1.1668  1.0336
 2628TIP3    H229376   6.309   1.281   0.416  1.5199  0.3338 -0.4185
 2629TIP3   OH229377   0.716   3.508   4.874 -0.0078 -0.3240  0.2378
 2629TIP3    H129378   0.640   3.565   4.883  0.7555  1.1219 -2.0155
 2629TIP3    H229379   0.786   3.552   4.924  0.5287  0.6634 -1.3440
 2630TIP3   OH229380   4.559   1.331  14.171 -0.0095  0.4066  0.3402
 2630TIP3    H129381   4.642   1.371  14.195 -0.5440  3.0608 -2.0590
 2630TIP3    H229382   4.584   1.254  14.120  1.0272  2.2705 -2.0517
 2631TIP3   OH229383   3.493   2.241   5.225  0.2134  0.4220  0.2741
 2631TIP3    H129384   3.543   2.252   5.306 -0.7974  1.6135  0.7572
 2631TIP3    H229385   3.504   2.149   5.202  0.7577  0.1435  1.6044
 2632TIP3   OH229386   1.360   0.918  11.992  0.5444  0.2023 -0.4367
 2632TIP3    H129387   1.321   0.870  12.065  0.7126 -0.9642 -1.0983
 2632TIP3    H229388   1.368   0.853  11.922  2.3117  0.7770 -0.8065
 2633TIP3   OH229389   6.784   6.132   2.040 -0.1542  0.1877  0.2856
 2633TIP3    H129390   6.860   6.156   1.987  0.0880 -1.7070 -0.2632
 2633TIP3    H229391   6.732   6.212   2.045  0.8939  0.9681 -1.0125
 2634TIP3   OH229392   0.300   1.557   3.196  0.5812 -0.2324 -0.5920
 2634TIP3    H129393   0.357   1.634   3.187  0.6185 -0.3705 -1.6858
 2634TIP3    H229394   0.243   1.577   3.270  1.5455  0.2326  0.0320
 2635TIP3   OH229395   0.998   0.867   1.465 -0.2445  0.1797 -0.1188
 2635TIP3    H129396   1.033   0.952   1.494  4.2904 -1.6507  0.0917
 2635TIP3    H229397   0.986   0.878   1.370 -2.3041  1.8780  0.2980
 2636TIP3   OH229398   6.076   1.576  13.324  0.8721 -0.6300  0.0369
 2636TIP3    H129399   6.135   1.648  13.304 -1.8026  1.0667 -2.1751
 2636TIP3    H229400   6.114   1.500  13.280  2.3720 -0.0126  0.2507
 2637TIP3   OH229401   4.021   1.851   4.639 -0.3314 -0.9026 -0.4030
 2637TIP3    H129402   3.941   1.842   4.587  0.4892 -0.4746 -1.7534
 2637TIP3    H229403   4.088   1.876   4.576 -0.2930  4.5257  1.5329
 2638TIP3   OH229404   2.807   4.192   0.459 -0.3788 -0.0221  0.0576
 2638TIP3    H129405   2.820   4.110   0.507  0.4733  0.2421  0.2775
 2638TIP3    H229406   2.726   4.178   0.410 -0.5169 -0.8042  0.5004
 2639TIP3   OH229407   1.432   0.500  15.227  0.1850  0.1764  0.0751
 2639TIP3    H129408   1.345   0.538  15.239  0.6395  1.3386 -0.2210
 2639TIP3    H229409   1.475   0.558  15.164  1.2963 -0.1735  0.4955
 2640TIP3   OH229410   1.399   4.473   4.097  0.5276 -0.5837  0.5181
 2640TIP3    H129411   1.446   4.542   4.144 -2.5373  1.5310  0.5988
 2640TIP3    H229412   1.394   4.400   4.159  1.0679  0.2540  1.5462
 2641TIP3   OH229413   0.023   2.317  12.345 -0.2343  0.0443 -0.0342
 2641TIP3    H129414  -0.030   2.237  12.343  0.5739 -0.5356  0.7929
 2641TIP3    H229415  -0.040   2.388  12.339 -0.9943 -0.6534 -0.4414
 2642TIP3   OH229416   1.399   1.851  12.180  0.7988  0.8216 -0.3530
 2642TIP3    H129417   1.455   1.866  12.104  1.6271  1.7788  0.4280
 2642TIP3    H229418   1.393   1.937  12.222 -0.0778  0.4080  0.3808
 2643TIP3   OH229419   4.554   4.035  11.308 -0.8026 -0.3575  0.7739
 2643TIP3    H129420   4.502   3.995  11.238 -0.3762  0.9515 -0.3087
 2643TIP3    H229421   4.605   4.102  11.264  1.2316 -1.0973  1.9686
 2644TIP3   OH229422   0.856   2.089  15.516 -0.3488  0.8351 -0.1960
 2644TIP3    H129423   0.864   2.173  15.560 -2.0021  0.2057  1.3860
 2644TIP3    H229424   0.946   2.064  15.496  0.3211  1.9900  1.2352
 2645TIP3   OH229425   0.541   0.066  15.387 -0.5493 -0.1871  0.1341
 2645TIP3    H129426   0.514   0.071  15.478  0.1753 -1.8663  0.4606
 2645TIP3    H229427   0.461   0.085  15.337 -2.1279 -3.8823  1.0839
 2646TIP3   OH229428   2.145   2.932  12.321  0.2480  0.2780 -0.3553
 2646TIP3    H129429   2.101   2.965  12.242  1.1977 -0.4882 -1.2168
 2646TIP3    H229430   2.235   2.916  12.293  0.3889 -0.7930  0.6817
 2647TIP3   OH229431   3.211   5.324   3.610  0.0431 -0.4362 -0.7862
 2647TIP3    H129432   3.116   5.314   3.619 -0.1886 -1.5245 -3.8051
 2647TIP3    H229433   3.225   5.417   3.596 -0.6510 -0.3529 -0.9421
 2648TIP3   OH229434   5.734   6.780  13.276 -0.4668 -0.8736  0.0447
 2648TIP3    H129435   5.643   6.777  13.305 -0.6972 -0.1343 -0.5907
 2648TIP3    H229436   5.783   6.742  13.349 -1.0480  0.9635  1.4377
 2649TIP3   OH229437   2.882   5.135  11.431 -0.8494 -0.2348  0.1294
 2649TIP3    H129438   2.842   5.158  11.515 -2.6240 -2.2471 -0.1039
 2649TIP3    H229439   2.894   5.040  11.436 -0.0748 -0.2441 -1.5346
 2650TIP3   OH229440   0.543   4.756   3.674 -0.0568  0.5600  0.9008
 2650TIP3    H129441   0.456   4.788   3.653  0.2307  0.6969 -0.1427
 2650TIP3    H229442   0.534   4.715   3.760 -0.8500  1.7102  1.3696
 2651TIP3   OH229443   4.804   0.745  16.717  0.3092 -0.4208  0.2840
 2651TIP3    H129444   4.765   0.746  16.804 -0.2166  1.0046  0.0339
 2651TIP3    H229445   4.829   0.836  16.700 -2.1475 -0.1325 -2.1841
 2652TIP3   OH229446   1.637   1.619   2.820  0.6547  0.5010  0.0823
 2652TIP3    H129447   1.664   1.566   2.745  2.4454  1.2407  0.1700
 2652TIP3    H229448   1.719   1.652   2.857 -0.2228  0.3733  2.2057
 2653TIP3   OH229449   3.160   5.566   0.555  0.0474  0.0476  0.0010
 2653TIP3    H129450   3.254   5.548   0.545 -0.0989  0.3343 -2.0926
 2653TIP3    H229451   3.125   5.559   0.466 -2.0740 -0.8754  0.8898
 2654TIP3   OH229452   2.410   2.958   0.316 -0.5015  0.9016 -0.1139
 2654TIP3    H129453   2.318   2.977   0.297 -1.0716 -1.0048  0.6462
 2654TIP3    H229454   2.417   2.970   0.411 -0.3663 -0.4935  0.0613
 2655TIP3   OH229455   4.916   5.439  12.484  0.1341  0.0985 -0.4992
 2655TIP3    H129456   4.916   5.419  12.578  0.7919 -0.5427 -0.6330
 2655TIP3    H229457   5.008   5.457  12.463 -0.0960  0.8491 -0.9022
 2656TIP3   OH229458   2.208   3.844  15.634 -0.5628 -0.4925 -0.1147
 2656TIP3    H129459   2.177   3.882  15.552  1.3796 -0.2862 -0.7864
 2656TIP3    H229460   2.253   3.763  15.608 -0.3315 -0.6670  0.7953
 2657TIP3   OH229461   6.434   2.643  12.276 -0.0178 -0.0015 -0.5931
 2657TIP3    H129462   6.380   2.598  12.210 -2.1195  0.6327  0.6435
 2657TIP3    H229463   6.457   2.574  12.338 -1.5171  0.1812  0.1973
 2658TIP3   OH229464   0.303   3.509   1.943 -0.2671  0.0705  0.5296
 2658TIP3    H129465   0.279   3.527   2.034 -0.4998  0.8419  0.3179
 2658TIP3    H229466   0.300   3.594   1.900 -0.8513 -0.3922 -0.3618
 2659TIP3   OH229467   3.465   3.026   2.313 -0.4912 -0.2344  0.0135
 2659TIP3    H129468   3.542   3.045   2.366 -0.0232 -2.9769  0.3540
 2659TIP3    H229469   3.402   2.989   2.374 -0.7188 -1.4774 -0.9616
 2660TIP3   OH229470   5.052   2.286  11.595  0.2407 -0.4859 -0.9003
 2660TIP3    H129471   5.100   2.218  11.548 -1.2407 -0.4337 -2.5706
 2660TIP3    H229472   5.119   2.347  11.625  1.6027 -2.6952  0.7131
 2661TIP3   OH229473   2.243   4.476   4.516  0.0564 -0.0809 -0.2906
 2661TIP3    H129474   2.238   4.407   4.450 -1.2023 -0.9097  0.6435
 2661TIP3    H229475   2.296   4.438   4.586 -1.8290 -0.6604  0.8547
 2662TIP3   OH229476   3.897   3.276  15.612 -0.2034 -0.6962 -0.4723
 2662TIP3    H129477   3.826   3.258  15.550 -0.8713 -1.0137  0.3755
 2662TIP3    H229478   3.949   3.196  15.612 -0.6128 -0.9611 -0.0771
 2663TIP3   OH229479   0.433   1.359   1.744 -0.4140 -0.2181 -0.5298
 2663TIP3    H129480   0.425   1.454   1.732  0.5215  0.3746  3.0664
 2663TIP3    H229481   0.491   1.331   1.672  1.6530  2.4148  0.0249
 2664TIP3   OH229482   2.086   4.799  13.911 -0.2204  0.1898 -0.1965
 2664TIP3    H129483   2.036   4.717  13.912  0.1969 -0.0569  1.1885
 2664TIP3    H229484   2.031   4.862  13.958  0.2275  0.2446  0.2566
 2665TIP3   OH229485   3.567   4.535   5.255  0.0249 -0.0647  0.3191
 2665TIP3    H129486   3.653   4.575   5.262  0.5917 -1.0031 -1.1238
 2665TIP3    H229487   3.582   4.452   5.210 -1.7511  0.2710 -0.9777
 2666TIP3   OH229488   6.160   4.722  16.367 -0.0664  0.6764  0.3637
 2666TIP3    H129489   6.090   4.661  16.390  0.2595 -0.2906 -1.1252
 2666TIP3    H229490   6.239   4.682  16.403  0.2455 -0.1448 -1.1987
 2667TIP3   OH229491   6.796   1.048   3.842  0.9857  0.2316  0.1422
 2667TIP3    H129492   6.850   0.978   3.805 -0.0192 -0.8400  0.7003
 2667TIP3    H229493   6.708   1.012   3.845  0.3806  1.6825  0.0397
 2668TIP3   OH229494   5.741   3.392  13.327 -0.3537  0.0780  0.1940
 2668TIP3    H129495   5.761   3.313  13.278  1.4779  0.5399  0.1816
 2668TIP3    H229496   5.706   3.453  13.262  1.8032  0.5907 -0.5112
 2669TIP3   OH229497   3.852   5.973   3.417 -0.1140 -0.3099  0.1508
 2669TIP3    H129498   3.889   5.885   3.410 -0.1776 -0.2346 -1.4374
 2669TIP3    H229499   3.885   6.008   3.499  0.9818 -1.3300  0.1413
 2670TIP3   OH229500   4.754   2.970  16.363  0.0566  0.7242 -0.0816
 2670TIP3    H129501   4.754   2.930  16.276 -0.3568  1.4179 -0.4087
 2670TIP3    H229502   4.847   2.976  16.386  0.1372 -0.1044 -0.1703
 2671TIP3   OH229503   1.781   0.021  16.857  0.0576  0.4155  0.4022
 2671TIP3    H129504   1.764  -0.072  16.843 -1.8950  0.8494 -0.3574
 2671TIP3    H229505   1.767   0.035  16.950 -2.1595  0.3989  0.1005
 2672TIP3   OH229506   2.184   3.335  15.732 -0.5053  0.0666  0.2610
 2672TIP3    H129507   2.173   3.271  15.803  0.6723 -0.4837 -0.0273
 2672TIP3    H229508   2.200   3.418  15.777  2.0957 -0.6136  0.6898
 2673TIP3   OH229509   4.137   3.312   0.714 -0.0740  0.2552  0.2847
 2673TIP3    H129510   4.088   3.251   0.659  0.5643 -0.2068  0.2216
 2673TIP3    H229511   4.104   3.399   0.689  0.1241  0.0434 -0.7415
 2674TIP3   OH229512   1.960   4.350   5.877 -0.6743  0.1284  0.6987
 2674TIP3    H129513   1.906   4.358   5.798 -2.1414  0.7580  1.7386
 2674TIP3    H229514   2.046   4.323   5.844 -0.4170  3.1670 -1.3674
 2675TIP3   OH229515   0.619   1.924  10.990 -0.2645  0.1107  0.3347
 2675TIP3    H129516   0.559   1.983  11.036 -1.3090  0.0983 -0.9641
 2675TIP3    H229517   0.706   1.958  11.010 -0.7730  1.0172  1.0550
 2676TIP3   OH229518   5.502   6.166  15.131 -0.3789 -0.2474  0.0015
 2676TIP3    H129519   5.407   6.163  15.141 -0.4543  1.3463 -0.1662
 2676TIP3    H229520   5.521   6.097  15.067 -1.4375 -0.4306 -0.1278
 2677TIP3   OH229521   3.111   0.639   2.488  0.0934  0.2042  0.3439
 2677TIP3    H129522   3.107   0.549   2.519 -2.0267  0.0282 -0.3813
 2677TIP3    H229523   3.120   0.631   2.393 -2.7934  0.7234 -0.0122
 2678TIP3   OH229524   1.681   1.626   4.795 -0.5296 -0.4308 -0.5112
 2678TIP3    H129525   1.732   1.566   4.741  1.0748  0.5535 -0.1036
 2678TIP3    H229526   1.728   1.629   4.878  0.3327  2.6173 -1.0541
 2679TIP3   OH229527   4.216   5.014  11.706  0.4658  0.0104  0.4995
 2679TIP3    H129528   4.171   5.082  11.756  0.0500 -0.8869  1.3658
 2679TIP3    H229529   4.297   4.998  11.755  0.9481  0.4419 -0.1438
 2680TIP3   OH229530   5.038   4.668   4.555 -0.0238  0.5742 -0.3567
 2680TIP3    H129531   5.036   4.597   4.491  1.0779 -0.8867  1.1999
 2680TIP3    H229532   5.094   4.636   4.625 -0.9584  2.2816  1.2181
 2681TIP3   OH229533   1.629   6.710   3.422  0.4105  0.3040 -0.3538
 2681TIP3    H129534   1.667   6.628   3.389 -0.5291 -0.5092  0.5372
 2681TIP3    H229535   1.697   6.747   3.478 -0.1412 -1.2565  1.4139
 2682TIP3   OH229536   4.851   2.072   2.372  0.3250  0.2938  0.0789
 2682TIP3    H129537   4.896   2.153   2.348  0.5782 -0.2461 -1.2967
 2682TIP3    H229538   4.915   2.023   2.424  0.1126  1.0373  1.0670
 2683TIP3   OH229539   6.464   5.780  13.430  0.3100  0.1274 -0.5593
 2683TIP3    H129540   6.390   5.838  13.412  0.8981  1.5670  1.3974
 2683TIP3    H229541   6.539   5.827  13.394  0.5518 -0.2946 -0.6013
 2684TIP3   OH229542   2.665   3.518  14.402 -0.2473  0.3590  0.3920
 2684TIP3    H129543   2.746   3.509  14.451 -1.1296 -1.4194  1.5878
 2684TIP3    H229544   2.692   3.518  14.310  0.9856 -2.0509  0.7158
 2685TIP3   OH229545   5.378   0.542  13.471 -0.0001 -0.0034  0.4303
 2685TIP3    H129546   5.287   0.568  13.486  0.2473  0.7646  0.5916
 2685TIP3    H229547   5.415   0.532  13.559 -0.4590 -2.2299  0.4140
 2686TIP3   OH229548   3.710   0.957   2.208  0.0925  0.7414 -0.2323
 2686TIP3    H129549   3.775   0.930   2.144 -0.3303  0.6880 -0.6349
 2686TIP3    H229550   3.656   0.879   2.223 -1.7682  1.6243 -2.1635
 2687TIP3   OH229551   2.135   5.186  15.311  0.1338 -0.3765 -0.1580
 2687TIP3    H129552   2.066   5.120  15.301 -0.4923  0.2095  0.2733
 2687TIP3    H229553   2.119   5.249  15.241 -0.2231  0.1590  0.4015
 2688TIP3   OH229554   4.332   6.467   2.937 -0.4033 -0.8708 -0.1178
 2688TIP3    H129555   4.405   6.503   2.886 -0.0213  0.7730  1.5195
 2688TIP3    H229556   4.255   6.477   2.880 -0.1779  1.9445  0.0256
 2689TIP3   OH229557   5.406   2.859   2.581  0.0587 -0.1593  0.1410
 2689TIP3    H129558   5.483   2.847   2.635  1.3351  0.3700 -1.5042
 2689TIP3    H229559   5.385   2.952   2.589  0.4294 -0.0173 -0.4882
 2690TIP3   OH229560   5.979   6.485  12.459  0.4512 -0.6252  0.0712
 2690TIP3    H129561   6.047   6.497  12.392 -0.4732  3.0690 -0.3093
 2690TIP3    H229562   5.904   6.450  12.410  0.1611  0.9591 -0.6519
 2691TIP3   OH229563   2.944   1.792   5.313  0.3965 -0.1579  0.0594
 2691TIP3    H129564   2.858   1.758   5.337  0.6380 -1.9011 -1.4431
 2691TIP3    H229565   2.936   1.887   5.324 -1.4923 -0.3619  0.6019
 2692TIP3   OH229566   1.905   5.279   4.354 -0.6925 -0.0130 -0.5465
 2692TIP3    H129567   1.823   5.245   4.391 -1.0078  0.1283 -1.1238
 2692TIP3    H229568   1.894   5.374   4.354  0.1900  0.1148  1.0633
 2693TIP3   OH229569   1.883   2.153  11.413  0.4667  0.2626  0.2851
 2693TIP3    H129570   1.908   2.187  11.327 -0.3312 -0.1854 -0.1326
 2693TIP3    H229571   1.794   2.120  11.401  0.4101  0.0456  1.2438
 2694TIP3   OH229572   5.061   0.815   0.591  0.4781  0.1730  0.6765
 2694TIP3    H129573   5.132   0.861   0.636  0.4957  0.3363  0.4851
 2694TIP3    H229574   5.034   0.747   0.652  0.8295  0.0809  0.7320
 2695TIP3   OH229575   2.999   5.162  10.635 -0.5680  0.0849 -0.5694
 2695TIP3    H129576   3.074   5.122  10.590  0.3375 -0.0994  1.0958
 2695TIP3    H229577   3.032   5.245  10.669  0.3546 -2.1545  4.4189
 2696TIP3   OH229578   5.934   5.527  10.955  0.3244  0.2895 -0.1686
 2696TIP3    H129579   6.010   5.576  10.924  0.4468 -0.1994 -0.6724
 2696TIP3    H229580   5.968   5.438  10.970 -0.1112  0.1020 -0.2739
 2697TIP3   OH229581   6.616   5.261   4.217 -0.3992  0.0516 -0.3709
 2697TIP3    H129582   6.652   5.248   4.130 -0.0043 -0.8811 -0.0681
 2697TIP3    H229583   6.534   5.308   4.203  0.0307  0.5616 -1.1873
 2698TIP3   OH229584   1.361   6.560  11.029  0.6767  0.0516 -0.3742
 2698TIP3    H129585   1.444   6.512  11.026  2.0960  2.4565 -0.3097
 2698TIP3    H229586   1.358   6.609  10.948  1.0142  2.6889  1.1541
 2699TIP3   OH229587   1.647   1.704  14.508  0.4057  0.8934 -0.3339
 2699TIP3    H129588   1.607   1.698  14.422 -0.4085  1.7870 -0.0265
 2699TIP3    H229589   1.674   1.796  14.515 -1.5045  1.3621  1.2256
 2700TIP3   OH229590   5.414   6.561  11.016 -0.4790  0.4383 -0.6904
 2700TIP3    H129591   5.492   6.519  10.979 -0.7144 -0.0680 -0.6250
 2700TIP3    H229592   5.389   6.626  10.951 -0.2291  0.3315 -0.8975
 2701TIP3   OH229593   1.522   1.006  15.545  0.1792  0.6273  0.3259
 2701TIP3    H129594   1.573   1.069  15.495  1.6816 -0.0938  0.9175
 2701TIP3    H229595   1.529   0.924  15.495  0.9185  0.1334  1.2337
 2702TIP3   OH229596   2.921   2.685   1.384  0.2272 -0.8484  0.0565
 2702TIP3    H129597   2.843   2.740   1.372 -0.2243 -1.8472 -1.7554
 2702TIP3    H229598   2.993   2.747   1.389 -0.7805  0.2009  3.3576
 2703TIP3   OH229599   3.830   1.141   1.644  0.1784 -0.5991 -0.4764
 2703TIP3    H129600   3.857   1.226   1.610 -1.2476  0.2434  0.4740
 2703TIP3    H229601   3.743   1.126   1.606  0.4747 -1.7057 -0.7472
 2704TIP3   OH229602   5.533   0.855  16.904  0.2648  0.3319 -0.0291
 2704TIP3    H129603   5.520   0.911  16.980 -0.3375  0.1385  0.0127
 2704TIP3    H229604   5.592   0.786  16.935 -0.2008  0.0983  0.3443
 2705TIP3   OH229605   6.682   2.116   0.454  0.2230 -0.2512 -0.1754
 2705TIP3    H129606   6.593   2.141   0.428  0.5039  0.7413 -0.2248
 2705TIP3    H229607   6.737   2.146   0.382  0.7330  0.2991  0.4375
 2706TIP3   OH229608   5.180   0.994   0.309  0.0533  0.2158 -0.0242
 2706TIP3    H129609   5.245   0.939   0.354 -0.1102  1.4890  1.8423
 2706TIP3    H229610   5.104   0.936   0.298 -0.4106  0.2533  2.6554
 2707TIP3   OH229611   1.519   5.593   3.248  0.2301  0.1106 -0.8290
 2707TIP3    H129612   1.566   5.672   3.277 -1.9767  0.9011  0.7546
 2707TIP3    H229613   1.475   5.620   3.167 -0.0933  0.3436 -0.5757
 2708TIP3   OH229614   5.242   1.915  16.438 -0.1718 -0.1702  0.5255
 2708TIP3    H129615   5.272   1.826  16.425  1.3714  0.4494 -0.2471
 2708TIP3    H229616   5.153   1.906  16.473  0.6307 -2.0164  2.1473
 2709TIP3   OH229617   2.023   1.917  11.471 -0.2175  0.3286  0.1298
 2709TIP3    H129618   2.062   1.877  11.394 -0.0061  0.6082  0.0877
 2709TIP3    H229619   1.968   1.988  11.436 -0.7187 -0.0273  0.1917
 2710TIP3   OH229620   3.607   5.061  15.421  0.2427  0.4419 -0.1622
 2710TIP3    H129621   3.543   5.029  15.484  0.1273  0.1775 -0.4134
 2710TIP3    H229622   3.596   5.005  15.345  0.0440  1.0761 -0.6023
 2711TIP3   OH229623   2.086   0.806  13.321 -0.0669 -0.0424  0.0484
 2711TIP3    H129624   2.121   0.891  13.296 -2.3724  0.8351 -0.3321
 2711TIP3    H229625   2.104   0.749  13.246 -1.3500  0.9451 -1.0160
 2712TIP3   OH229626   2.470   1.795  12.200 -0.5765  0.0799  0.2327
 2712TIP3    H129627   2.434   1.861  12.140  0.7964 -0.5181 -1.2713
 2712TIP3    H229628   2.526   1.845  12.259 -1.1756  0.5435  0.4133
 2713TIP3   OH229629   4.211   2.131  13.610  0.6939  0.1227  0.3615
 2713TIP3    H129630   4.141   2.129  13.675  1.3798  1.3711  1.1405
 2713TIP3    H229631   4.209   2.044  13.570 -0.4016 -0.3017  1.3248
 2714TIP3   OH229632   0.522   2.098   3.125 -0.1606  0.0605 -0.1484
 2714TIP3    H129633   0.608   2.137   3.110  0.3918 -0.9654  0.2776
 2714TIP3    H229634   0.537   2.032   3.194 -2.1640  3.1011  3.3874
 2715TIP3   OH229635   2.242   0.607   1.931  0.2835  0.3792 -0.2037
 2715TIP3    H129636   2.153   0.614   1.896  0.0388  0.2441  0.3838
 2715TIP3    H229637   2.260   0.693   1.968  1.5738  1.4042 -3.0380
 2716TIP3   OH229638   5.978   2.242  13.519  0.0717 -0.6450  0.4772
 2716TIP3    H129639   5.917   2.262  13.590  0.9576 -0.8234  1.2915
 2716TIP3    H229640   5.937   2.280  13.441  0.2739  1.7296  1.4841
 2717TIP3   OH229641   3.753   6.103  10.939 -0.2121  0.2813 -0.3560
 2717TIP3    H129642   3.784   6.134  11.024 -0.7736 -0.1955  0.0247
 2717TIP3    H229643   3.763   6.179  10.881  3.2819 -0.3527 -0.6901
 2718TIP3   OH229644   5.735   6.077   6.449  0.6313 -0.1494 -0.1762
 2718TIP3    H129645   5.774   6.056   6.534  1.0624 -1.4722 -0.6847
 2718TIP3    H229646   5.646   6.042   6.454  0.9675 -1.0621 -0.6099
 2719TIP3   OH229647   6.757   6.512  10.742 -0.1318 -0.2547  0.6030
 2719TIP3    H129648   6.717   6.546  10.822 -0.7104  0.2053  0.1193
 2719TIP3    H229649   6.718   6.564  10.671  0.0303 -0.9716 -0.0208
 2720TIP3   OH229650   4.749   6.419   3.688  0.1872  0.2768 -0.0694
 2720TIP3    H129651   4.703   6.376   3.616  2.5348 -1.8157 -0.3926
 2720TIP3    H229652   4.734   6.363   3.764 -1.1456  1.7573  0.8021
 2721TIP3   OH229653   6.060   4.670   2.700 -0.0121 -0.1293  0.0498
 2721TIP3    H129654   6.141   4.685   2.651  0.4210  1.1726  1.1164
 2721TIP3    H229655   5.992   4.661   2.633  0.3670  2.7600 -0.8047
 2722TIP3   OH229656   5.395   5.179  16.853 -0.1895 -0.2748  0.1772
 2722TIP3    H129657   5.380   5.241  16.781  2.4775 -0.6049 -0.7513
 2722TIP3    H229658   5.358   5.096  16.821  0.6226 -0.3223 -0.6646
 2723TIP3   OH229659   4.972   1.616   5.388  0.7990  0.4687  0.7008
 2723TIP3    H129660   4.995   1.707   5.405  1.1119  0.6383 -0.6109
 2723TIP3    H229661   4.883   1.620   5.354  1.0301  0.3381  0.0785
 2724TIP3   OH229662   0.231   4.046   4.989 -0.4480  0.5152  0.1521
 2724TIP3    H129663   0.258   4.137   5.004  0.5111  0.5423 -1.6784
 2724TIP3    H229664   0.147   4.053   4.944 -0.2640  0.4921 -0.1933
 2725TIP3   OH229665   1.989   6.724  14.245 -0.4366  0.3128  0.0078
 2725TIP3    H129666   1.986   6.804  14.298  1.2719 -1.2150  2.5295
 2725TIP3    H229667   1.914   6.673  14.274  0.7121 -0.6896  1.3291
 2726TIP3   OH229668   3.408   3.381   1.528  0.0503  0.5868 -0.1727
 2726TIP3    H129669   3.496   3.366   1.494 -0.0471  1.2037 -0.7096
 2726TIP3    H229670   3.422   3.415   1.616  0.3572  0.9470 -0.3586
 2727TIP3   OH229671   2.249   6.502  12.121  0.3132  0.0780 -0.0219
 2727TIP3    H129672   2.280   6.561  12.191 -1.8992  1.3528 -0.0827
 2727TIP3    H229673   2.308   6.520  12.048  0.0082  1.8734  0.1325
 2728TIP3   OH229674   4.806   2.985  16.717 -0.1850  0.9744 -0.3391
 2728TIP3    H129675   4.754   2.909  16.742 -0.3059  0.8528 -0.9521
 2728TIP3    H229676   4.855   2.956  16.640 -1.1396  1.8780 -1.3098
 2729TIP3   OH229677   2.714   0.402  14.195  0.2250  0.3894 -0.2195
 2729TIP3    H129678   2.787   0.459  14.221  1.6127 -0.9799 -1.0635
 2729TIP3    H229679   2.703   0.418  14.101 -1.1781  1.2542  0.0710
 2730TIP3   OH229680   2.500   6.249  12.953 -0.4590 -0.4222  0.2279
 2730TIP3    H129681   2.426   6.188  12.947 -2.4768  2.0634 -0.9568
 2730TIP3    H229682   2.508   6.286  12.865  0.9409  0.7928  0.8521
 2731TIP3   OH229683   6.215   6.194  16.701 -0.5606 -0.4075 -0.1933
 2731TIP3    H129684   6.250   6.107  16.685 -2.8929 -0.9912 -2.5122
 2731TIP3    H229685   6.292   6.251  16.706  0.8316 -2.1047 -1.8519
 2732TIP3   OH229686   6.319   1.328  13.875 -0.6760  0.7792 -0.8341
 2732TIP3    H129687   6.317   1.422  13.860  2.4151  1.5471  2.8077
 2732TIP3    H229688   6.265   1.315  13.953 -0.5767 -0.3961 -0.9478
 2733TIP3   OH229689   4.245   2.835  16.659 -0.1410  0.0494  0.9049
 2733TIP3    H129690   4.299   2.792  16.725  2.1955  0.2303 -0.8248
 2733TIP3    H229691   4.235   2.770  16.590 -1.2276  0.4193  0.6929
 2734TIP3   OH229692   3.036   2.778   2.477  0.6307 -0.8799  0.7584
 2734TIP3    H129693   2.979   2.849   2.446  1.6927  0.3557  1.6025
 2734TIP3    H229694   3.029   2.781   2.572  2.2900 -0.5607  0.8788
 2735TIP3   OH229695   2.976   3.691   0.548 -0.4039 -0.0219  0.2918
 2735TIP3    H129696   2.922   3.628   0.596  0.6996 -0.2068  1.3025
 2735TIP3    H229697   3.062   3.651   0.544 -0.8689 -0.8696 -3.4729
 2736TIP3   OH229698   6.705   2.518   0.079  0.5710  0.2587 -0.9023
 2736TIP3    H129699   6.656   2.438   0.099 -0.7657  1.1628 -0.5194
 2736TIP3    H229700   6.638   2.586   0.072  1.7811  1.5485 -0.1985
 2737TIP3   OH229701   5.101   2.816  13.376 -0.1621 -0.0794  0.0024
 2737TIP3    H129702   5.109   2.911  13.374 -2.1069  0.2078  2.7527
 2737TIP3    H229703   5.181   2.784  13.335  0.5587  2.7222 -0.8982
 2738TIP3   OH229704   3.097   3.610  14.986  0.3152 -0.2324 -0.2859
 2738TIP3    H129705   3.143   3.573  14.911  1.4918 -0.9785  0.7838
 2738TIP3    H229706   3.160   3.605  15.058 -1.3985 -1.1702  1.1904
 2739TIP3   OH229707   6.620   5.281  11.124 -0.3361  0.5997 -0.3300
 2739TIP3    H129708   6.641   5.240  11.040 -0.1984 -0.1387  0.0612
 2739TIP3    H229709   6.662   5.225  11.189  0.6442  1.8826  0.1570
 2740TIP3   OH229710   6.474   3.750  13.153  0.4947 -0.0561 -0.8844
 2740TIP3    H129711   6.437   3.758  13.065  0.5832  0.3433 -0.8868
 2740TIP3    H229712   6.431   3.820  13.203  0.0329 -0.6315 -0.4719
 2741TIP3   OH229713   3.807   1.418   3.732  0.2220 -0.5552  0.1264
 2741TIP3    H129714   3.797   1.477   3.658 -0.4058 -1.4147 -0.4878
 2741TIP3    H229715   3.718   1.397   3.758  0.4418 -0.7705  0.7113
 2742TIP3   OH229716   4.043   6.072   1.004  0.2146  0.0036  0.0492
 2742TIP3    H129717   4.105   6.127   1.051  1.3531 -1.6694  0.5677
 2742TIP3    H229718   4.018   6.123   0.928  2.0896  0.7845 -0.0596
 2743TIP3   OH229719   1.575   5.091  11.629 -0.9181 -0.1746  0.0199
 2743TIP3    H129720   1.639   5.021  11.643 -0.3316  0.3732  0.0737
 2743TIP3    H229721   1.527   5.063  11.551 -0.1949 -0.2865 -0.3917
 2744TIP3   OH229722   1.604   2.019   4.608  0.0338 -0.3858  0.2592
 2744TIP3    H129723   1.638   2.055   4.527  0.3619  0.7133  0.8637
 2744TIP3    H229724   1.553   2.091   4.647 -0.8336 -1.1689  0.6112
 2745TIP3   OH229725   0.511   6.303  16.938  0.0014  0.6860  0.1547
 2745TIP3    H129726   0.573   6.316  16.866  0.0597  0.0070  0.0782
 2745TIP3    H229727   0.525   6.378  16.996  0.9253  0.5195  0.1625
 2746TIP3   OH229728   5.567   5.828  14.656  0.5148 -0.0057 -0.2125
 2746TIP3    H129729   5.626   5.902  14.642 -0.1771  0.7909  0.9871
 2746TIP3    H229730   5.479   5.864  14.645  0.2219 -1.1974 -2.0219
 2747TIP3   OH229731   5.301   3.036  16.267 -0.1363  0.2029 -0.3940
 2747TIP3    H129732   5.386   3.054  16.307 -1.2350  0.0913  2.0473
 2747TIP3    H229733   5.298   2.940  16.258 -0.2952  0.1489  0.2071
 2748TIP3   OH229734   5.641   2.489  14.653  0.0725 -0.3458  0.5631
 2748TIP3    H129735   5.672   2.496  14.743 -0.2415 -0.5754  0.6923
 2748TIP3    H229736   5.561   2.436  14.660 -0.5640  0.5686  0.2909
 2749TIP3   OH229737   4.689   6.200  14.566  0.1481  0.2716 -0.3056
 2749TIP3    H129738   4.765   6.258  14.571  0.0398  0.3726  0.2915
 2749TIP3    H229739   4.617   6.252  14.602 -0.4340  0.5410 -1.8163
 2750TIP3   OH229740   4.973   4.793  12.935 -0.4948  0.0451  0.1742
 2750TIP3    H129741   5.014   4.864  12.985  0.7270 -1.6479  1.6399
 2750TIP3    H229742   4.887   4.782  12.976  0.1673 -0.7574  1.3903
 2751TIP3   OH229743   5.113   3.892   3.475  0.9602 -0.0950 -0.2594
 2751TIP3    H129744   5.053   3.819   3.460  0.9229 -0.1865  0.3401
 2751TIP3    H229745   5.060   3.970   3.460  0.3114 -0.1482  1.6640
 2752TIP3   OH229746   4.832   6.095   3.360 -0.1818  0.4788  0.4419
 2752TIP3    H129747   4.920   6.090   3.322  0.0543 -0.9397  1.1290
 2752TIP3    H229748   4.815   6.006   3.392 -1.0405  1.2486  2.1649
 2753TIP3   OH229749   5.690   3.974  11.668  0.6323 -0.4017 -0.3087
 2753TIP3    H129750   5.754   3.904  11.658  0.1836 -0.8549 -0.0537
 2753TIP3    H229751   5.727   4.030  11.736  0.1855 -1.3395  0.7371
 2754TIP3   OH229752   1.271   3.606  16.221 -0.1260  0.2786  0.3630
 2754TIP3    H129753   1.216   3.618  16.143 -0.2181  0.8652  0.5180
 2754TIP3    H229754   1.337   3.674  16.215  0.6367 -0.4745  0.1379
 2755TIP3   OH229755   1.507   4.409   6.422 -0.2534 -0.3998 -0.0431
 2755TIP3    H129756   1.524   4.339   6.486 -0.3071 -1.2831 -0.9770
 2755TIP3    H229757   1.521   4.367   6.337  2.9433  1.5986 -0.5697
 2756TIP3   OH229758   6.281   2.492   2.511 -0.0652  0.0357 -0.2127
 2756TIP3    H129759   6.308   2.539   2.433  0.6702 -0.2399 -0.1297
 2756TIP3    H229760   6.317   2.404   2.499 -1.0572 -0.3760 -0.1693
 2757TIP3   OH229761   6.173   0.765   3.039 -0.0880 -0.3449 -0.3388
 2757TIP3    H129762   6.224   0.716   2.975 -0.4681 -0.6835 -0.3882
 2757TIP3    H229763   6.101   0.803   2.989 -1.9416 -2.8328  0.3045
 2758TIP3   OH229764   2.881   0.505   5.488 -0.6428  0.1391  0.3740
 2758TIP3    H129765   2.976   0.489   5.488 -0.7835 -0.7291 -0.0563
 2758TIP3    H229766   2.873   0.600   5.482  0.1977  0.1619 -0.5224
 2759TIP3   OH229767   0.440   2.715  15.610  0.4922 -0.4022  0.0191
 2759TIP3    H129768   0.414   2.644  15.552  0.7655 -0.4508 -0.0421
 2759TIP3    H229769   0.416   2.685  15.697  0.7209 -0.6222  0.0051
 2760TIP3   OH229770   0.793   6.169   3.789 -0.3657  0.2809  0.1826
 2760TIP3    H129771   0.802   6.129   3.875  2.1492  1.7915  0.6844
 2760TIP3    H229772   0.882   6.170   3.753 -0.9639  1.9882 -1.3443
 2761TIP3   OH229773   2.708   2.601   5.404 -0.3686 -0.2670 -0.2070
 2761TIP3    H129774   2.628   2.640   5.369  0.3312  1.0551 -0.3542
 2761TIP3    H229775   2.711   2.514   5.365 -1.1114  0.1098 -1.1313
 2762TIP3   OH229776   1.865   1.270  14.125  0.0777  0.3496  0.5356
 2762TIP3    H129777   1.915   1.344  14.091  0.8363 -1.5104 -2.6184
 2762TIP3    H229778   1.780   1.308  14.149  1.0443  2.5345  0.5918
 2763TIP3   OH229779   1.661   0.386   6.004 -0.7524 -0.1105 -1.1178
 2763TIP3    H129780   1.728   0.396   5.936  0.2903 -1.0006 -0.2533
 2763TIP3    H229781   1.597   0.455   5.986  0.9115  1.4056 -1.3740
 2764TIP3   OH229782   6.214   0.057  15.650  0.6925  0.2263 -0.2740
 2764TIP3    H129783   6.211   0.056  15.554 -1.9415  0.9706 -0.2499
 2764TIP3    H229784   6.216  -0.035  15.675  0.4450  0.0057 -1.0389
 2765TIP3   OH229785   4.834   4.813   0.143  0.3366  0.0796 -0.0448
 2765TIP3    H129786   4.843   4.806   0.238  0.6678 -0.5670 -0.1232
 2765TIP3    H229787   4.853   4.725   0.110  0.1818  0.2909 -0.7069
 2766TIP3   OH229788   2.089   1.272  15.555  0.4419  0.3494  0.1501
 2766TIP3    H129789   2.033   1.324  15.614 -0.0429  1.5242 -1.2906
 2766TIP3    H229790   2.027   1.218  15.506  0.7400  0.2406 -0.1043
 2767TIP3   OH229791   4.774   4.669   1.116  0.9313  0.6810 -0.3570
 2767TIP3    H129792   4.813   4.736   1.171 -0.0775  1.7551 -0.9202
 2767TIP3    H229793   4.710   4.624   1.172  0.2597  1.4463 -0.4964
 2768TIP3   OH229794   1.828   4.760   1.123 -0.3743  0.4600 -0.0076
 2768TIP3    H129795   1.910   4.741   1.169  0.6766  0.8971 -1.6401
 2768TIP3    H229796   1.796   4.675   1.094  0.1311  0.3916 -0.3770
 2769TIP3   OH229797   2.520   4.901   6.519  0.3996  0.5028  0.1750
 2769TIP3    H129798   2.436   4.910   6.474  0.9037 -0.1404 -0.9061
 2769TIP3    H229799   2.513   4.820   6.568  0.8318 -0.1810 -0.8863
 2770TIP3   OH229800   1.855   2.861   2.941  0.3249 -0.1820 -0.3037
 2770TIP3    H129801   1.800   2.785   2.919  1.3103 -1.5811  1.9452
 2770TIP3    H229802   1.794   2.925   2.977 -0.0418 -1.2331  0.9733
 2771TIP3   OH229803   4.382   1.823  15.220  0.6830 -0.0256 -0.3575
 2771TIP3    H129804   4.386   1.909  15.180 -0.0739 -0.4137 -1.2789
 2771TIP3    H229805   4.291   1.796  15.212  1.3860 -1.9752 -2.3990
 2772TIP3   OH229806   1.100   2.191  15.318 -0.3164 -0.3929 -0.5985
 2772TIP3    H129807   1.108   2.245  15.239  0.4019  0.7840  0.2460
 2772TIP3    H229808   1.147   2.241  15.385 -2.0177 -0.7365  0.8928
 2773TIP3   OH229809   5.210   0.607   2.066  0.2409  0.5043  0.0399
 2773TIP3    H129810   5.297   0.583   2.033 -0.0322  0.3014 -0.5465
 2773TIP3    H229811   5.184   0.532   2.120  1.0452  1.2034  1.4153
 2774TIP3   OH229812   2.576   3.359   2.263 -0.3239  0.1304  0.5732
 2774TIP3    H129813   2.499   3.409   2.291  0.2586  0.6668  1.2263
 2774TIP3    H229814   2.627   3.421   2.212 -0.7746 -0.4936 -0.6669
 2775TIP3   OH229815   4.535   6.103   2.087  0.2151  0.5322 -0.3039
 2775TIP3    H129816   4.615   6.144   2.121  0.0724  0.7293 -0.2013
 2775TIP3    H229817   4.468   6.124   2.153  0.0485  0.4901 -0.4608
 2776TIP3   OH229818   5.234   4.938   2.642 -0.2288  0.2332  0.6441
 2776TIP3    H129819   5.157   4.890   2.612 -0.0852  0.1234  0.4458
 2776TIP3    H229820   5.230   4.935   2.737 -0.8668  0.8599  0.6379
 2777TIP3   OH229821   2.338   6.207  14.685 -0.6613 -0.0927  0.0622
 2777TIP3    H129822   2.405   6.207  14.753  0.0762  0.3242 -0.6405
 2777TIP3    H229823   2.386   6.231  14.605 -1.3003 -1.6043 -0.7952
 2778TIP3   OH229824   6.367   4.130   0.811 -0.2569  0.0809  0.1056
 2778TIP3    H129825   6.450   4.178   0.807 -0.0954  0.2361  3.5267
 2778TIP3    H229826   6.301   4.193   0.785  0.3710  1.0054  0.7180
 2779TIP3   OH229827   1.944   1.656   6.353  0.0412  0.2206 -0.0622
 2779TIP3    H129828   1.901   1.739   6.374  0.4570  0.4242  0.0015
 2779TIP3    H229829   2.038   1.677   6.356  0.1665 -0.3919  0.5612
 2780TIP3   OH229830   5.016   4.676  11.736 -0.2481  0.5521  0.2786
 2780TIP3    H129831   5.042   4.588  11.708  0.6703  0.7416  0.5174
 2780TIP3    H229832   4.969   4.662  11.819  1.0471  0.4009  0.9920
 2781TIP3   OH229833   5.876   4.189  17.066  0.0886 -0.0186  0.5366
 2781TIP3    H129834   5.785   4.212  17.086  0.1659  0.5769  0.2207
 2781TIP3    H229835   5.902   4.130  17.136 -0.6565 -0.4741  0.4364
 2782TIP3   OH229836   1.276   4.749  11.761 -0.3548  0.1869  0.0992
 2782TIP3    H129837   1.184   4.730  11.776 -0.5685  1.1932  0.0971
 2782TIP3    H229838   1.283   4.844  11.771  1.1809 -0.1675  2.8116
 2783TIP3   OH229839   6.289   3.016  12.886 -0.4217 -0.4005 -0.6439
 2783TIP3    H129840   6.369   3.036  12.837  1.3385  0.3918  2.3968
 2783TIP3    H229841   6.242   3.099  12.890  0.1315 -0.1075  0.1305
 2784TIP3   OH229842   0.479   5.514   5.861 -0.3239  0.0489  0.1266
 2784TIP3    H129843   0.438   5.577   5.920  2.1011  0.7727  1.1334
 2784TIP3    H229844   0.531   5.569   5.801  1.0904 -0.9188  0.4320
 2785TIP3   OH229845   0.156   5.857  10.620  0.2406 -0.0835 -0.3392
 2785TIP3    H129846   0.243   5.819  10.633  0.1319 -0.2043  0.0625
 2785TIP3    H229847   0.120   5.809  10.546 -0.5514 -1.9528  1.2283
 2786TIP3   OH229848   0.744   4.098   1.776  0.3009  0.0633  0.3821
 2786TIP3    H129849   0.725   4.141   1.859 -1.3472  0.8706 -0.3910
 2786TIP3    H229850   0.662   4.053   1.753  1.4605 -2.0814  0.3286
 2787TIP3   OH229851   2.560   2.182  14.548 -0.0139  0.2306 -0.3940
 2787TIP3    H129852   2.581   2.117  14.481 -0.3632 -0.5720  0.2625
 2787TIP3    H229853   2.573   2.266  14.505  1.3374 -0.2670 -0.9842
 2788TIP3   OH229854   5.123   0.635   5.175 -0.0216 -0.7767 -0.3321
 2788TIP3    H129855   5.075   0.714   5.200  1.3212 -0.2760  0.7485
 2788TIP3    H229856   5.094   0.615   5.086  0.7754  1.8394 -1.2185
 2789TIP3   OH229857   4.736   1.189  15.107  0.1826  0.2919  0.1546
 2789TIP3    H129858   4.674   1.235  15.050  1.8305  0.9415 -1.1618
 2789TIP3    H229859   4.822   1.204  15.066  1.2242 -0.4874  2.0022
 2790TIP3   OH229860   5.160   5.382  13.122 -0.1232 -0.3182  0.1395
 2790TIP3    H129861   5.111   5.350  13.197  0.0499 -2.1813 -0.5201
 2790TIP3    H229862   5.118   5.465  13.100 -1.3963 -0.6838  1.1105
 2791TIP3   OH229863   4.564   6.321  13.036 -0.0479  0.2782 -0.0224
 2791TIP3    H129864   4.473   6.311  13.062  0.2733  1.1726  1.5276
 2791TIP3    H229865   4.604   6.372  13.107  1.6366 -0.0441 -0.7052
 2792TIP3   OH229866   0.014   1.825  14.159 -0.6331  0.1759  0.1441
 2792TIP3    H129867  -0.061   1.783  14.202 -1.6104  0.2008 -1.4947
 2792TIP3    H229868   0.057   1.756  14.110 -0.4069  0.4489 -0.0473
 2793TIP3   OH229869   2.727   5.175   1.911  0.1563 -0.0688 -0.4554
 2793TIP3    H129870   2.766   5.101   1.865  0.0558 -0.6526  0.3996
 2793TIP3    H229871   2.788   5.196   1.981  0.4297  0.9842 -0.9996
 2794TIP3   OH229872   0.878   2.828  12.271  0.4601  0.4199  0.0655
 2794TIP3    H129873   0.896   2.812  12.364 -3.3146 -0.9780  0.6169
 2794TIP3    H229874   0.930   2.762  12.225 -0.6380 -1.4216  1.4076
 2795TIP3   OH229875   3.957   3.282  14.543  0.0982  0.4345 -0.5956
 2795TIP3    H129876   3.938   3.375  14.556 -0.7854  0.2627 -0.6585
 2795TIP3    H229877   3.918   3.260  14.458 -0.6336 -0.2557 -0.0839
 2796TIP3   OH229878   0.494   0.171   3.616 -0.2422 -0.3830  0.3312
 2796TIP3    H129879   0.537   0.097   3.574  1.4890  0.7315  0.0552
 2796TIP3    H229880   0.440   0.210   3.548  0.1726 -0.4031 -0.0119
 2797TIP3   OH229881   6.621   4.102   1.047 -0.4976  0.2909 -0.4666
 2797TIP3    H129882   6.657   4.100   1.136 -0.5711  1.9965 -0.3954
 2797TIP3    H229883   6.535   4.060   1.056 -0.3802  0.1867  0.2124
 2798TIP3   OH229884   5.438   3.730  16.383  0.7104  0.0187 -0.1571
 2798TIP3    H129885   5.506   3.778  16.337  0.0334  1.8935  0.7352
 2798TIP3    H229886   5.483   3.654  16.420  1.6976 -0.3134 -1.9856
 2799TIP3   OH229887   0.769   5.415  14.169 -0.1937 -0.2845 -0.4918
 2799TIP3    H129888   0.700   5.464  14.214 -0.2303 -0.5107 -0.3025
 2799TIP3    H229889   0.846   5.473  14.174 -0.6774  0.4728 -1.7371
 2800TIP3   OH229890   3.347   1.824  17.060  0.0537 -0.1688  0.0402
 2800TIP3    H129891   3.428   1.869  17.035  0.1074 -0.1572  0.2373
 2800TIP3    H229892   3.314   1.873  17.135 -0.3601  0.0837 -0.3038
 2801TIP3   OH229893   0.537   2.935   4.654 -0.8477  0.2045  0.4046
 2801TIP3    H129894   0.625   2.974   4.659  0.1723 -1.9282 -0.2380
 2801TIP3    H229895   0.506   2.957   4.566  0.0699 -1.0818 -0.2648
 2802TIP3   OH229896   1.274   4.581   0.765 -0.0826  0.3137 -0.1992
 2802TIP3    H129897   1.250   4.511   0.705 -2.6273 -0.3771  1.5420
 2802TIP3    H229898   1.276   4.540   0.852 -0.6665  2.1752  0.7353
 2803TIP3   OH229899   0.583   5.670   5.170  0.2467 -0.3764 -0.1589
 2803TIP3    H129900   0.674   5.654   5.192  0.2662 -0.0088  0.0217
 2803TIP3    H229901   0.587   5.727   5.093  0.1790 -1.4151 -0.9394
 2804TIP3   OH229902   2.145   6.231  15.963 -0.5046  0.2100  0.0592
 2804TIP3    H129903   2.051   6.226  15.948 -0.3540 -0.7806 -0.6341
 2804TIP3    H229904   2.184   6.188  15.887  0.5305  1.0104  0.1201
 2805TIP3   OH229905   6.024   4.075   0.732  0.3842  0.0193 -0.2549
 2805TIP3    H129906   6.111   4.036   0.729  0.6530  0.4145  1.5843
 2805TIP3    H229907   5.972   4.014   0.785  0.3767  1.3241  1.2572
 2806TIP3   OH229908   6.645   5.266   0.157  0.5716 -0.4584 -0.4087
 2806TIP3    H129909   6.710   5.215   0.109  0.9971  0.9646 -1.3998
 2806TIP3    H229910   6.688   5.351   0.171 -1.2169  0.6453 -1.4456
 2807TIP3   OH229911   1.858   4.291  11.924  0.0354  0.0141 -0.2122
 2807TIP3    H129912   1.828   4.380  11.945 -0.5487 -0.2894  0.2485
 2807TIP3    H229913   1.899   4.260  12.004  0.0247 -0.2240 -0.2986
 2808TIP3   OH229914   5.635   3.333  16.405  0.4462 -0.6940 -0.1932
 2808TIP3    H129915   5.686   3.285  16.339 -0.2628  0.3490 -1.5384
 2808TIP3    H229916   5.672   3.421  16.405 -1.3585  0.1068 -1.2684
 2809TIP3   OH229917   2.749   2.235  17.067  0.6791 -0.0891  0.2709
 2809TIP3    H129918   2.757   2.140  17.075 -1.8219 -0.1734  2.1981
 2809TIP3    H229919   2.746   2.267  17.157 -1.5172  1.5273 -0.3364
 2810TIP3   OH229920   4.797   2.124  14.957  0.1984 -0.4653  0.0084
 2810TIP3    H129921   4.704   2.131  14.938  0.2817  1.7141  0.2940
 2810TIP3    H229922   4.840   2.133  14.872  0.2220  0.7749  0.1401
 2811TIP3   OH229923   2.451   2.099  15.721  0.0748 -0.6829  0.2307
 2811TIP3    H129924   2.468   2.085  15.627  0.3033  1.0327  0.0024
 2811TIP3    H229925   2.530   2.144  15.753 -1.7928  2.7394  0.2789
 2812TIP3   OH229926   3.099   3.085   3.737 -0.0206 -0.7130 -0.0930
 2812TIP3    H129927   3.143   3.154   3.785  1.3852 -0.0552 -2.2523
 2812TIP3    H229928   3.029   3.129   3.689 -0.2945 -1.0909 -0.0515
 2813TIP3   OH229929   2.072   2.507   3.831 -0.3100  0.2906  0.3407
 2813TIP3    H129930   2.057   2.601   3.837 -0.4430  0.4892 -2.4101
 2813TIP3    H229931   2.087   2.491   3.738  0.3844 -2.3163  0.8552
 2814TIP3   OH229932   1.752   3.651  10.913 -0.3734 -0.2927 -0.1877
 2814TIP3    H129933   1.813   3.644  10.987 -0.4162  2.3365  0.1694
 2814TIP3    H229934   1.785   3.589  10.848  2.1530  0.3913  0.3880
 2815TIP3   OH229935   5.243   1.074  13.926  0.2552 -0.0191  0.5995
 2815TIP3    H129936   5.162   1.030  13.952 -0.0101  0.7671  1.1011
 2815TIP3    H229937   5.306   1.049  13.993  0.7714 -1.6041 -0.4274
 2816TIP3   OH229938   1.730   3.427   0.623  0.0526 -0.1464 -0.2518
 2816TIP3    H129939   1.772   3.495   0.676  0.3689 -0.0815 -0.5843
 2816TIP3    H229940   1.712   3.470   0.540  0.9145 -0.6838 -0.7187
 2817TIP3   OH229941   5.090   5.369  13.397 -0.0585 -0.1211  0.3946
 2817TIP3    H129942   5.166   5.418  13.429 -1.4353  0.8896  2.2458
 2817TIP3    H229943   5.094   5.285  13.444 -0.5455  0.2674  1.1368
 2818TIP3   OH229944   3.427   5.567   2.941 -0.2997  0.4144  0.1241
 2818TIP3    H129945   3.465   5.481   2.923  0.0118  0.8125 -1.1754
 2818TIP3    H229946   3.333   5.550   2.951 -0.3207  0.0007 -0.7223
 2819TIP3   OH229947   4.504   1.736   5.708 -0.2158  0.1791 -0.1600
 2819TIP3    H129948   4.419   1.700   5.735 -0.0780 -0.1541 -0.1697
 2819TIP3    H229949   4.567   1.696   5.768  0.0556 -0.3256 -0.7698
 2820TIP3   OH229950   6.779   3.339  15.782 -0.0455 -0.2463  0.0547
 2820TIP3    H129951   6.806   3.387  15.703  0.9093  0.5970  0.8860
 2820TIP3    H229952   6.861   3.311  15.822 -0.4167  1.1992  1.8897
 2821TIP3   OH229953   0.475   0.058   1.589 -0.1229 -0.2916  0.2216
 2821TIP3    H129954   0.436   0.017   1.512 -0.0474  0.1574 -0.0557
 2821TIP3    H229955   0.505  -0.016   1.642 -1.5519 -0.6455  0.5595
 2822TIP3   OH229956   2.728   6.092  11.597  0.0657  0.5061  0.4773
 2822TIP3    H129957   2.639   6.083  11.632  0.7271 -0.7782  1.8980
 2822TIP3    H229958   2.766   6.004  11.607  1.8961  1.3430  1.0664
 2823TIP3   OH229959   3.528   3.138   4.325 -0.2937  0.6036  0.0048
 2823TIP3    H129960   3.454   3.127   4.384  0.5393  1.5542  1.2563
 2823TIP3    H229961   3.561   3.050   4.308 -1.7298  0.1783 -0.5933
 2824TIP3   OH229962   1.774   6.189  12.946 -0.5301  0.0332 -0.0039
 2824TIP3    H129963   1.741   6.275  12.971 -0.5102  0.4448 -1.3329
 2824TIP3    H229964   1.850   6.175  13.002  1.6958  2.5137 -2.2524
 2825TIP3   OH229965   2.211   5.286   3.787 -0.0442 -0.1059 -0.1246
 2825TIP3    H129966   2.268   5.243   3.851  0.7989 -1.2108 -1.5985
 2825TIP3    H229967   2.208   5.226   3.713 -0.5097  1.4465 -1.3931
 2826TIP3   OH229968   0.587   1.701  16.730 -0.0185  0.0694 -0.0001
 2826TIP3    H129969   0.574   1.606  16.739  2.4732 -0.4039 -0.8528
 2826TIP3    H229970   0.679   1.710  16.704 -1.1509  2.5031 -3.5927
 2827TIP3   OH229971   3.469   2.020   5.726  0.1978  0.4485  0.0787
 2827TIP3    H129972   3.422   1.965   5.789  0.7732  0.2414  0.3354
 2827TIP3    H229973   3.436   1.992   5.641  1.6924 -1.5012  0.0880
 2828TIP3   OH229974   2.395   3.294  11.778 -0.5679 -0.0247  0.0381
 2828TIP3    H129975   2.338   3.371  11.780  0.5944  0.8806  3.8717
 2828TIP3    H229976   2.482   3.328  11.758 -0.3067 -0.5280  0.2960
 2829TIP3   OH229977   4.233   5.357   6.400 -0.1068  0.5280  0.0234
 2829TIP3    H129978   4.279   5.440   6.386  1.1931 -0.4340 -1.6259
 2829TIP3    H229979   4.283   5.314   6.469 -0.8281  1.1459  0.9350
 2830TIP3   OH229980   1.188   5.813   1.594 -0.1643  0.0544  0.8873
 2830TIP3    H129981   1.163   5.885   1.651  2.5746  0.0167  2.2449
 2830TIP3    H229982   1.221   5.855   1.514 -1.3907  0.1938  0.4507
 2831TIP3   OH229983   6.382   6.559  12.368  0.5890  0.3338  0.1051
 2831TIP3    H129984   6.326   6.600  12.434  0.6328 -1.2039  1.1250
 2831TIP3    H229985   6.461   6.533  12.416  0.3755 -1.3239 -0.3923
 2832TIP3   OH229986   5.426   4.933  12.267  0.2390 -0.2472 -0.6068
 2832TIP3    H129987   5.425   5.011  12.323  1.1563 -0.1563 -0.7084
 2832TIP3    H229988   5.475   4.868  12.317 -0.5907 -0.7901 -0.4921
 2833TIP3   OH229989   0.865   3.384  13.198 -0.6620  0.3966  0.0659
 2833TIP3    H129990   0.881   3.362  13.106  4.2532 -0.0026  0.8345
 2833TIP3    H229991   0.892   3.476  13.206 -1.3735  0.5323  1.0506
 2834TIP3   OH229992   2.107   2.676   2.359 -0.0379 -0.4600  0.2827
 2834TIP3    H129993   2.117   2.766   2.329 -0.5051  0.0129  1.4900
 2834TIP3    H229994   2.014   2.657   2.346  0.2453 -1.0883 -0.8276
 2835TIP3   OH229995   5.045   3.815   0.203 -0.3196 -0.6064 -0.5623
 2835TIP3    H129996   5.137   3.813   0.229 -1.0209 -2.1314  1.9795
 2835TIP3    H229997   5.001   3.758   0.266 -3.1686  0.9073 -1.0905
 2836TIP3   OH229998   2.876   6.300  17.249  0.3129 -0.0671  0.1903
 2836TIP3    H129999   2.950   6.338  17.202  2.1132 -1.3360  1.9433
 2836TIP3    H230000   2.819   6.267  17.179  0.6430  2.2146 -1.2169
 2837TIP3   OH230001   5.023   2.092   1.132 -0.3405  1.1101 -0.0513
 2837TIP3    H130002   4.948   2.086   1.191  0.7943 -0.5572  1.2680
 2837TIP3    H230003   5.097   2.114   1.188  1.0083 -1.7506 -0.5763
 2838TIP3   OH230004   2.741   5.697  13.003 -0.2252 -0.3253 -0.2389
 2838TIP3    H130005   2.722   5.789  13.023  0.4998  0.1068 -1.4330
 2838TIP3    H230006   2.696   5.647  13.070 -1.0518  0.8954  0.1214
 2839TIP3   OH230007   1.027   4.575   3.614 -0.1760 -0.1215 -0.8711
 2839TIP3    H130008   1.080   4.535   3.545  1.6100  0.0419  0.3828
 2839TIP3    H230009   1.077   4.652   3.641 -1.1017  0.0973  0.2619
 2840TIP3   OH230010   2.449   3.807   4.335  0.5577 -0.0489 -0.1696
 2840TIP3    H130011   2.387   3.811   4.261  0.0384  1.2798  0.3211
 2840TIP3    H230012   2.453   3.897   4.367 -0.0129 -0.8027  2.0854
 2841TIP3   OH230013   2.726   4.125  14.955  0.6277  0.0296 -0.1961
 2841TIP3    H130014   2.665   4.150  14.885  1.6715  0.4737 -0.9675
 2841TIP3    H230015   2.813   4.135  14.915  1.2367  0.3612  1.2021
 2842TIP3   OH230016   1.481   1.811   4.744 -0.2182  0.4239  0.0031
 2842TIP3    H130017   1.547   1.744   4.766  1.7337  2.9661  2.2876
 2842TIP3    H230018   1.532   1.883   4.707 -1.8180  2.1196  1.0354
 2843TIP3   OH230019   0.315   3.864  13.143  0.0002  0.0114  0.1434
 2843TIP3    H130020   0.317   3.771  13.165  1.0244  0.1205  0.5312
 2843TIP3    H230021   0.262   3.904  13.211 -1.2897 -0.4266 -0.5871
 2844TIP3   OH230022   2.376   2.018   1.125 -0.0783  0.0681  0.3536
 2844TIP3    H130023   2.342   1.929   1.142  0.4888  0.1222  1.8108
 2844TIP3    H230024   2.359   2.066   1.206  0.0366  1.1777 -0.2677
 2845TIP3   OH230025   5.668   3.595  16.451 -0.2401  0.2684 -0.4459
 2845TIP3    H130026   5.720   3.633  16.380 -0.1337 -0.2301 -0.6369
 2845TIP3    H230027   5.709   3.627  16.531 -0.3368  0.8009 -0.6112
 2846TIP3   OH230028   4.089   2.541   4.042 -0.2352  0.1994  0.2737
 2846TIP3    H130029   4.177   2.546   4.005 -0.5497  0.6726 -0.4131
 2846TIP3    H230030   4.039   2.608   3.995 -0.7994  0.3659  1.1068
 2847TIP3   OH230031   0.411   3.474  11.343 -0.1952  0.1858 -0.3095
 2847TIP3    H130032   0.347   3.490  11.274 -0.3000  0.7068 -0.0935
 2847TIP3    H230033   0.453   3.559  11.357  1.7247 -0.5060 -1.6243
 2848TIP3   OH230034   0.347   2.005   5.988  0.0537  0.0069  0.3952
 2848TIP3    H130035   0.377   2.063   6.057  0.3375  0.0784  0.2125
 2848TIP3    H230036   0.349   1.917   6.027  0.1474  0.0558  0.4995
 2849TIP3   OH230037   4.162   1.924   6.337  0.0297 -0.6116  0.2810
 2849TIP3    H130038   4.225   1.985   6.375 -0.4091  0.5116 -0.7589
 2849TIP3    H230039   4.082   1.936   6.389  0.0483 -0.5402  0.2925
 2850TIP3   OH230040   5.484   5.334  15.888 -0.3680  0.1367 -0.3961
 2850TIP3    H130041   5.462   5.418  15.847  3.1138  2.1976  1.7284
 2850TIP3    H230042   5.511   5.357  15.977  0.4635 -3.2807  0.2953
 2851TIP3   OH230043   1.888   4.128  16.890 -0.3658 -0.6302 -0.1307
 2851TIP3    H130044   1.894   4.212  16.934 -4.9871  0.4601 -1.3305
 2851TIP3    H230045   1.877   4.064  16.961 -1.2943  0.3246  0.5992
 2852TIP3   OH230046   2.415   1.644  17.257  1.0251 -0.5464 -0.0880
 2852TIP3    H130047   2.344   1.581  17.263  0.3768  0.2514  0.8193
 2852TIP3    H230048   2.394   1.710  17.323  1.3764  0.9332 -1.4343
 2853TIP3   OH230049   0.261   4.472   2.108  0.4802  0.6125 -0.3986
 2853TIP3    H130050   0.306   4.396   2.145 -1.2253  0.4428  1.3730
 2853TIP3    H230051   0.326   4.512   2.050  2.0007 -1.1576  0.0367
 2854TIP3   OH230052   5.852   0.553  14.551 -0.0303  0.0700  0.1137
 2854TIP3    H130053   5.900   0.577  14.472  0.2745 -1.9040 -0.3239
 2854TIP3    H230054   5.785   0.621  14.560  0.1749  0.5272 -1.6306
 2855TIP3   OH230055   5.234   2.441   4.568 -0.2337 -0.2728  0.1084
 2855TIP3    H130056   5.173   2.417   4.498 -0.0598 -0.7935  0.1348
 2855TIP3    H230057   5.184   2.501   4.623 -1.2348 -1.8595  0.9634
 2856TIP3   OH230058   1.890   2.653  10.880 -0.2775  0.2852 -0.3317
 2856TIP3    H130059   1.979   2.646  10.917  0.6252 -2.0009 -2.8186
 2856TIP3    H230060   1.900   2.714  10.807 -0.4473 -1.1292 -1.5319
 2857TIP3   OH230061   4.447   2.134  16.005  0.1500 -0.0055  0.5508
 2857TIP3    H130062   4.485   2.170  15.925 -0.9099  1.3487  0.6333
 2857TIP3    H230063   4.522   2.120  16.063  0.8624 -0.4750 -0.4699
 2858TIP3   OH230064   2.364   2.879  14.944 -0.3906 -0.5415 -0.4194
 2858TIP3    H130065   2.328   2.866  15.032 -0.1958 -0.7332 -0.3687
 2858TIP3    H230066   2.412   2.962  14.951  0.0137 -0.7889 -0.2186
 2859TIP3   OH230067   1.456   3.899  16.453  0.3661 -0.3579  0.3175
 2859TIP3    H130068   1.443   3.862  16.366  0.1552 -1.5674  0.8466
 2859TIP3    H230069   1.376   3.949  16.470  0.3937 -0.1465 -0.1556
 2860TIP3   OH230070   0.364   3.014   2.680 -0.1803  0.8854 -0.2976
 2860TIP3    H130071   0.444   3.047   2.638  1.2157 -0.9559  0.8238
 2860TIP3    H230072   0.392   2.935   2.726 -2.7905 -0.1444 -0.3830
 2861TIP3   OH230073   3.026   4.098   0.849 -0.1537 -0.2468 -0.0018
 2861TIP3    H130074   2.974   4.105   0.929  0.4897  0.0769  0.3957
 2861TIP3    H230075   3.059   4.187   0.834  1.5627 -0.7650  0.6322
 2862TIP3   OH230076   0.546   4.456  13.511  0.4422  0.5291  0.2791
 2862TIP3    H130077   0.587   4.542  13.518 -0.3185  0.9956 -0.8500
 2862TIP3    H230078   0.542   4.439  13.417 -0.9636  0.0057  0.4308
 2863TIP3   OH230079   5.925   6.485   0.822 -0.7186 -0.3939  0.5679
 2863TIP3    H130080   5.944   6.392   0.805  0.0805 -0.1083 -0.1705
 2863TIP3    H230081   5.833   6.487   0.845 -0.9423 -1.2779 -0.2077
 2864TIP3   OH230082   0.239   2.145   4.500 -0.0998 -0.0118 -0.0848
 2864TIP3    H130083   0.171   2.167   4.437  0.0712  1.1749  0.1345
 2864TIP3    H230084   0.244   2.049   4.498 -1.3394 -0.0673 -0.5493
 2865TIP3   OH230085   5.935   0.210   6.277 -0.3838  0.1242 -0.2077
 2865TIP3    H130086   5.887   0.262   6.342  0.6794  1.0883 -0.1775
 2865TIP3    H230087   5.941   0.267   6.201 -0.1365 -0.3639 -0.5560
 2866TIP3   OH230088   0.357   0.213   6.357 -0.2997 -0.3580 -0.0312
 2866TIP3    H130089   0.296   0.275   6.316  0.3524  2.9197  3.6693
 2866TIP3    H230090   0.316   0.192   6.441  2.3261 -0.2575  1.3052
 2867TIP3   OH230091   4.613   5.196   0.275  0.5056 -0.2598 -0.1055
 2867TIP3    H130092   4.674   5.253   0.322 -0.6416  0.5921  0.3806
 2867TIP3    H230093   4.545   5.175   0.339  0.1300 -0.9518 -0.7174
 2868TIP3   OH230094   6.271   0.231   4.222  0.0066 -0.0811  0.2163
 2868TIP3    H130095   6.209   0.177   4.173 -1.1401 -0.0714  1.6239
 2868TIP3    H230096   6.230   0.243   4.308  1.5599  0.6531  0.8806
 2869TIP3   OH230097   1.646   4.694   3.885 -0.9915  0.0741 -0.0752
 2869TIP3    H130098   1.636   4.764   3.951  2.1118  0.7541 -0.2161
 2869TIP3    H230099   1.686   4.622   3.934  0.3888  0.2213 -0.9452
 2870TIP3   OH230100   1.676   1.667   1.959  0.7077  0.7485  0.2828
 2870TIP3    H130101   1.667   1.756   1.924  0.8383  1.8080  2.8238
 2870TIP3    H230102   1.606   1.659   2.023 -0.0049 -1.4240 -0.7337
 2871TIP3   OH230103   1.618   4.154   2.575 -0.2975 -0.3659 -0.2424
 2871TIP3    H130104   1.529   4.175   2.550 -0.6296 -1.7751 -0.3020
 2871TIP3    H230105   1.631   4.198   2.659 -0.6096  0.8817 -0.8466
 2872TIP3   OH230106   6.289   5.564  13.843  0.4701 -0.1469  0.0881
 2872TIP3    H130107   6.380   5.570  13.874  0.5023  2.5796 -0.3959
 2872TIP3    H230108   6.239   5.618  13.905 -0.4562  0.1348 -0.8861
 2873TIP3   OH230109   5.506   0.791   4.955  0.0721  0.3378 -0.0377
 2873TIP3    H130110   5.456   0.760   5.030 -0.0457 -0.2414 -0.3540
 2873TIP3    H230111   5.579   0.729   4.947 -0.7489 -0.4889 -1.3066
 2874TIP3   OH230112   3.563   6.761   3.135  0.1925 -0.2351 -1.0740
 2874TIP3    H130113   3.638   6.810   3.101  0.3558  0.5752  0.4138
 2874TIP3    H230114   3.519   6.822   3.193 -1.6707 -0.6955 -1.9763
 2875TIP3   OH230115   5.339   3.604  15.486 -0.5264 -0.1348 -0.4283
 2875TIP3    H130116   5.343   3.542  15.559 -0.0310 -0.6317 -0.8729
 2875TIP3    H230117   5.387   3.561  15.415 -1.3393  0.1640 -1.1760
 2876TIP3   OH230118   0.086   3.298   3.652 -0.7017 -0.1742 -0.6593
 2876TIP3    H130119   0.135   3.246   3.589  1.1929 -0.4698  1.0095
 2876TIP3    H230120   0.115   3.388   3.636 -3.0467  0.2600 -2.7059
 2877TIP3   OH230121   6.809   0.745   0.740  0.5835 -0.0129 -0.4576
 2877TIP3    H130122   6.891   0.773   0.782 -0.5690 -1.9665  3.3014
 2877TIP3    H230123   6.758   0.825   0.731  0.3282  0.3096  3.2652
 2878TIP3   OH230124   6.593   5.710   5.692 -0.2024 -0.0503  0.0400
 2878TIP3    H130125   6.532   5.767   5.644  0.0082  1.5179  1.5568
 2878TIP3    H230126   6.593   5.746   5.781  3.0800  0.1274  0.0403
 2879TIP3   OH230127   4.846   2.662  11.743  0.5308  0.1585  0.5199
 2879TIP3    H130128   4.846   2.665  11.648 -0.4695  0.4217  0.5234
 2879TIP3    H230129   4.794   2.738  11.770  0.1817 -0.3230  1.2487
 2880TIP3   OH230130   2.727   5.486   5.388  0.1766  0.5172  0.2078
 2880TIP3    H130131   2.807   5.527   5.420 -0.2179  1.9574 -0.5841
 2880TIP3    H230132   2.757   5.408   5.342  0.9393 -0.1431  1.8298
 2881TIP3   OH230133   2.161   3.061   4.154 -0.4050 -0.1616  0.0035
 2881TIP3    H130134   2.252   3.073   4.126 -0.1882  1.2607  1.2828
 2881TIP3    H230135   2.152   2.966   4.166  1.1947 -0.2234  0.8213
 2882TIP3   OH230136   4.011   0.928  16.236 -0.5038 -0.1434  0.6784
 2882TIP3    H130137   3.938   0.923  16.174 -0.2331 -1.9679  0.4990
 2882TIP3    H230138   3.980   0.881  16.313  0.7386 -1.5280  0.3459
 2883TIP3   OH230139   4.677   4.365  11.826  0.5847  0.8264  0.3174
 2883TIP3    H130140   4.772   4.368  11.820  0.5937  1.8868  0.9690
 2883TIP3    H230141   4.647   4.371  11.735  1.0866  2.8144  0.2613
 2884TIP3   OH230142   1.753   0.046   0.353  0.8334 -0.0001 -0.4371
 2884TIP3    H130143   1.663   0.077   0.353  1.3247  1.6653  2.8415
 2884TIP3    H230144   1.806   0.126   0.352  2.1876 -0.8310  1.6861
 2885TIP3   OH230145   0.572   1.055  10.927 -0.4973  0.0707  0.4362
 2885TIP3    H130146   0.640   1.068  10.993  0.1933  2.4655 -0.6763
 2885TIP3    H230147   0.571   0.961  10.910  3.1870  0.1008 -0.1902
 2886TIP3   OH230148   2.704   4.268  11.743 -0.5184  0.3269  0.4505
 2886TIP3    H130149   2.789   4.300  11.774 -0.9802  0.7156  1.3124
 2886TIP3    H230150   2.649   4.346  11.740 -0.8600  0.0722 -0.0971
 2887TIP3   OH230151   6.780   3.032  14.783  0.3057  0.0298  0.8257
 2887TIP3    H130152   6.822   3.114  14.756  1.4535 -0.5196  0.9343
 2887TIP3    H230153   6.743   2.996  14.702 -0.0909  0.5885  0.7555
 2888TIP3   OH230154   0.496   2.102   3.914  0.2090 -0.4942 -0.2287
 2888TIP3    H130155   0.546   2.170   3.870 -0.0254 -1.2925 -1.7915
 2888TIP3    H230156   0.551   2.075   3.987  0.5996  0.8936  0.0012
 2889TIP3   OH230157   5.727   1.682  15.000 -0.4304 -0.6113  0.3924
 2889TIP3    H130158   5.734   1.710  14.909 -0.8799 -0.0276  0.5338
 2889TIP3    H230159   5.810   1.706  15.040 -1.1787  1.4657  0.7620
 2890TIP3   OH230160   4.478   1.241  14.979  0.1401 -0.4419 -0.4443
 2890TIP3    H130161   4.489   1.335  14.992 -0.8786 -0.3510 -0.2018
 2890TIP3    H230162   4.393   1.233  14.936  0.2649 -1.2509 -0.5405
 2891TIP3   OH230163   0.826   3.014   1.603  1.0476  0.5111 -0.0678
 2891TIP3    H130164   0.757   2.959   1.640 -1.1567  1.8662 -1.9764
 2891TIP3    H230165   0.782   3.097   1.584  3.0003  1.1204 -2.1076
 2892TIP3   OH230166   5.514   1.197  15.328  0.4298 -0.2267  0.9966
 2892TIP3    H130167   5.547   1.138  15.396 -2.0056 -1.9726  0.7407
 2892TIP3    H230168   5.549   1.162  15.246 -1.4473 -1.7293  0.7872
 2893TIP3   OH230169   3.831   3.691   6.705  0.0933 -0.5282  0.5259
 2893TIP3    H130170   3.736   3.698   6.704  0.1383  0.4728  1.6714
 2893TIP3    H230171   3.853   3.647   6.623 -1.3842 -1.2397  0.5019
 2894TIP3   OH230172   0.821   1.874  14.842  0.0375  0.0723 -0.4243
 2894TIP3    H130173   0.908   1.837  14.853 -0.4131 -0.7567  0.4189
 2894TIP3    H230174   0.796   1.904  14.930 -0.8044 -0.3204 -0.5278
 2895TIP3   OH230175   5.342   3.787  15.106 -0.2042 -0.9045 -0.2887
 2895TIP3    H130176   5.420   3.816  15.154  0.5674 -1.2469 -1.3054
 2895TIP3    H230177   5.276   3.853  15.125  1.6086  1.7929 -2.8307
 2896TIP3   OH230178   6.594   5.730  11.330  0.3828 -0.2385  0.2429
 2896TIP3    H130179   6.563   5.806  11.379  0.8827  0.4964 -0.5628
 2896TIP3    H230180   6.674   5.703  11.375  1.2347  0.8774 -0.5795
 2897TIP3   OH230181   5.401   1.605   0.924  0.0373 -0.1042 -0.1195
 2897TIP3    H130182   5.341   1.643   0.859 -1.1069  1.0717  1.5776
 2897TIP3    H230183   5.369   1.516   0.937 -0.2101 -0.0834 -0.5845
 2898TIP3   OH230184   1.586   6.350   1.714 -0.1390 -0.0203 -0.6046
 2898TIP3    H130185   1.670   6.307   1.728 -0.5842 -0.7919 -0.2805
 2898TIP3    H230186   1.591   6.428   1.770  0.8113  0.5554 -1.4817
 2899TIP3   OH230187   5.417   5.698  15.478  0.1653  0.0366 -0.0405
 2899TIP3    H130188   5.362   5.737  15.410  0.1939  1.1356  0.5480
 2899TIP3    H230189   5.444   5.614  15.442 -0.2706  0.3692 -1.1626
 2900TIP3   OH230190   2.222   6.640  16.254  0.3359  0.0102  0.2179
 2900TIP3    H130191   2.208   6.545  16.261  0.9341 -0.4068 -3.1516
 2900TIP3    H230192   2.140   6.673  16.217  1.8051  0.0334 -3.2439
 2901TIP3   OH230193   2.755   4.303  13.835  0.2232 -0.6679  0.3333
 2901TIP3    H130194   2.777   4.385  13.877  1.5220  0.1906 -1.9197
 2901TIP3    H230195   2.665   4.315  13.805  1.5067  1.3003 -2.9910
 2902TIP3   OH230196   4.965   0.391   1.477  0.0065  0.5093  0.8685
 2902TIP3    H130197   5.058   0.382   1.499 -0.3210  0.6885  2.3875
 2902TIP3    H230198   4.950   0.325   1.408  1.4869  1.2254 -0.1592
 2903TIP3   OH230199   4.096   2.562  13.539 -0.4403  0.7138 -0.1420
 2903TIP3    H130200   4.116   2.522  13.623  0.1594  1.1779 -0.0582
 2903TIP3    H230201   4.171   2.540  13.483 -1.5722 -0.9625 -1.0485
 2904TIP3   OH230202   6.759   1.140   5.792  0.6623 -0.1847 -0.4776
 2904TIP3    H130203   6.785   1.056   5.754 -0.3385 -0.8776  0.3785
 2904TIP3    H230204   6.791   1.205   5.729 -0.2705 -1.2833 -2.1165
 2905TIP3   OH230205   2.284   6.427   5.813 -0.7983  0.6064 -0.0006
 2905TIP3    H130206   2.264   6.513   5.775 -2.4279  0.5812  0.7673
 2905TIP3    H230207   2.296   6.445   5.906  2.1118  0.5024 -0.3131
 2906TIP3   OH230208   6.597   0.449  15.817 -0.1780  0.0784 -0.1598
 2906TIP3    H130209   6.640   0.534  15.819  1.4937 -0.7669  1.0272
 2906TIP3    H230210   6.504   0.468  15.828  0.3578  1.6398  1.8275
 2907TIP3   OH230211   2.391   5.915   1.752 -0.4592 -0.7004 -0.2998
 2907TIP3    H130212   2.476   5.876   1.733 -0.3410 -0.7703  0.3628
 2907TIP3    H230213   2.367   5.878   1.837  0.1017  1.4285  0.7997
 2908TIP3   OH230214   3.416   2.031   6.399  0.2799 -0.2002 -0.2931
 2908TIP3    H130215   3.435   2.043   6.492 -2.2213  0.0326  0.2276
 2908TIP3    H230216   3.395   2.119   6.367 -1.0866 -0.6050 -0.5313
 2909TIP3   OH230217   2.753   6.008  12.000  0.4588 -0.6243 -0.0378
 2909TIP3    H130218   2.692   6.040  12.066 -1.1965  1.1809 -2.3648
 2909TIP3    H230219   2.808   6.084  11.979  2.2123 -1.6925  0.6046
 2910TIP3   OH230220   6.696   5.844  15.390  0.3156  0.3223  0.2265
 2910TIP3    H130221   6.704   5.791  15.469 -0.7207 -0.2842 -0.0610
 2910TIP3    H230222   6.603   5.836  15.366  1.1222 -1.5987 -2.4692
 2911TIP3   OH230223   3.926   5.882  13.380 -0.2574 -0.1823  0.1920
 2911TIP3    H130224   3.856   5.920  13.435  0.8829  0.1472  1.4505
 2911TIP3    H230225   3.879   5.843  13.306 -1.8775 -0.9108  1.5429
 2912TIP3   OH230226   3.553   2.264  13.742 -0.2814 -0.4255 -0.1739
 2912TIP3    H130227   3.541   2.174  13.710 -0.0262 -0.2033 -0.9054
 2912TIP3    H230228   3.558   2.317  13.662  2.7916 -0.1519  0.1272
 2913TIP3   OH230229   0.555   4.808   5.229  0.4098  0.1148  0.5121
 2913TIP3    H130230   0.556   4.728   5.282 -0.2664 -0.4646 -0.3343
 2913TIP3    H230231   0.521   4.875   5.287  0.3936 -0.3458  1.0418
 2914TIP3   OH230232   0.411   4.872  14.300  0.4565 -0.3773  0.0844
 2914TIP3    H130233   0.504   4.892  14.305  0.4569 -0.4513  0.4013
 2914TIP3    H230234   0.388   4.882  14.208  0.2875  1.8210  0.3414
 2915TIP3   OH230235   6.179   5.415   0.870  0.0436 -0.0000  0.2189
 2915TIP3    H130236   6.102   5.397   0.815 -0.5092  0.2045  0.9160
 2915TIP3    H230237   6.159   5.372   0.953  0.2482  0.9028  0.7374
 2916TIP3   OH230238   3.343   5.369   1.763 -0.5271 -0.3700 -0.2910
 2916TIP3    H130239   3.366   5.361   1.856  0.7542  1.5198 -0.4285
 2916TIP3    H230240   3.355   5.280   1.728 -0.1285 -0.9015  1.1377
 2917TIP3   OH230241   5.315   3.467  13.539 -0.2849 -0.3291  0.5767
 2917TIP3    H130242   5.385   3.403  13.525 -0.7946 -0.8718  0.4845
 2917TIP3    H230243   5.360   3.550  13.547  0.3908 -0.7032  0.7222
 2918TIP3   OH230244   5.042   0.287  13.607 -0.6495  0.4885  0.1773
 2918TIP3    H130245   5.049   0.290  13.512 -2.0965 -0.4224  0.0190
 2918TIP3    H230246   4.949   0.300  13.624 -0.7377 -1.4555  1.3513
 2919TIP3   OH230247   2.859   5.192   1.535  0.4562 -0.5166  0.7137
 2919TIP3    H130248   2.818   5.239   1.462  0.7458  0.3067  1.0762
 2919TIP3    H230249   2.798   5.120   1.554 -0.4765  0.2711  0.7797
 2920TIP3   OH230250   0.928   2.298  12.803 -0.4950  0.2481  0.0278
 2920TIP3    H130251   0.850   2.258  12.842 -0.1001  0.2049  0.7964
 2920TIP3    H230252   0.895   2.352  12.732 -1.2712  0.5451  0.6029
 2921TIP3   OH230253   0.274   2.774   2.197  0.3703 -0.2913 -0.3534
 2921TIP3    H130254   0.324   2.747   2.120  0.7400  0.2691 -0.3193
 2921TIP3    H230255   0.270   2.696   2.252  0.8422 -0.4591 -0.5521
 2922TIP3   OH230256   4.110   6.136  14.915  0.2549 -0.0338 -0.8137
 2922TIP3    H130257   4.100   6.176  14.829 -0.2005  0.2678 -0.6215
 2922TIP3    H230258   4.164   6.197  14.964 -0.6928  0.4992 -0.4226
 2923TIP3   OH230259   6.809   6.403  13.720  0.4154  0.4295  0.5636
 2923TIP3    H130260   6.832   6.360  13.638 -0.5665 -0.1953  0.6141
 2923TIP3    H230261   6.746   6.344  13.762  0.9027  0.7462  1.7660
 2924TIP3   OH230262   4.070   3.824  16.364 -0.0441 -0.1290  0.2592
 2924TIP3    H130263   4.110   3.740  16.386 -1.4419 -1.2177 -1.1922
 2924TIP3    H230264   4.143   3.881  16.342  1.1530 -0.0379  4.1207
 2925TIP3   OH230265   6.522   0.311  15.541  0.5983  0.1534 -0.4621
 2925TIP3    H130266   6.559   0.232  15.579 -1.1551  0.0670  1.1149
 2925TIP3    H230267   6.536   0.379  15.608  0.0975  0.6611 -0.8673
 2926TIP3   OH230268   1.715   6.109  14.390  0.2898 -0.1264 -0.0526
 2926TIP3    H130269   1.772   6.178  14.424  0.5379  0.0504 -0.8135
 2926TIP3    H230270   1.628   6.132  14.422  0.8834 -1.3121  2.5208
 2927TIP3   OH230271   2.969   3.198   4.629  0.9652  0.6255  0.1235
 2927TIP3    H130272   2.954   3.146   4.708 -0.8763 -0.7625 -1.0942
 2927TIP3    H230273   2.947   3.287   4.654 -0.9048 -0.0190  0.8422
 2928TIP3   OH230274   3.789   0.669  15.650  0.2987 -0.2004  0.7490
 2928TIP3    H130275   3.758   0.578  15.650  1.1197 -0.4887  1.0373
 2928TIP3    H230276   3.885   0.661  15.652  0.3948  0.6674 -0.2129
 2929TIP3   OH230277   2.118   1.774  14.861 -0.2722  0.1627 -0.8745
 2929TIP3    H130278   2.086   1.833  14.929  0.3444 -0.2560 -0.2150
 2929TIP3    H230279   2.039   1.738  14.822 -0.6394 -1.8913  1.6286
 2930TIP3   OH230280   2.146   1.247   3.713  0.4803  0.1060 -0.6264
 2930TIP3    H130281   2.164   1.164   3.670  1.7720 -0.2601  0.5871
 2930TIP3    H230282   2.176   1.235   3.803 -1.4878  1.1050  0.2125
 2931TIP3   OH230283   0.929   0.619   1.057 -0.2856 -0.4959  0.0524
 2931TIP3    H130284   0.915   0.525   1.068  1.1004 -0.6315  0.7926
 2931TIP3    H230285   0.976   0.645   1.136 -0.9753  0.8913  0.0142
 2932TIP3   OH230286   6.074   5.699   4.204  0.3357  0.1368  0.0299
 2932TIP3    H130287   6.140   5.674   4.269 -0.0128  0.2427  0.4213
 2932TIP3    H230288   6.116   5.681   4.120  0.6790 -0.2714  0.2851
 2933TIP3   OH230289   1.110   2.092  13.367  0.1082 -0.3888 -0.3304
 2933TIP3    H130290   1.081   2.180  13.389 -0.7502 -0.9291  0.7571
 2933TIP3    H230291   1.097   2.086  13.272 -2.1440 -0.1507 -0.0739
 2934TIP3   OH230292   4.064   2.860   2.249 -0.2765 -0.7152 -0.1627
 2934TIP3    H130293   4.126   2.918   2.205 -1.4026  0.2263 -0.5388
 2934TIP3    H230294   4.057   2.784   2.191  0.1139 -0.5823 -0.3877
 2935TIP3   OH230295   5.712   2.593  16.780  0.4652 -0.1012 -0.8082
 2935TIP3    H130296   5.768   2.546  16.842 -0.3641 -0.2869 -0.1736
 2935TIP3    H230297   5.738   2.685  16.789  1.1831 -0.2810 -1.0739
 2936TIP3   OH230298   2.937   2.434   4.896 -0.0207 -0.0539 -0.7415
 2936TIP3    H130299   3.009   2.372   4.910 -0.6953 -0.8330 -0.6786
 2936TIP3    H230300   2.919   2.430   4.802  1.0790  1.3401 -1.0245
 2937TIP3   OH230301   4.493   3.064   0.572  0.1645 -0.7185 -0.0863
 2937TIP3    H130302   4.414   3.040   0.621 -1.4399 -0.1664 -2.3375
 2937TIP3    H230303   4.541   2.981   0.561 -0.9239 -1.3428 -0.1429
 2938TIP3   OH230304   0.090   5.659  14.115 -0.2150  0.4100 -0.0561
 2938TIP3    H130305   0.026   5.720  14.154 -0.2639 -0.0790  0.6205
 2938TIP3    H230306   0.102   5.591  14.180  0.5298  0.1601 -0.4468
 2939TIP3   OH230307   1.683   3.152   5.487  0.8438 -0.0814 -0.1561
 2939TIP3    H130308   1.642   3.218   5.543 -0.3754 -0.8425 -0.1300
 2939TIP3    H230309   1.727   3.093   5.548  0.7143 -0.1031 -0.0827
 2940TIP3   OH230310   2.469   5.325  12.123 -0.2674  0.1185  0.4381
 2940TIP3    H130311   2.430   5.375  12.195 -0.9264 -0.2989  0.3782
 2940TIP3    H230312   2.460   5.380  12.046 -0.5894  0.0890  0.4557
 2941TIP3   OH230313   5.054   6.794   2.693 -0.2666 -0.0910 -0.3559
 2941TIP3    H130314   5.072   6.705   2.663  0.7730  0.1271 -0.3759
 2941TIP3    H230315   5.128   6.816   2.749 -0.6295  0.6917 -0.1796
 2942TIP3   OH230316   3.410   6.717  12.153  0.0085 -0.7468  0.1331
 2942TIP3    H130317   3.504   6.705  12.162 -0.2123 -0.7245  2.7875
 2942TIP3    H230318   3.400   6.773  12.076  2.0986 -1.5020 -0.7216
 2943TIP3   OH230319   6.146   0.569  16.613  0.6279 -0.1055  0.3650
 2943TIP3    H130320   6.056   0.596  16.594  1.3417  1.3972 -1.0371
 2943TIP3    H230321   6.137   0.487  16.662 -1.4930 -0.3134 -0.3182
 2944TIP3   OH230322   1.780   5.496   1.410 -0.3292  0.2247  0.2228
 2944TIP3    H130323   1.869   5.463   1.426 -0.6923 -1.5619 -1.3690
 2944TIP3    H230324   1.794   5.581   1.369  0.7110 -1.4073 -2.9451
 2945TIP3   OH230325   4.453   3.027   5.181  0.4249 -0.2609  0.6357
 2945TIP3    H130326   4.455   3.122   5.170 -0.3217 -0.4953 -1.8313
 2945TIP3    H230327   4.542   2.998   5.157 -0.1866 -0.4318 -1.5396
 2946TIP3   OH230328   2.220   0.618   1.304  0.4637  0.0237  0.0370
 2946TIP3    H130329   2.296   0.674   1.284 -2.1459  3.1182 -1.7467
 2946TIP3    H230330   2.210   0.563   1.227  0.3817  0.2107 -0.0854
 2947TIP3   OH230331   4.626   4.255  11.159  0.1058 -0.9905 -0.1111
 2947TIP3    H130332   4.567   4.330  11.149 -0.4966 -1.6278 -1.4495
 2947TIP3    H230333   4.697   4.288  11.214  0.2417  0.8047 -1.3020
 2948TIP3   OH230334   3.261   3.662   0.469  0.8505 -0.0371 -0.4626
 2948TIP3    H130335   3.267   3.681   0.376  0.9561 -1.1033 -0.6728
 2948TIP3    H230336   3.341   3.613   0.489 -0.6557 -2.5864 -0.4848
 2949TIP3   OH230337   5.582   4.701   4.890 -0.3621  0.0417 -0.1717
 2949TIP3    H130338   5.489   4.725   4.880 -0.6890 -0.3630  1.6358
 2949TIP3    H230339   5.581   4.605   4.893  0.3290 -0.0311 -1.9408
 2950TIP3   OH230340   4.130   4.392  15.755  0.4360  0.1932  0.6638
 2950TIP3    H130341   4.090   4.423  15.837 -0.9803  0.3913 -0.0931
 2950TIP3    H230342   4.192   4.462  15.731 -0.4577  0.9758  0.6211
 2951TIP3   OH230343   4.031   2.793  15.279 -0.2224 -0.3370 -0.4102
 2951TIP3    H130344   3.978   2.872  15.269 -2.3630 -1.6384  0.2403
 2951TIP3    H230345   4.066   2.798  15.368  0.2418  0.2321 -0.6261
 2952TIP3   OH230346   5.704   6.128   2.779 -0.4736 -0.1110 -0.3520
 2952TIP3    H130347   5.696   6.218   2.746 -1.7779 -0.1796 -0.2785
 2952TIP3    H230348   5.751   6.136   2.861 -1.0261  0.5690 -0.0988
 2953TIP3   OH230349   6.353   2.735  14.889  0.2617 -0.0379  0.7357
 2953TIP3    H130350   6.409   2.794  14.939 -0.1437  1.0455 -0.0505
 2953TIP3    H230351   6.348   2.775  14.802 -2.7981  0.6552  1.1421
 2954TIP3   OH230352   2.615   5.529  10.468  0.2998  0.0618  0.2135
 2954TIP3    H130353   2.586   5.619  10.481  0.5067 -0.1424  2.2684
 2954TIP3    H230354   2.695   5.521  10.521  0.2918 -1.3188  0.0434
 2955TIP3   OH230355   5.826   0.123   5.993 -0.1126  0.1003 -0.3937
 2955TIP3    H130356   5.780   0.116   6.077 -1.4197  3.0342 -0.8238
 2955TIP3    H230357   5.772   0.072   5.932  1.3722 -2.8956  0.6661
 2956TIP3   OH230358   5.306   1.431   1.315 -0.1753  0.2580 -0.1321
 2956TIP3    H130359   5.213   1.421   1.334 -0.0732  1.9538  1.4450
 2956TIP3    H230360   5.348   1.434   1.401  0.8144  3.8924 -0.6442
 2957TIP3   OH230361   4.911   0.637   4.725  0.6166  0.3545  0.6642
 2957TIP3    H130362   4.948   0.586   4.653  0.8820 -1.4113  2.0166
 2957TIP3    H230363   4.893   0.723   4.687  0.9403 -0.4869 -1.4467
 2958TIP3   OH230364   0.962   4.166   6.436 -0.1268  0.3555 -0.1775
 2958TIP3    H130365   0.915   4.116   6.503  0.0486 -0.0757 -0.3743
 2958TIP3    H230366   0.993   4.244   6.482 -0.0110  0.0638  0.2476
 2959TIP3   OH230367   2.203   1.155  17.046  0.4482 -0.1474 -0.1723
 2959TIP3    H130368   2.282   1.103  17.027 -1.0363 -3.3257  1.8252
 2959TIP3    H230369   2.189   1.142  17.140 -1.9729  1.0478 -0.3542
 2960TIP3   OH230370   1.729   6.797  16.535  0.3430 -0.2362  0.1661
 2960TIP3    H130371   1.721   6.856  16.610 -0.1562 -0.1394  0.0402
 2960TIP3    H230372   1.722   6.709  16.573 -0.6318 -0.1739  0.1548
 2961TIP3   OH230373   3.781   5.979   0.199  0.0567  0.0127  0.4777
 2961TIP3    H130374   3.754   5.927   0.123 -1.4212 -0.4843  1.3099
 2961TIP3    H230375   3.718   5.956   0.267  1.1888  0.6692  1.7733
 2962TIP3   OH230376   4.714   2.424  11.828 -0.1193  0.2941  0.5345
 2962TIP3    H130377   4.735   2.513  11.801 -0.7114  0.3121  0.0943
 2962TIP3    H230378   4.702   2.430  11.922 -1.3267  0.9333  0.3549
 2963TIP3   OH230379   5.120   4.188   4.440 -0.4067 -0.1254 -0.1397
 2963TIP3    H130380   5.202   4.189   4.490 -1.1047  0.6283  1.0264
 2963TIP3    H230381   5.132   4.256   4.373  0.0113 -0.1732 -0.1138
 2964TIP3   OH230382   1.554   1.025  12.356  0.5437 -0.2118  0.0753
 2964TIP3    H130383   1.538   1.090  12.287  0.1144 -1.0866 -0.6623
 2964TIP3    H230384   1.607   1.071  12.421  0.6272  0.7426 -0.6602
 2965TIP3   OH230385   1.140   4.296   2.021 -0.4984 -0.1388  0.8245
 2965TIP3    H130386   1.192   4.328   2.095 -2.9343  0.2977  2.4084
 2965TIP3    H230387   1.100   4.215   2.053 -0.4605 -0.7052 -0.5166
 2966TIP3   OH230388   6.728   1.797  11.596  0.5106  0.5971  0.6596
 2966TIP3    H130389   6.777   1.876  11.618  1.3103 -0.0206  1.0964
 2966TIP3    H230390   6.791   1.742  11.550 -0.4079  0.7584 -0.8451
 2967TIP3   OH230391   0.822   4.646   2.173  0.6993 -0.1450 -0.2427
 2967TIP3    H130392   0.821   4.671   2.081 -2.6859 -0.5485 -0.3958
 2967TIP3    H230393   0.781   4.559   2.174  1.4335 -0.4826  1.5595
 2968TIP3   OH230394   2.164   6.556   1.087  0.2977 -0.5503  0.1359
 2968TIP3    H130395   2.069   6.564   1.083  0.5001  1.5071 -1.5114
 2968TIP3    H230396   2.197   6.627   1.032  2.8156 -0.7031  1.3484
 2969TIP3   OH230397   0.290   6.357  12.436  0.0604  0.3493  0.3453
 2969TIP3    H130398   0.315   6.433  12.488  1.7807  0.6021 -0.7903
 2969TIP3    H230399   0.285   6.285  12.499  2.6872  0.5387  0.8520
 2970TIP3   OH230400   3.973   1.982   6.517  0.5250 -0.5468  0.1028
 2970TIP3    H130401   3.883   1.949   6.514  0.3196 -0.0541  0.7234
 2970TIP3    H230402   3.980   2.023   6.603  0.7916  0.9981 -0.6379
 2971TIP3   OH230403   4.616   6.009  11.869  0.2933 -0.6055  0.1423
 2971TIP3    H130404   4.660   5.972  11.945  0.2024 -1.9423 -0.4330
 2971TIP3    H230405   4.551   5.943  11.845 -0.3124  0.2306 -0.5179
 2972TIP3   OH230406   0.886   6.511  17.110 -0.2939  0.0783  0.2461
 2972TIP3    H130407   0.792   6.522  17.125 -0.4836 -0.4061 -0.5692
 2972TIP3    H230408   0.927   6.555  17.185 -1.1605  0.4431  0.5188
 2973TIP3   OH230409   3.879   5.312  13.618 -0.0308 -0.4275  0.0792
 2973TIP3    H130410   3.864   5.257  13.542  0.5192  0.4962 -0.7123
 2973TIP3    H230411   3.792   5.341  13.645 -0.0823  1.0244 -1.5579
 2974TIP3   OH230412   1.571   1.313  16.121  0.7381  0.5191  0.1822
 2974TIP3    H130413   1.503   1.359  16.170  0.8869 -0.9387  1.8266
 2974TIP3    H230414   1.554   1.334  16.029  0.5765  3.4798  0.8464
 2975TIP3   OH230415   2.326   3.905   5.840 -0.2597  0.1834 -0.0490
 2975TIP3    H130416   2.367   3.963   5.775 -1.1781  1.3452  0.3921
 2975TIP3    H230417   2.342   3.948   5.924  2.9592 -2.4788  0.8323
 2976TIP3   OH230418   5.935   3.361  12.503 -0.0640  0.3970  0.2297
 2976TIP3    H130419   5.904   3.273  12.481  0.3995  0.0211  1.0893
 2976TIP3    H230420   5.915   3.371  12.596  0.3728  0.9963  0.2616
 2977TIP3   OH230421   2.320   3.585  16.903 -0.2930 -0.5047 -0.0342
 2977TIP3    H130422   2.349   3.654  16.843  0.4526 -1.1671 -0.4483
 2977TIP3    H230423   2.334   3.622  16.990 -1.1863  0.3842 -0.2478
 2978TIP3   OH230424   6.354   2.742  11.561  0.1759  0.7349 -0.4199
 2978TIP3    H130425   6.382   2.806  11.495  0.1124  1.1237 -0.0696
 2978TIP3    H230426   6.332   2.794  11.638 -0.8351  0.3736 -0.4525
 2979TIP3   OH230427   1.802   1.875   6.448 -0.0384  0.4328  0.2047
 2979TIP3    H130428   1.712   1.906   6.438 -0.3638 -1.0653 -2.0335
 2979TIP3    H230429   1.857   1.952   6.433 -0.9069  0.7837 -1.2224
 2980TIP3   OH230430   0.962   6.425   5.578 -0.8500 -0.5891  0.7872
 2980TIP3    H130431   0.979   6.515   5.550 -0.8601 -0.1172  2.2360
 2980TIP3    H230432   0.876   6.404   5.542  0.4502 -1.1392 -2.1760
 2981TIP3   OH230433   0.721   5.523  14.534  0.5612  0.2585 -0.6596
 2981TIP3    H130434   0.731   5.427  14.534 -1.8945 -0.0281  0.1564
 2981TIP3    H230435   0.686   5.543  14.448 -1.4361  0.1026  0.0931
 2982TIP3   OH230436   0.079   0.796   3.744  0.7962 -0.2378  0.5104
 2982TIP3    H130437   0.013   0.746   3.792 -0.9806 -1.2098 -2.7500
 2982TIP3    H230438   0.159   0.745   3.752 -0.0147 -1.5212  0.6246
 2983TIP3   OH230439   5.031   0.672  12.085  0.3723  0.0879  0.3741
 2983TIP3    H130440   5.016   0.578  12.071  1.8725 -0.0040 -0.6918
 2983TIP3    H230441   5.104   0.676  12.147  0.6484  0.5473  0.0230
 2984TIP3   OH230442   5.320   3.932  13.950 -0.6296 -0.3135 -0.1403
 2984TIP3    H130443   5.321   4.025  13.925  0.1480 -0.2477  0.1413
 2984TIP3    H230444   5.294   3.933  14.042  0.2907 -0.3135  0.1233
 2985TIP3   OH230445   0.372   0.565  14.788 -0.6411 -0.1812 -0.8318
 2985TIP3    H130446   0.294   0.608  14.752 -1.1069 -0.0323  0.3321
 2985TIP3    H230447   0.344   0.531  14.873 -0.0476 -2.0787 -1.3661
 2986TIP3   OH230448   1.857   6.057  15.868  0.2844 -0.5261 -0.5522
 2986TIP3    H130449   1.935   6.002  15.868 -0.4131 -1.5350 -0.3457
 2986TIP3    H230450   1.787   5.999  15.896 -0.6430  0.2262 -1.2736
 2987TIP3   OH230451   4.988   6.255   0.775 -0.4225  0.3168 -0.1849
 2987TIP3    H130452   5.074   6.297   0.785 -0.0368 -0.4712 -0.1335
 2987TIP3    H230453   4.942   6.276   0.857 -0.0096  0.1377  0.0986
 2988TIP3   OH230454   0.969   1.037  11.493  0.3294 -0.5832 -0.0939
 2988TIP3    H130455   1.064   1.036  11.500  0.4258 -0.8654 -1.3880
 2988TIP3    H230456   0.951   1.087  11.413 -0.6482  0.3937  0.7224
 2989TIP3   OH230457   5.325   6.024  16.068  0.3968 -0.7224 -0.0931
 2989TIP3    H130458   5.386   6.004  15.997 -0.2803  1.5020 -1.3744
 2989TIP3    H230459   5.272   5.945  16.078  0.6766 -1.1541 -1.8908
 2990TIP3   OH230460   3.173   5.476  13.608 -0.7700 -0.1386  0.1483
 2990TIP3    H130461   3.129   5.559  13.626 -0.2075  0.2477 -0.2310
 2990TIP3    H230462   3.265   5.492  13.631 -1.0350 -1.3099  2.1416
 2991TIP3   OH230463   1.807   5.981   4.297 -0.3817 -0.2175 -0.6060
 2991TIP3    H130464   1.726   5.930   4.297  0.0768 -0.9572  0.8168
 2991TIP3    H230465   1.876   5.918   4.278  0.0691  0.0861  0.0289
 2992TIP3   OH230466   3.833   0.952   3.567 -0.2062 -0.0909  0.0398
 2992TIP3    H130467   3.882   0.894   3.508  2.7857  2.5042 -0.1516
 2992TIP3    H230468   3.742   0.942   3.540  0.9094 -0.1739 -4.0553
 2993TIP3   OH230469   4.045   5.162  11.518  0.6819  0.4438 -0.6828
 2993TIP3    H130470   3.981   5.222  11.556  0.8685  1.3629 -1.8032
 2993TIP3    H230471   4.100   5.136  11.592  0.2861  1.2550 -0.0939
 2994TIP3   OH230472   6.801   1.789  12.378  0.0270 -0.0641  0.5679
 2994TIP3    H130473   6.896   1.784  12.365  0.1106  0.8806  0.7702
 2994TIP3    H230474   6.783   1.724  12.445  0.5451 -0.1790  0.6027
 2995TIP3   OH230475   5.574   5.576  14.175 -0.3375  0.5573 -0.2189
 2995TIP3    H130476   5.517   5.514  14.129 -1.8838  1.7263  0.0600
 2995TIP3    H230477   5.513   5.640  14.214  1.2088  2.1887 -0.4264
 2996TIP3   OH230478   1.217   6.146   3.396  0.0469  0.2406 -0.3290
 2996TIP3    H130479   1.220   6.203   3.319 -0.2788  2.9172  1.6033
 2996TIP3    H230480   1.136   6.169   3.441 -0.9577 -2.9496 -0.3609
 2997TIP3   OH230481   0.299   3.004  15.750  0.0030 -0.5196 -0.8240
 2997TIP3    H130482   0.257   2.966  15.827 -0.9641  0.7861 -0.6811
 2997TIP3    H230483   0.383   2.958  15.743 -1.0071 -2.4336 -0.5166
 2998TIP3   OH230484   5.185   4.037  11.512  0.8805  0.0378 -0.6919
 2998TIP3    H130485   5.275   4.007  11.516 -0.0744 -2.8366  0.4836
 2998TIP3    H230486   5.135   3.961  11.482 -1.4186  0.8748  0.8155
 2999TIP3   OH230487   5.064   0.403  15.550 -0.0540  0.0168  0.6092
 2999TIP3    H130488   5.071   0.435  15.640  0.2875 -1.1185  0.9978
 2999TIP3    H230489   5.116   0.322  15.550  1.4827  0.9845 -1.0650
 3000TIP3   OH230490   3.040   2.027   2.000 -0.3027  0.5386  0.3444
 3000TIP3    H130491   3.066   2.101   2.055 -1.0296  1.2727 -0.2918
 3000TIP3    H230492   2.947   2.016   2.018 -0.3175  0.1233  0.0210
 3001TIP3   OH230493   5.710   4.580   2.246  0.2196  0.1215 -0.1323
 3001TIP3    H130494   5.682   4.572   2.338 -0.0412  0.9473 -0.1409
 3001TIP3    H230495   5.668   4.659   2.215 -0.9350 -0.9760 -1.4227
 3002TIP3   OH230496   1.223   0.017   1.441 -0.5385 -0.2430 -0.5471
 3002TIP3    H130497   1.205  -0.033   1.361 -0.9149 -1.8441  0.5116
 3002TIP3    H230498   1.177  -0.031   1.510  0.5021  0.6338  0.7827
 3003TIP3   OH230499   2.729   6.197   5.440  0.3459 -0.3823  0.3080
 3003TIP3    H130500   2.636   6.221   5.436  0.7433  1.2959  0.6179
 3003TIP3    H230501   2.741   6.163   5.529  0.1643 -0.0095  0.4762
 3004TIP3   OH230502   1.391   6.687  13.891  0.2732  0.1122  0.1507
 3004TIP3    H130503   1.361   6.676  13.981 -1.5745 -0.5088 -0.5267
 3004TIP3    H230504   1.484   6.708  13.899 -0.2799  1.9107  2.2995
 3005TIP3   OH230505   0.406   3.182   4.787 -0.4071  0.0193  0.0243
 3005TIP3    H130506   0.384   3.178   4.694 -0.3684 -1.5495  0.0698
 3005TIP3    H230507   0.495   3.219   4.789 -0.4571  0.1785 -0.5451
 3006TIP3   OH230508   3.117   4.964  12.780 -0.5765  0.5928 -0.8755
 3006TIP3    H130509   3.142   5.027  12.847  0.4832  0.3367 -1.0185
 3006TIP3    H230510   3.043   4.917  12.818  0.2205  0.2240  0.2621
 3007TIP3   OH230511   5.154   1.747  11.464  0.3522  0.2429 -0.1809
 3007TIP3    H130512   5.152   1.834  11.504  0.8743  1.1002 -1.9461
 3007TIP3    H230513   5.068   1.737  11.423 -0.2918 -0.7556  1.4006
 3008TIP3   OH230514   6.704   2.694   0.905  0.2131  0.0695  0.1140
 3008TIP3    H130515   6.793   2.720   0.932  0.5619  0.1193 -1.0549
 3008TIP3    H230516   6.674   2.636   0.975  1.0811  0.2381  0.6378
 3009TIP3   OH230517   0.343   4.744   5.837 -1.0544 -0.2501 -0.1062
 3009TIP3    H130518   0.315   4.669   5.888  1.1300 -2.4129 -1.9832
 3009TIP3    H230519   0.427   4.769   5.874 -1.1630  0.4631 -0.3219
 3010TIP3   OH230520   5.942   6.464   3.880 -0.3155  0.3253 -0.6128
 3010TIP3    H130521   5.931   6.443   3.787  1.3024  1.3660 -1.0662
 3010TIP3    H230522   5.852   6.473   3.913 -0.9172 -0.3947 -1.9831
 3011TIP3   OH230523   0.288   1.932   5.264  0.0274  0.2236 -0.4432
 3011TIP3    H130524   0.369   1.936   5.315 -0.5818 -4.3951  1.0702
 3011TIP3    H230525   0.246   2.017   5.279  1.8623  0.5572  3.4224
 3012TIP3   OH230526   4.244   1.068   4.870  0.3889 -0.1732  0.7309
 3012TIP3    H130527   4.309   1.021   4.921 -0.9944 -2.0481  0.8268
 3012TIP3    H230528   4.207   1.002   4.811  0.6672  1.5230 -1.4266
 3013TIP3   OH230529   5.376   6.320  13.343  0.1696  0.0052  0.1194
 3013TIP3    H130530   5.380   6.305  13.249 -0.4847  0.8741 -0.0492
 3013TIP3    H230531   5.456   6.368  13.364  0.1755  0.0593 -0.0350
 3014TIP3   OH230532   5.818   1.149   1.206 -0.5545  0.1551  0.0897
 3014TIP3    H130533   5.841   1.153   1.299  0.4968  0.3233 -0.1700
 3014TIP3    H230534   5.851   1.064   1.177 -2.4148 -0.6392  0.2639
 3015TIP3   OH230535   6.771   3.796   2.467 -0.9535  0.3354 -0.5981
 3015TIP3    H130536   6.810   3.884   2.469 -0.6823  0.2641 -2.1154
 3015TIP3    H230537   6.678   3.810   2.485 -0.8110  0.8589 -0.2464
 3016TIP3   OH230538   0.538   5.973  13.261 -0.5612  0.6332 -0.2317
 3016TIP3    H130539   0.546   5.974  13.357 -0.2308  0.4522 -0.2571
 3016TIP3    H230540   0.628   5.974  13.230 -0.5572 -2.5494 -0.5124
 3017TIP3   OH230541   3.481   0.920  12.878 -0.2008 -0.1506  0.3721
 3017TIP3    H130542   3.400   0.887  12.839  1.0919 -1.4846 -1.2430
 3017TIP3    H230543   3.550   0.885  12.823  1.5149  0.6205  1.9900
 3018TIP3   OH230544   1.521   1.018  15.826  1.0374 -0.4010  0.0787
 3018TIP3    H130545   1.590   0.953  15.839  2.5050  0.6958 -1.8553
 3018TIP3    H230546   1.500   1.012  15.733 -1.2464 -0.4559  0.5689
 3019TIP3   OH230547   2.775   0.670  11.431  0.9480 -0.5961  0.1310
 3019TIP3    H130548   2.740   0.610  11.365 -1.8360  0.7604  0.3285
 3019TIP3    H230549   2.849   0.712  11.388 -0.0667 -0.6351 -1.7079
 3020TIP3   OH230550   1.554   3.925   4.733 -0.2278  0.3982 -0.1244
 3020TIP3    H130551   1.463   3.916   4.706 -0.2951  1.4855 -0.2947
 3020TIP3    H230552   1.577   4.015   4.709  1.1812 -0.1692 -0.9987
 3021TIP3   OH230553   5.251   6.162  13.537 -1.0467 -0.3391  0.0188
 3021TIP3    H130554   5.298   6.094  13.489  0.2806 -0.2989  1.2245
 3021TIP3    H230555   5.275   6.244  13.493  0.4025 -0.2711  0.9126
 3022TIP3   OH230556   0.310   2.551  11.003  0.1474 -0.0239 -0.0807
 3022TIP3    H130557   0.251   2.626  11.014  0.6149  0.1873  1.0235
 3022TIP3    H230558   0.302   2.528  10.910 -0.7535  0.7647 -0.2084
 3023TIP3   OH230559   3.660   1.309  12.353 -0.0252  0.0198 -0.3727
 3023TIP3    H130560   3.694   1.383  12.404  0.9295  0.2754 -1.3588
 3023TIP3    H230561   3.566   1.312  12.367  0.1733  0.3643  1.0010
 3024TIP3   OH230562   3.108   5.487   1.504  0.2130  0.4561 -0.0472
 3024TIP3    H130563   3.025   5.439   1.492  0.8049 -0.7659  0.5892
 3024TIP3    H230564   3.084   5.563   1.556 -0.6469  0.5327 -0.5366
 3025TIP3   OH230565   6.732   5.614  16.642  0.2533 -0.0545 -0.1487
 3025TIP3    H130566   6.679   5.669  16.584  1.4336  0.5491 -0.6794
 3025TIP3    H230567   6.715   5.525  16.611  0.5543  0.2323 -1.1741
 3026TIP3   OH230568   5.145   1.411   0.565 -0.3051 -0.2096 -0.0602
 3026TIP3    H130569   5.085   1.338   0.549 -0.9827  0.4608 -0.6855
 3026TIP3    H230570   5.232   1.376   0.547 -0.6443 -0.7865 -0.5957
 3027TIP3   OH230571   0.110   0.963  14.425 -0.1722  0.2977 -0.2622
 3027TIP3    H130572   0.100   0.907  14.348 -0.6967  1.0191 -0.7265
 3027TIP3    H230573   0.191   1.011  14.410 -0.7286  1.0803 -0.7825
 3028TIP3   OH230574   5.655   4.450   5.604 -0.0266 -0.3510 -0.6492
 3028TIP3    H130575   5.707   4.381   5.645 -1.3621  0.1466  1.9846
 3028TIP3    H230576   5.707   4.530   5.616  0.1788 -0.4266 -1.0581
 3029TIP3   OH230577   3.739   5.898   5.152 -0.2291 -0.4463  0.6183
 3029TIP3    H130578   3.827   5.933   5.141 -0.2457 -0.1636  1.3625
 3029TIP3    H230579   3.734   5.825   5.090  0.0021  0.4888 -0.5085
 3030TIP3   OH230580   3.723   4.382   6.383  0.0254 -0.2844  0.1062
 3030TIP3    H130581   3.735   4.416   6.471 -1.7388 -0.1807  0.3309
 3030TIP3    H230582   3.628   4.370   6.374  0.1783 -0.3809 -1.7392
 3031TIP3   OH230583   3.085   3.893  16.409  0.5900  0.1282  0.2000
 3031TIP3    H130584   3.137   3.922  16.333  1.9753 -0.7425  0.7962
 3031TIP3    H230585   3.148   3.845  16.464 -0.8999 -1.0743  0.8687
 3032TIP3   OH230586   2.979   2.760   3.557 -0.1118  0.5154 -0.3758
 3032TIP3    H130587   2.920   2.752   3.632 -1.7343  1.1481 -1.5476
 3032TIP3    H230588   2.923   2.745   3.481  1.4861 -0.0196 -1.4713
 3033TIP3   OH230589   1.398   6.661  15.783  0.3632  0.3224 -0.1190
 3033TIP3    H130590   1.404   6.712  15.702  0.6978 -0.5503 -0.6544
 3033TIP3    H230591   1.304   6.655  15.800  0.3129  0.9942 -0.1233
 3034TIP3   OH230592   1.454   0.106  14.976  0.1098  0.2144  0.3956
 3034TIP3    H130593   1.477   0.196  14.950 -0.9498  0.5909  0.7537
 3034TIP3    H230594   1.474   0.103  15.069 -1.6236  0.6532  0.7865
 3035TIP3   OH230595   3.203   3.500   1.216 -0.1133 -0.1001 -0.1279
 3035TIP3    H130596   3.240   3.580   1.180  1.3093 -0.4002  0.6449
 3035TIP3    H230597   3.232   3.431   1.156 -0.5212 -0.1655 -0.2515
 3036TIP3   OH230598   2.407   4.731   0.081  0.1921 -0.3907 -0.1374
 3036TIP3    H130599   2.338   4.668   0.061  0.6762 -1.1892  0.7010
 3036TIP3    H230600   2.385   4.808   0.027 -1.2504 -0.6931 -0.0095
 3037TIP3   OH230601   5.821   6.696  12.870 -0.4001  0.8301 -0.2486
 3037TIP3    H130602   5.806   6.630  12.938 -1.7527  0.4265 -0.9389
 3037TIP3    H230603   5.899   6.744  12.901  1.3348 -1.8261 -0.3156
 3038TIP3   OH230604   5.509   6.727  13.042  0.1361 -0.0296 -0.1241
 3038TIP3    H130605   5.465   6.708  13.125  0.8797 -0.5892  0.1431
 3038TIP3    H230606   5.575   6.659  13.033 -1.1289 -1.0430 -2.0563
 3039TIP3   OH230607   4.048   3.440  16.469 -0.2398 -0.1554 -0.1664
 3039TIP3    H130608   4.124   3.472  16.422 -0.1469  0.2680  0.2703
 3039TIP3    H230609   4.053   3.481  16.555 -0.5186 -0.7637  0.1486
 3040TIP3   OH230610   5.942   2.761  12.765 -0.0671  0.6554  0.0791
 3040TIP3    H130611   5.944   2.763  12.861 -0.0843 -0.1848  0.1030
 3040TIP3    H230612   6.033   2.749  12.740 -0.2367 -0.7345  0.0506
 3041TIP3   OH230613   1.248   1.349  12.374  0.0271 -0.2687  0.1894
 3041TIP3    H130614   1.198   1.270  12.355 -0.7345  0.1906  0.2482
 3041TIP3    H230615   1.258   1.392  12.289  1.3308 -0.9383 -0.0055
 3042TIP3   OH230616   5.030   2.665  15.621 -0.0573 -0.4595 -0.6150
 3042TIP3    H130617   5.124   2.681  15.612  0.0304 -0.4862  0.2539
 3042TIP3    H230618   4.994   2.687  15.535  1.1014 -2.9526 -1.8008
 3043TIP3   OH230619   2.275   4.233   2.688 -0.5723 -0.7287 -0.4607
 3043TIP3    H130620   2.254   4.295   2.617  0.3881  0.3014  0.1354
 3043TIP3    H230621   2.269   4.286   2.768  0.6211 -1.3226  0.0270
 3044TIP3   OH230622   6.244   2.537  13.726  0.2805  0.1555  0.2345
 3044TIP3    H130623   6.244   2.582  13.811 -1.0026  0.9740 -0.1856
 3044TIP3    H230624   6.290   2.597  13.667 -1.0131  0.7513 -0.2114
 3045TIP3   OH230625   6.059   4.357  13.178  0.0882 -0.1298  0.3390
 3045TIP3    H130626   6.005   4.430  13.147 -0.7126 -0.4236  1.0447
 3045TIP3    H230627   6.115   4.396  13.245  1.9199  0.5407 -1.4999
 3046TIP3   OH230628   0.527   1.178  13.632 -0.5341 -0.6022  0.3031
 3046TIP3    H130629   0.461   1.174  13.562  0.3231 -1.6394 -0.4522
 3046TIP3    H230630   0.484   1.137  13.707 -0.6388 -1.6069 -0.2918
 3047TIP3   OH230631   0.199   6.064  11.583 -0.2262 -0.2272  0.2254
 3047TIP3    H130632   0.236   6.101  11.503  1.5168  0.0347  1.1349
 3047TIP3    H230633   0.108   6.047  11.561 -0.0396  0.8430 -1.4839
 3048TIP3   OH230634   1.268   0.988  13.236 -0.1644 -0.6692  0.7764
 3048TIP3    H130635   1.352   0.943  13.239  0.0070 -0.4676 -0.5709
 3048TIP3    H230636   1.291   1.081  13.232 -0.3928 -0.6861 -1.3726
 3049TIP3   OH230637   2.413   0.734   1.552  0.2399 -0.1885  0.3807
 3049TIP3    H130638   2.372   0.818   1.533 -1.4288 -0.7232  1.5145
 3049TIP3    H230639   2.405   0.724   1.647 -2.8734 -3.2546 -0.0965
 3050TIP3   OH230640   5.315   2.735  16.273  0.2136  0.0598 -0.2286
 3050TIP3    H130641   5.245   2.752  16.335  1.8665  0.6075  1.5212
 3050TIP3    H230642   5.315   2.640  16.262 -1.3842  0.1359 -0.9559
 3051TIP3   OH230643   4.397   5.241   2.426  0.1237  0.0092 -0.5587
 3051TIP3    H130644   4.371   5.196   2.507 -0.6662  0.5981 -0.4804
 3051TIP3    H230645   4.429   5.326   2.455  0.5014 -0.0401 -0.8162
 3052TIP3   OH230646   6.342   6.351  15.904 -0.4878  0.9928  0.1615
 3052TIP3    H130647   6.414   6.358  15.966 -0.7592  0.3505  0.5575
 3052TIP3    H230648   6.264   6.370  15.957 -0.6530  1.1983 -0.1546
 3053TIP3   OH230649   1.373   0.862   4.077  0.1636 -0.6324 -0.0289
 3053TIP3    H130650   1.420   0.789   4.038  1.0777 -0.9115  1.5599
 3053TIP3    H230651   1.411   0.940   4.037  0.3310 -0.9632 -0.5055
 3054TIP3   OH230652   4.534   5.820  15.037 -0.2230  0.1283  0.2233
 3054TIP3    H130653   4.575   5.843  14.954  0.1440  0.8921  0.6157
 3054TIP3    H230654   4.458   5.878  15.043 -0.3565 -0.0563  0.3385
 3055TIP3   OH230655   6.422   6.156   2.083 -0.7038  0.4057 -0.7418
 3055TIP3    H130656   6.332   6.122   2.078  0.1682 -2.0976 -0.0658
 3055TIP3    H230657   6.447   6.143   2.174  0.6770  0.2157 -1.1397
 3056TIP3   OH230658   1.787   0.153   1.719 -0.2644 -0.1089  0.6949
 3056TIP3    H130659   1.754   0.063   1.718  0.2178 -0.2891  0.6521
 3056TIP3    H230660   1.841   0.160   1.640 -2.9363  1.2446 -1.0830
 3057TIP3   OH230661   0.780   6.744  12.314  0.2618  1.0530  0.1964
 3057TIP3    H130662   0.705   6.697  12.276  1.8298 -1.4140  0.0470
 3057TIP3    H230663   0.841   6.754  12.241  0.6508  1.8895  0.6252
 3058TIP3   OH230664   1.671   1.682   0.438  0.4606  0.5810  0.2004
 3058TIP3    H130665   1.749   1.688   0.383  1.5740  0.8733  1.7849
 3058TIP3    H230666   1.607   1.740   0.395  0.6104 -0.7210 -1.8672
 3059TIP3   OH230667   2.220   4.259  11.850 -0.3206 -0.4493  0.3247
 3059TIP3    H130668   2.157   4.187  11.844 -0.6992 -0.1971  1.1048
 3059TIP3    H230669   2.195   4.318  11.779 -1.5613  0.0954  1.1855
 3060TIP3   OH230670   6.323   5.453   1.141 -0.1823  0.4004 -0.0759
 3060TIP3    H130671   6.321   5.516   1.212  0.1861  0.7167 -0.3444
 3060TIP3    H230672   6.349   5.370   1.183 -0.5341  0.4564  0.2501
 3061TIP3   OH230673   4.428   3.439  11.335 -0.2314  0.2317  0.3073
 3061TIP3    H130674   4.474   3.451  11.252 -0.6426 -0.5252 -0.0395
 3061TIP3    H230675   4.457   3.511  11.390 -0.4449  1.1066 -0.7157
 3062TIP3   OH230676   1.574   1.356  13.636 -0.0965 -0.2294 -0.3889
 3062TIP3    H130677   1.633   1.300  13.586 -0.7011  0.2928 -1.6932
 3062TIP3    H230678   1.567   1.436  13.585 -2.2179 -0.4316 -0.4621
 3063TIP3   OH230679   2.135   3.309   6.275 -0.2725 -0.2560  0.1076
 3063TIP3    H130680   2.103   3.245   6.339 -1.2878 -0.1945 -0.3212
 3063TIP3    H230681   2.098   3.392   6.303 -1.4362 -0.3687 -1.0247
 3064TIP3   OH230682   0.654   4.107   5.480 -0.0458 -0.5361  0.2729
 3064TIP3    H130683   0.685   4.096   5.570 -2.6464 -1.1297  1.1473
 3064TIP3    H230684   0.678   4.025   5.437  0.6304 -0.5171  0.6072
 3065TIP3   OH230685   4.022   3.442  15.390  0.0314  0.2903 -0.6774
 3065TIP3    H130686   4.100   3.496  15.405 -1.0048  1.7026 -0.2099
 3065TIP3    H230687   4.015   3.388  15.469 -0.3327  1.2707 -0.0368
 3066TIP3   OH230688   2.435   1.068   5.295 -0.0054  0.9241  0.4166
 3066TIP3    H130689   2.356   1.053   5.348 -0.1315  0.6871  0.1608
 3066TIP3    H230690   2.507   1.057   5.357 -0.0956 -0.7736  0.2330
 3067TIP3   OH230691   3.000   1.363   2.780  0.1141  0.4688 -0.3136
 3067TIP3    H130692   3.047   1.367   2.697  0.5492 -0.8049 -0.1363
 3067TIP3    H230693   2.932   1.430   2.772  2.7193  3.2435 -0.0728
 3068TIP3   OH230694   4.637   5.318  11.796  0.4666  0.3755 -0.2997
 3068TIP3    H130695   4.660   5.252  11.731 -0.4463 -1.3307  1.0451
 3068TIP3    H230696   4.687   5.293  11.874 -1.3139  0.1417  0.7954
 3069TIP3   OH230697   6.379   5.097  15.123  0.2193  0.1467  0.3409
 3069TIP3    H130698   6.379   5.002  15.109  1.7035 -0.0139  1.3163
 3069TIP3    H230699   6.299   5.114  15.172  0.8757 -0.8722  1.8013
 3070TIP3   OH230700   1.125   5.258   5.680  0.2649 -0.2230 -0.2789
 3070TIP3    H130701   1.153   5.185   5.625 -0.5056 -0.4883 -0.3178
 3070TIP3    H230702   1.198   5.272   5.740  1.3325  0.4003 -1.6887
 3071TIP3   OH230703   5.316   6.656   5.689 -0.1953 -0.4874  1.0007
 3071TIP3    H130704   5.351   6.606   5.615 -1.6523 -0.5466  0.3279
 3071TIP3    H230705   5.338   6.603   5.766  0.8088 -0.7199  0.5602
 3072TIP3   OH230706   0.723   4.118  13.412  0.2629 -0.4627 -0.5535
 3072TIP3    H130707   0.727   4.100  13.506 -0.6191 -2.8823 -0.9262
 3072TIP3    H230708   0.649   4.065  13.381  0.0981  0.8600 -2.4942
 3073TIP3   OH230709   3.972   3.972   3.533 -0.0890 -0.1158 -0.3442
 3073TIP3    H130710   4.062   3.988   3.504 -0.6176 -0.4275 -2.2286
 3073TIP3    H230711   3.955   3.881   3.508 -1.0780  0.0923 -0.4407
 3074TIP3   OH230712   5.601   0.238   0.053  0.2746  0.8805 -0.1624
 3074TIP3    H130713   5.521   0.275   0.091  0.6285  1.6067 -0.1107
 3074TIP3    H230714   5.573   0.197  -0.029 -0.2955  0.3548  0.2942
 3075TIP3   OH230715   2.620   6.171   2.634  0.0526  0.5649  0.1359
 3075TIP3    H130716   2.661   6.110   2.573  0.8283 -0.7938  1.9501
 3075TIP3    H230717   2.675   6.249   2.632  0.6298  0.1482 -0.1675
 3076TIP3   OH230718   2.840   4.302   5.038  0.3905 -0.0889 -0.0794
 3076TIP3    H130719   2.793   4.365   5.093  1.4622  1.4106 -0.8277
 3076TIP3    H230720   2.852   4.225   5.094 -1.5520  0.0923  0.6219
 3077TIP3   OH230721   5.105   5.158   6.619 -0.3852 -0.3516 -0.1764
 3077TIP3    H130722   5.192   5.178   6.586 -1.4317  0.7236 -2.3784
 3077TIP3    H230723   5.092   5.065   6.598  0.1636 -0.4710  0.0121
 3078TIP3   OH230724   5.667   3.555  11.501  1.2464 -0.7773 -0.4080
 3078TIP3    H130725   5.607   3.511  11.441 -0.4709  1.0213 -0.0768
 3078TIP3    H230726   5.612   3.618  11.548  3.3776  0.8996 -0.0667
 3079TIP3   OH230727   1.938   0.725   3.853 -0.5689 -0.4962 -0.2615
 3079TIP3    H130728   2.001   0.745   3.784 -1.3650 -0.6404 -1.0270
 3079TIP3    H230729   1.908   0.636   3.833 -0.5295 -0.6797  0.4761
 3080TIP3   OH230730   1.645   6.041  16.705  0.0892  0.5987 -0.2679
 3080TIP3    H130731   1.730   6.015  16.671 -0.0650 -0.3659  0.0645
 3080TIP3    H230732   1.583   6.015  16.636  0.0701  1.4169 -0.5684
 3081TIP3   OH230733   1.078   3.616   2.746  0.2379  0.2212 -0.8635
 3081TIP3    H130734   1.130   3.682   2.791  0.4659 -1.1372  0.9123
 3081TIP3    H230735   1.143   3.555   2.710 -0.0426 -0.4037 -0.3233
 3082TIP3   OH230736   3.929   0.072   4.061 -0.0121  0.4265  0.2761
 3082TIP3    H130737   3.902   0.161   4.037  0.0638  0.6913  1.1629
 3082TIP3    H230738   3.920   0.022   3.979 -2.0002  0.7822  0.2412
 3083TIP3   OH230739   5.420   4.072   1.921 -0.3888 -0.2173 -0.8712
 3083TIP3    H130740   5.437   4.165   1.901  0.4268  0.0646  1.0884
 3083TIP3    H230741   5.341   4.074   1.975  1.3214 -0.3997  1.6924
 3084TIP3   OH230742   6.445   2.532  13.978 -0.5404  0.3467  0.8661
 3084TIP3    H130743   6.489   2.596  14.034  0.3066  1.2114 -0.7303
 3084TIP3    H230744   6.361   2.573  13.957 -0.0061  0.9685 -0.1406
 3085TIP3   OH230745   1.031   1.806   2.690 -0.0772 -0.1000  0.7327
 3085TIP3    H130746   1.025   1.773   2.600  2.4115  1.6914 -0.1286
 3085TIP3    H230747   1.018   1.728   2.745  1.5779 -1.7884 -1.2099
 3086TIP3   OH230748   6.540   0.021   5.671 -0.3016  0.4006  0.1690
 3086TIP3    H130749   6.578   0.010   5.584  0.4432  0.4763  0.4802
 3086TIP3    H230750   6.453  -0.017   5.664 -0.2473  0.4070 -0.6115
 3087TIP3   OH230751   5.453   4.409   5.954 -0.8316  0.2258 -0.3080
 3087TIP3    H130752   5.410   4.484   5.912 -0.4550  0.1592 -0.8182
 3087TIP3    H230753   5.400   4.333   5.929 -1.7948  0.4410  1.0372
 3088TIP3   OH230754   6.474   2.585   1.055  0.0577  0.3714  0.3808
 3088TIP3    H130755   6.385   2.581   1.087 -0.9950  1.9621 -2.1637
 3088TIP3    H230756   6.529   2.590   1.133 -2.1871  1.3977  1.9081
 3089TIP3   OH230757   3.972   5.509   5.805  0.1684 -0.3803  0.1018
 3089TIP3    H130758   3.940   5.599   5.811  0.9660 -0.0275 -0.7137
 3089TIP3    H230759   4.059   5.518   5.766  0.4033 -1.4784  0.3716
 3090TIP3   OH230760   0.077   6.625   4.010  0.3509 -0.0922 -0.4343
 3090TIP3    H130761  -0.013   6.605   4.037  0.0286  0.8354 -0.8058
 3090TIP3    H230762   0.116   6.539   3.991 -0.9364 -0.3945 -1.7867
 3091TIP3   OH230763   1.646   2.444  17.173  0.5183  0.3555  0.5271
 3091TIP3    H130764   1.560   2.460  17.135  1.0435 -0.0190 -0.8351
 3091TIP3    H230765   1.629   2.392  17.251 -0.2710 -2.2022 -1.2865
 3092TIP3   OH230766   5.529   4.171   3.549 -0.5324 -0.2634 -0.6577
 3092TIP3    H130767   5.534   4.085   3.507  1.5158  0.1765 -1.3674
 3092TIP3    H230768   5.489   4.227   3.483 -2.4699 -0.7938  0.0409
 3093TIP3   OH230769   6.732   6.163  13.829 -0.7575  0.3617  0.3144
 3093TIP3    H130770   6.745   6.085  13.775 -0.8252  0.2915  0.4001
 3093TIP3    H230771   6.727   6.130  13.918  1.7544  0.6931  0.6284
 3094TIP3   OH230772   3.524   4.892   5.668 -0.4379 -0.2914  0.4875
 3094TIP3    H130773   3.529   4.985   5.649  0.0324 -0.4855 -0.3893
 3094TIP3    H230774   3.530   4.886   5.764  1.0170  0.4925  0.4562
 3095TIP3   OH230775   2.294   1.454  15.615 -0.4323  0.5122 -0.2645
 3095TIP3    H130776   2.243   1.532  15.594 -0.2678  0.5065 -0.6861
 3095TIP3    H230777   2.237   1.381  15.589  0.9304  0.5203 -3.4787
 3096TIP3   OH230778   3.198   5.969  16.347 -0.0600  0.0551  0.1894
 3096TIP3    H130779   3.206   6.042  16.286  3.2049 -0.3237  0.0564
 3096TIP3    H230780   3.286   5.959  16.385 -0.5502 -3.4259  0.6370
 3097TIP3   OH230781   2.128   2.839   2.976 -0.3053  0.4098  0.4065
 3097TIP3    H130782   2.173   2.830   2.891 -0.1924 -1.1718  0.6223
 3097TIP3    H230783   2.035   2.833   2.954 -0.2865  0.2694  0.3644
 3098TIP3   OH230784   2.934   3.317  11.721 -0.1777  0.0870  0.1069
 3098TIP3    H130785   2.928   3.320  11.816 -1.3485  1.2400 -0.0009
 3098TIP3    H230786   2.956   3.225  11.701  0.1937 -0.1301  1.4750
 3099TIP3   OH230787   2.203   3.716  16.216 -0.2917  0.5420 -0.5655
 3099TIP3    H130788   2.151   3.725  16.296  0.5884 -0.7350  0.1507
 3099TIP3    H230789   2.270   3.784  16.223  0.6893 -0.5074  0.4943
 3100TIP3   OH230790   1.988   0.978  13.526  0.0436  0.6397  0.6346
 3100TIP3    H130791   2.043   0.917  13.477 -1.4249  0.7459 -1.1857
 3100TIP3    H230792   1.931   0.921  13.579 -0.5939  0.4329 -0.2595
 3101TIP3   OH230793   4.843   4.900   2.048 -0.1246 -0.3060  0.2076
 3101TIP3    H130794   4.851   4.994   2.029  1.2406 -0.3347  0.5393
 3101TIP3    H230795   4.760   4.874   2.009 -0.1088  0.8627 -0.6216
 3102TIP3   OH230796   5.365   1.249   0.468  0.3335  0.2769 -0.7511
 3102TIP3    H130797   5.446   1.300   0.463 -0.0739  1.2340  1.8176
 3102TIP3    H230798   5.388   1.170   0.516 -0.1190  0.2810 -0.5208
 3103TIP3   OH230799   3.450   4.512  13.625  0.1331 -0.1958 -0.2904
 3103TIP3    H130800   3.481   4.583  13.682 -1.6553  0.7992 -0.5268
 3103TIP3    H230801   3.362   4.493  13.657 -0.3369 -0.6000 -1.8162
 3104TIP3   OH230802   2.952   2.260   5.799 -0.1237  0.1323  0.2233
 3104TIP3    H130803   2.908   2.177   5.816  0.4567 -0.1267  0.4727
 3104TIP3    H230804   2.943   2.272   5.704  0.4598 -0.5959  0.0731
 3105TIP3   OH230805   1.375   5.278   0.802  0.4030 -0.2729  0.6289
 3105TIP3    H130806   1.462   5.256   0.836  0.2701  0.3902  1.4120
 3105TIP3    H230807   1.358   5.211   0.736  1.2799 -0.7275  0.8474
 3106TIP3   OH230808   3.005   3.019   5.346  0.0926 -0.2006  0.1134
 3106TIP3    H130809   2.949   3.043   5.272  0.5301  0.0674 -0.1343
 3106TIP3    H230810   2.996   2.923   5.352  0.0063 -0.2163 -0.2432
 3107TIP3   OH230811   1.676   6.094   2.102  0.1966  0.0800  1.3791
 3107TIP3    H130812   1.672   6.013   2.051  1.6612  1.1025 -0.3725
 3107TIP3    H230813   1.584   6.117   2.116 -0.2221 -0.7984  0.1749
 3108TIP3   OH230814   2.969   2.767  14.711  0.5148 -0.4494  0.2120
 3108TIP3    H130815   2.914   2.778  14.788  0.8606 -1.3696  0.5938
 3108TIP3    H230816   2.951   2.845  14.657 -0.1424 -0.0848  0.9526
 3109TIP3   OH230817   1.241   3.709  16.863  0.5545 -0.4148  0.0722
 3109TIP3    H130818   1.306   3.669  16.805  0.2253  0.1291 -0.6811
 3109TIP3    H230819   1.269   3.800  16.871  0.2257 -0.3295  0.2288
 3110TIP3   OH230820   2.289   3.300   0.056  0.1198 -0.6907 -0.1185
 3110TIP3    H130821   2.198   3.279   0.078 -0.4510 -1.4953 -2.9925
 3110TIP3    H230822   2.283   3.341  -0.030  2.3869  0.3616  0.2046
 3111TIP3   OH230823   4.202   2.541   1.045  0.3073 -0.5974  0.6215
 3111TIP3    H130824   4.190   2.493   1.128  0.6967 -0.0201  1.0180
 3111TIP3    H230825   4.297   2.555   1.040  0.1035  1.0123  1.0190
 3112TIP3   OH230826   0.570   1.281   5.873 -0.0521  0.0347 -0.5878
 3112TIP3    H130827   0.637   1.229   5.917  0.1945  0.2389 -0.7154
 3112TIP3    H230828   0.606   1.298   5.786  0.4801  1.5488 -0.1030
 3113TIP3   OH230829   6.301   1.124  14.554  0.2204 -0.0545 -0.2198
 3113TIP3    H130830   6.283   1.142  14.646  0.5639 -0.5186 -0.0595
 3113TIP3    H230831   6.249   1.189  14.506 -0.7380 -0.4396  0.2717
 3114TIP3   OH230832   2.827   4.676   1.983 -0.1541 -0.3619 -0.4878
 3114TIP3    H130833   2.750   4.733   1.976  0.6773  0.9876  0.8866
 3114TIP3    H230834   2.802   4.595   1.939 -2.6606 -0.2552  0.6701
 3115TIP3   OH230835   3.077   6.295  16.920  0.4294 -0.0352  0.1482
 3115TIP3    H130836   3.092   6.370  16.979 -0.6122 -0.6540  1.2089
 3115TIP3    H230837   3.127   6.224  16.960 -1.7573 -0.9500  1.3233
 3116TIP3   OH230838   0.211   6.092   2.296 -0.1970 -0.3027  0.6100
 3116TIP3    H130839   0.169   6.177   2.291  1.3166  0.4319  0.2451
 3116TIP3    H230840   0.170   6.041   2.226  0.6061  0.8932 -0.7580
 3117TIP3   OH230841   0.276   2.329  15.448  0.3144 -0.3458 -0.0810
 3117TIP3    H130842   0.364   2.310  15.480 -1.1319 -1.2243  3.6144
 3117TIP3    H230843   0.240   2.243  15.425 -0.2775 -0.2011  0.3101
 3118TIP3   OH230844   1.722   0.600   5.764  0.2604  0.0673  0.8686
 3118TIP3    H130845   1.739   0.635   5.851  1.0919 -0.3808  0.8932
 3118TIP3    H230846   1.754   0.510   5.767 -1.7777 -0.6944  0.7829
 3119TIP3   OH230847   5.664   2.680  13.845  0.2121  0.0993 -0.1003
 3119TIP3    H130848   5.585   2.651  13.798 -0.3148 -0.3227  1.0316
 3119TIP3    H230849   5.665   2.628  13.925  0.6112  1.4390  0.7854
 3120TIP3   OH230850   6.720   4.508   1.472 -0.1715  0.1292 -0.2323
 3120TIP3    H130851   6.769   4.567   1.415 -0.1432  1.0304  0.7122
 3120TIP3    H230852   6.787   4.456   1.516 -0.1738 -0.2155 -0.6249
 3121TIP3   OH230853   2.461   0.681   5.844  0.2781  0.2267 -0.4151
 3121TIP3    H130854   2.533   0.724   5.798 -1.6507  2.6390 -1.3137
 3121TIP3    H230855   2.448   0.734   5.923 -1.9153  1.2179 -1.3715
 3122TIP3   OH230856   6.062   6.152  15.148 -0.2904 -0.0285  0.1084
 3122TIP3    H130857   6.054   6.202  15.229  0.5979  0.0133  0.1861
 3122TIP3    H230858   6.061   6.218  15.079 -2.2192 -0.1577  0.0035
 3123TIP3   OH230859   4.058   1.818  12.752 -0.6368  0.0532 -0.3477
 3123TIP3    H130860   3.983   1.849  12.700 -1.8488 -1.2531  0.5676
 3123TIP3    H230861   4.127   1.882  12.735 -2.2215  1.7639 -0.5901
 3124TIP3   OH230862   6.020   3.566  16.561  0.0980 -0.3979  0.0147
 3124TIP3    H130863   5.957   3.505  16.598  1.2046 -1.4197  0.2298
 3124TIP3    H230864   6.046   3.621  16.636 -1.4509  0.8417 -0.3358
 3125TIP3   OH230865   0.037   3.991  16.493  0.0021 -0.3266 -0.3576
 3125TIP3    H130866   0.027   3.905  16.534 -1.0958  0.3967  0.9086
 3125TIP3    H230867   0.083   4.044  16.559  0.0206  0.2740 -0.8485
 3126TIP3   OH230868   5.540   1.173   3.483 -0.1180 -0.0591 -0.0113
 3126TIP3    H130869   5.529   1.106   3.551 -2.9247  0.0267 -0.3149
 3126TIP3    H230870   5.515   1.255   3.526 -0.8672  0.1455 -0.8123
 3127TIP3   OH230871   1.525   3.487  12.035 -0.2174 -0.2993 -0.2533
 3127TIP3    H130872   1.596   3.552  12.042 -0.8746  0.3230  0.9512
 3127TIP3    H230873   1.446   3.537  12.056 -0.7029 -1.5551  0.9516
 3128TIP3   OH230874   3.940   2.340  13.647  0.5368  0.1368 -0.2124
 3128TIP3    H130875   3.928   2.336  13.552 -0.5819  0.7815 -0.1089
 3128TIP3    H230876   4.001   2.413  13.660 -0.0268  0.6514 -0.3900
 3129TIP3   OH230877   3.930   6.820   3.565 -0.0670  0.4422 -0.0906
 3129TIP3    H130878   3.845   6.806   3.522 -0.2260  0.2854  0.2755
 3129TIP3    H230879   3.993   6.774   3.509 -0.5154 -1.2821  0.8106
 3130TIP3   OH230880   4.210   4.731  15.095  0.6753 -0.0933 -0.1608
 3130TIP3    H130881   4.180   4.776  15.016 -1.5597 -0.4336  0.4540
 3130TIP3    H230882   4.217   4.800  15.160  1.0990 -0.0374 -0.2645
 3131TIP3   OH230883   4.627   1.251   2.661  0.4109  0.4704  0.0424
 3131TIP3    H130884   4.688   1.178   2.671 -1.1530 -0.7904  0.5707
 3131TIP3    H230885   4.549   1.224   2.709  0.0857  2.8382  0.9123
 3132TIP3   OH230886   1.049   2.968   1.176 -0.3370  0.0302 -0.1120
 3132TIP3    H130887   1.127   3.008   1.138 -0.8415  1.1890  0.0490
 3132TIP3    H230888   0.980   3.032   1.162 -0.5500  0.4617  2.6620
 3133TIP3   OH230889   4.866   5.500  11.648 -0.4540  0.1225 -0.4737
 3133TIP3    H130890   4.921   5.574  11.621 -1.3811  1.0526  0.1081
 3133TIP3    H230891   4.782   5.541  11.669 -1.4966 -1.3231 -1.7696
 3134TIP3   OH230892   0.808   4.683  11.005 -0.1926  0.5749 -0.4586
 3134TIP3    H130893   0.848   4.751  10.951  1.6798  0.4891  0.7425
 3134TIP3    H230894   0.864   4.606  10.990  1.0599  0.8620  2.4106
 3135TIP3   OH230895   4.570   1.749  13.414 -0.1364  0.1609  0.4805
 3135TIP3    H130896   4.664   1.740  13.431 -0.1784  0.2762  0.7681
 3135TIP3    H230897   4.556   1.844  13.409 -1.0290  0.3274  4.8290
 3136TIP3   OH230898   1.946   3.681   5.030 -0.4983 -0.1436  0.0729
 3136TIP3    H130899   1.899   3.598   5.036  0.5094 -0.8939 -1.9849
 3136TIP3    H230900   2.014   3.675   5.097 -0.1753 -1.1716 -0.3328
 3137TIP3   OH230901   6.501   2.365   1.861  0.5591 -0.5992 -0.3188
 3137TIP3    H130902   6.522   2.310   1.936 -0.1644  0.1809  0.4777
 3137TIP3    H230903   6.501   2.454   1.897 -1.2156 -0.3439 -0.9286
 3138TIP3   OH230904   4.514   5.780  11.517  0.8016  0.1192  0.2006
 3138TIP3    H130905   4.476   5.864  11.544 -0.8263  0.0470 -1.8003
 3138TIP3    H230906   4.601   5.802  11.486  0.8485  0.8804  0.8551
 3139TIP3   OH230907   1.897   1.106  12.647 -0.4384 -0.0325  0.2201
 3139TIP3    H130908   1.903   1.174  12.714  0.5088 -0.0704  0.1740
 3139TIP3    H230909   1.826   1.049  12.676  0.6286 -0.6284  1.7105
 3140TIP3   OH230910   1.027   6.407  13.761 -0.9559 -0.2011 -0.3533
 3140TIP3    H130911   0.966   6.336  13.781 -1.5923  0.4758  0.1433
 3140TIP3    H230912   1.080   6.416  13.841  0.2687 -1.2653 -1.0473
 3141TIP3   OH230913   4.459   5.080   0.488 -0.3670 -0.6841  0.3586
 3141TIP3    H130914   4.406   5.150   0.526  0.0093  0.4233 -1.1060
 3141TIP3    H230915   4.396   5.021   0.447 -0.5038  0.4219 -1.0391
 3142TIP3   OH230916   1.963   0.043   4.172 -0.4801  0.4750 -0.4150
 3142TIP3    H130917   1.942  -0.045   4.142 -1.8330  0.0687  1.6081
 3142TIP3    H230918   2.059   0.048   4.167 -0.4419 -0.8391 -1.2026
 3143TIP3   OH230919   0.121   3.477   0.506  0.2160 -0.1015 -0.2322
 3143TIP3    H130920   0.143   3.384   0.500 -1.0960 -0.4176 -0.2854
 3143TIP3    H230921   0.199   3.522   0.474  0.8475 -1.1852 -0.2395
 3144TIP3   OH230922   2.030   3.493  16.290  0.0533  0.2590  0.6216
 3144TIP3    H130923   2.064   3.575  16.324 -3.3996  1.8973  0.3664
 3144TIP3    H230924   1.968   3.462  16.356 -1.8679  0.1341 -1.1489
 3145TIP3   OH230925   6.409   4.935  14.253  0.0740  0.8328  0.3709
 3145TIP3    H130926   6.343   4.917  14.186  0.5869  2.9789 -0.7392
 3145TIP3    H230927   6.386   5.021  14.287  1.0315  0.6432  1.5380
 3146TIP3   OH230928   4.367   5.630  17.125 -0.2606 -0.3289  0.4166
 3146TIP3    H130929   4.326   5.633  17.038  0.8266  0.7962 -0.0779
 3146TIP3    H230930   4.338   5.711  17.168  0.7124  0.0388  0.3904
 3147TIP3   OH230931   2.720   2.517   1.892  0.3713 -0.0143 -0.4414
 3147TIP3    H130932   2.724   2.530   1.797 -2.5916  1.1408 -0.4600
 3147TIP3    H230933   2.676   2.433   1.902 -1.6058  1.0374 -0.0961
 3148TIP3   OH230934   4.201   4.278   1.618  0.3637 -0.0297  0.2245
 3148TIP3    H130935   4.213   4.300   1.710  0.1415  0.1880  0.2010
 3148TIP3    H230936   4.133   4.338   1.587  1.2804  0.7099 -0.3833
 3149TIP3   OH230937   6.038   6.813   2.997  0.3101 -0.2661  0.1998
 3149TIP3    H130938   5.971   6.842   3.059 -0.4895 -2.0993  0.2551
 3149TIP3    H230939   6.015   6.856   2.915 -0.3067 -0.0327  0.4910
 3150TIP3   OH230940   0.163   0.411  11.810 -0.0682 -0.0076 -0.0193
 3150TIP3    H130941   0.165   0.321  11.776 -2.3681 -0.7291  1.6711
 3150TIP3    H230942   0.212   0.407  11.892 -1.2091  0.0363  0.6579
 3151TIP3   OH230943   3.249   2.797   1.553 -0.2152 -0.0377  0.3684
 3151TIP3    H130944   3.245   2.838   1.639  1.2066 -0.2937  0.5795
 3151TIP3    H230945   3.279   2.708   1.571 -0.9882 -0.4268 -0.2914
 3152TIP3   OH230946   5.404   2.219  11.826 -0.0192  0.5529  0.2878
 3152TIP3    H130947   5.419   2.154  11.895 -0.7153 -0.2129 -0.2840
 3152TIP3    H230948   5.309   2.225  11.818  0.0374  1.7410  0.4229
 3153TIP3   OH230949   5.350   1.142   3.231 -0.1645 -0.2751 -0.3398
 3153TIP3    H130950   5.298   1.063   3.246 -2.8602  1.5432  0.3709
 3153TIP3    H230951   5.436   1.122   3.269 -1.1786 -2.4255  0.9079
 3154TIP3   OH230952   2.456   5.746   2.965 -0.3818 -0.6253 -0.6761
 3154TIP3    H130953   2.490   5.731   3.053  1.8739 -1.0461 -1.5887
 3154TIP3    H230954   2.512   5.693   2.908 -0.1749  1.6278 -2.6347
 3155TIP3   OH230955   1.390   5.739  14.537  0.0541  0.3717 -0.3080
 3155TIP3    H130956   1.362   5.710  14.450 -0.0933  0.0328 -0.1459
 3155TIP3    H230957   1.469   5.688  14.555  1.5928  2.3006 -1.3464
 3156TIP3   OH230958   6.724   5.591  16.341 -0.0342  0.4213 -0.2012
 3156TIP3    H130959   6.706   5.577  16.248 -2.6590 -1.8615  0.5839
 3156TIP3    H230960   6.752   5.505  16.372  1.2764  1.2792  1.0553
 3157TIP3   OH230961   1.927   6.602   4.058 -0.1996  0.2714 -0.0437
 3157TIP3    H130962   1.920   6.565   3.970  1.7336 -0.2188  0.0038
 3157TIP3    H230963   1.874   6.544   4.112  1.4349 -1.4535 -0.2720
 3158TIP3   OH230964   4.761   6.528   4.969 -0.3242  0.9370  0.9282
 3158TIP3    H130965   4.816   6.482   4.906 -2.0874 -1.4341  1.0819
 3158TIP3    H230966   4.746   6.614   4.929  0.4700  0.2993 -0.7881
 3159TIP3   OH230967   1.147   0.975   2.176 -0.5083  0.7969 -0.5070
 3159TIP3    H130968   1.224   0.946   2.224 -1.5441 -1.1827  0.0030
 3159TIP3    H230969   1.093   1.019   2.242 -0.8325  0.1946 -0.3655
 3160TIP3   OH230970   5.885   5.751   6.578  0.0570  0.2466 -0.4900
 3160TIP3    H130971   5.939   5.708   6.644  1.8872 -0.0383 -2.1298
 3160TIP3    H230972   5.817   5.686   6.556  1.7607 -1.1818 -1.6806
 3161TIP3   OH230973   0.906   1.565   6.178 -0.0442  0.0081 -0.0066
 3161TIP3    H130974   0.902   1.655   6.144 -0.8503 -0.2750 -0.6496
 3161TIP3    H230975   0.965   1.572   6.253 -1.8152  1.4945  1.2732
 3162TIP3   OH230976   1.513   1.831   2.676 -0.0155 -0.8174 -0.5890
 3162TIP3    H130977   1.472   1.878   2.749  2.9627 -0.2549  0.7915
 3162TIP3    H230978   1.558   1.758   2.718  1.5962 -0.5782 -1.8979
 3163TIP3   OH230979   4.227   4.950  12.006 -0.2358 -0.3553  0.0929
 3163TIP3    H130980   4.204   4.858  12.023  0.4522 -0.6623 -0.5676
 3163TIP3    H230981   4.318   4.946  11.975  0.7627  0.8158  2.6900
 3164TIP3   OH230982   5.587   4.027  13.512  0.5250  0.0997  0.2158
 3164TIP3    H130983   5.663   3.969  13.520  0.8622  0.3581 -1.0767
 3164TIP3    H230984   5.613   4.093  13.448 -0.7802  0.2046 -0.2251
 3165TIP3   OH230985   3.599   4.167  12.397 -0.2454 -0.1112  0.7149
 3165TIP3    H130986   3.647   4.162  12.315 -0.2769  0.6463  0.6429
 3165TIP3    H230987   3.555   4.083  12.405 -1.5835  0.4192 -0.8798
 3166TIP3   OH230988   2.266   2.178  11.909  0.1078 -0.1167  0.2117
 3166TIP3    H130989   2.344   2.233  11.913  0.8577 -1.1278 -0.4257
 3166TIP3    H230990   2.243   2.175  11.816  0.1257 -0.9666  0.2335
 3167TIP3   OH230991   6.323   0.861   4.779 -0.1688  0.0183 -0.3003
 3167TIP3    H130992   6.414   0.837   4.759  0.0001 -1.5878  2.2175
 3167TIP3    H230993   6.330   0.947   4.821 -0.2265  1.7456 -3.6098
 3168TIP3   OH230994   2.124   0.602  16.659  0.5794  0.0997  0.4085
 3168TIP3    H130995   2.044   0.654  16.655 -0.2413 -1.1351  0.5998
 3168TIP3    H230996   2.136   0.583  16.752  0.4576 -0.6969  0.2626
 3169TIP3   OH230997   4.182   0.961   1.923 -0.0445 -0.0053  0.1034
 3169TIP3    H130998   4.178   0.879   1.973 -0.9636 -0.0731 -0.0766
 3169TIP3    H230999   4.096   1.000   1.934  0.6264  1.3137  0.8083
 3170TIP3   OH231000   4.208   3.902  12.819 -0.3201 -0.1670 -0.5035
 3170TIP3    H131001   4.159   3.826  12.788 -1.1787  0.5318 -0.8944
 3170TIP3    H231002   4.159   3.933  12.896  0.0157  0.0016 -0.3536
 3171TIP3   OH231003   2.396   3.373  15.534 -0.1537  0.2902 -0.1590
 3171TIP3    H131004   2.306   3.347  15.552 -0.3510 -0.9112 -2.6634
 3171TIP3    H231005   2.450   3.303  15.572 -0.3715 -0.1242 -0.6148
 3172TIP3   OH231006   1.565   4.690   1.114 -0.1562 -0.3447  0.3126
 3172TIP3    H131007   1.600   4.714   1.028 -1.0194  0.4150  0.1637
 3172TIP3    H231008   1.520   4.607   1.099 -0.2744 -0.2309  0.0297
 3173TIP3   OH231009   2.863   2.944   1.802  0.5670  0.1305  0.0706
 3173TIP3    H131010   2.785   2.893   1.823  1.5388 -0.5852  2.1555
 3173TIP3    H231011   2.934   2.879   1.801  1.6598  1.2421  1.7044
 3174TIP3   OH231012   3.842   4.326   4.128  0.3410  0.1403  0.3744
 3174TIP3    H131013   3.828   4.372   4.045  0.4472 -3.1503 -1.5346
 3174TIP3    H231014   3.755   4.319   4.166 -0.1472 -0.8801 -0.8807
 3175TIP3   OH231015   4.410   3.452  14.624 -0.1781  0.3637 -0.8963
 3175TIP3    H131016   4.400   3.361  14.596  1.1371 -0.0638 -0.0363
 3175TIP3    H231017   4.451   3.446  14.711  2.3238  1.8035 -1.9226
 3176TIP3   OH231018   3.860   6.779   0.488 -0.1030 -0.2176  0.7785
 3176TIP3    H131019   3.945   6.822   0.498 -0.3973  0.7766 -0.7859
 3176TIP3    H231020   3.798   6.841   0.526 -0.1802 -0.6816  1.3953
 3177TIP3   OH231021   5.797   5.861  14.284 -0.5332 -0.7938 -0.1921
 3177TIP3    H131022   5.782   5.766  14.284 -0.9650 -0.7300  0.5245
 3177TIP3    H231023   5.710   5.898  14.298 -0.9088 -0.1871 -3.5467
 3178TIP3   OH231024   5.497   3.198   3.371  0.5479 -0.0693 -0.1879
 3178TIP3    H131025   5.573   3.195   3.429  0.6118 -0.4087 -0.2888
 3178TIP3    H231026   5.533   3.190   3.283  0.3996 -0.1535 -0.2412
 3179TIP3   OH231027   0.325   2.540  13.875 -0.4672 -0.0093 -0.1338
 3179TIP3    H131028   0.297   2.458  13.834  0.6381  0.2444 -1.4613
 3179TIP3    H231029   0.394   2.572  13.817 -0.0897  1.2693  1.0153
 3180TIP3   OH231030   0.239   2.124   0.526 -0.0716 -0.1418 -0.5778
 3180TIP3    H131031   0.200   2.204   0.560  0.3198  0.6937 -2.0139
 3180TIP3    H231032   0.249   2.067   0.602 -0.4368  1.1448  0.4522
 3181TIP3   OH231033   0.376   5.549  16.430  0.5298  0.0661  0.4743
 3181TIP3    H131034   0.441   5.491  16.470  0.2582  0.3707  1.3674
 3181TIP3    H231035   0.316   5.571  16.501  0.0059  0.5708 -0.1146
 3182TIP3   OH231036   4.676   0.652  12.724  0.0979  0.5411 -0.2786
 3182TIP3    H131037   4.645   0.738  12.753 -0.5142 -0.1912  1.3255
 3182TIP3    H231038   4.621   0.589  12.771  1.4701 -0.7425 -0.3239
 3183TIP3   OH231039   0.629   6.746   3.527 -0.1809  0.3945  0.4948
 3183TIP3    H131040   0.693   6.751   3.597 -0.6512  0.7310  0.9005
 3183TIP3    H231041   0.574   6.671   3.550 -1.2170  1.3714  1.2339
 3184TIP3   OH231042   1.788   3.772  13.128 -0.2897  1.0750  0.1231
 3184TIP3    H131043   1.706   3.723  13.134  1.5217 -2.6833 -3.4809
 3184TIP3    H231044   1.780   3.819  13.044  1.3720  0.3457 -0.4545
 3185TIP3   OH231045   1.647   4.412   3.473  0.0701  0.1520 -0.0582
 3185TIP3    H131046   1.584   4.443   3.538 -0.2211 -0.2839 -0.1360
 3185TIP3    H231047   1.688   4.336   3.515 -1.1724 -1.0460 -0.9791
 3186TIP3   OH231048   6.641   2.866   1.292  0.0913 -0.3846  0.2749
 3186TIP3    H131049   6.714   2.849   1.233  0.0798 -1.7548  0.6276
 3186TIP3    H231050   6.672   2.935   1.351  2.4837 -3.3849  2.7446
 3187TIP3   OH231051   4.181   0.573   3.085 -0.4306 -0.3477 -0.0431
 3187TIP3    H131052   4.275   0.574   3.066 -0.4024  1.6165  0.0859
 3187TIP3    H231053   4.175   0.549   3.177 -0.0958 -1.1925 -0.2413
 3188TIP3   OH231054   4.518   6.097  16.079 -0.0061  0.0679  0.8404
 3188TIP3    H131055   4.489   6.141  16.160  1.7857 -0.7113  1.9310
 3188TIP3    H231056   4.598   6.143  16.055  0.0170 -0.3743  0.0672
 3189TIP3   OH231057   2.153   4.494   2.022  0.4432 -0.2465 -0.2656
 3189TIP3    H131058   2.191   4.578   2.048 -0.8255  0.3097 -0.1671
 3189TIP3    H231059   2.060   4.513   2.010  0.1074 -1.6998  0.0009
 3190TIP3   OH231060   0.752   5.379   1.039 -0.1291 -0.2488 -0.0164
 3190TIP3    H131061   0.792   5.455   1.083  0.0198 -0.4803  0.2516
 3190TIP3    H231062   0.658   5.398   1.041 -0.0407  0.2621 -0.5826
 3191TIP3   OH231063   0.841   0.760   1.941  0.3602  0.4235  0.5990
 3191TIP3    H131064   0.859   0.719   1.857  0.7359 -0.9409  1.3368
 3191TIP3    H231065   0.750   0.738   1.960 -0.5224  2.8750 -0.6349
 3192TIP3   OH231066   6.157   3.429   0.818 -0.2269 -0.2835  0.2883
 3192TIP3    H131067   6.156   3.524   0.808 -0.2866 -0.4030 -0.9242
 3192TIP3    H231068   6.108   3.396   0.743  0.0641 -1.2910  0.5295
 3193TIP3   OH231069   1.735   5.487  16.812  0.0530  0.5922  0.2129
 3193TIP3    H131070   1.668   5.548  16.841  0.0206  0.5802  0.1630
 3193TIP3    H231071   1.817   5.535  16.821  0.0052  0.7271 -0.0506
 3194TIP3   OH231072   1.299   5.342  13.394  0.4316  0.4812  0.2207
 3194TIP3    H131073   1.347   5.419  13.425  1.4105  0.5006 -1.2836
 3194TIP3    H231074   1.343   5.318  13.312 -0.9996 -0.6033 -0.2417
 3195TIP3   OH231075   5.734   6.747   2.430 -0.5091 -0.1089 -0.2942
 3195TIP3    H131076   5.773   6.815   2.375 -1.3362  0.5176 -0.1195
 3195TIP3    H231077   5.802   6.725   2.493 -0.8835  1.9372  0.8634
 3196TIP3   OH231078   3.139   1.494   1.003 -0.4754 -0.2181 -0.0332
 3196TIP3    H131079   3.224   1.498   1.048 -0.8255 -1.0523  0.7165
 3196TIP3    H231080   3.161   1.503   0.910  0.0977  3.3093  0.3832
 3197TIP3   OH231081   5.213   2.856  11.341  0.7306 -0.2626 -0.0881
 3197TIP3    H131082   5.219   2.898  11.427  2.3898  0.3103 -0.4514
 3197TIP3    H231083   5.287   2.893  11.292 -0.2835 -0.4724 -1.8069
 3198TIP3   OH231084   5.111   3.969  15.106 -0.1692 -0.3359 -0.4442
 3198TIP3    H131085   5.034   4.009  15.145 -0.4547  0.9650 -2.2455
 3198TIP3    H231086   5.091   3.965  15.012  1.6905 -0.5404 -0.8597
 3199TIP3   OH231087   2.900   5.051  12.549  0.4670 -0.1701 -0.0003
 3199TIP3    H131088   2.986   5.037  12.510  0.5157  0.0515  0.0274
 3199TIP3    H231089   2.906   5.137  12.590  0.5841 -0.6318  0.9578
 3200TIP3   OH231090   4.288   2.736  14.597 -0.1485 -0.0056  0.4856
 3200TIP3    H131091   4.293   2.739  14.692 -1.4774 -0.7478  0.5902
 3200TIP3    H231092   4.194   2.737  14.578  0.1094  2.6708 -0.9018
 3201TIP3   OH231093   0.560   1.542  14.980  0.2221  0.0409 -0.2024
 3201TIP3    H131094   0.570   1.456  15.021  0.2481 -1.1333 -2.5902
 3201TIP3    H231095   0.650   1.574  14.970  0.3799 -0.7537 -1.5062
 3202TIP3   OH231096   2.027   0.078   6.216  0.3793 -0.1248  0.4973
 3202TIP3    H131097   1.938   0.114   6.222  0.0932 -0.6947 -0.2470
 3202TIP3    H231098   2.084   0.151   6.241 -0.2242  0.6361 -0.3222
 3203TIP3   OH231099   0.062   0.479   1.499  0.5508 -0.1474  0.6124
 3203TIP3    H131100   0.107   0.564   1.497  0.5613 -0.1473  0.8962
 3203TIP3    H231101   0.112   0.425   1.437  0.3189  0.1649  0.1513
 3204TIP3   OH231102   5.844   5.125  16.161 -0.5763 -0.0687  0.6799
 3204TIP3    H131103   5.930   5.127  16.118 -1.7464 -1.8884 -1.8072
 3204TIP3    H231104   5.849   5.050  16.221 -0.2248  0.2514  1.0620
 3205TIP3   OH231105   1.864   1.006  16.594  0.3115  0.2675  0.1091
 3205TIP3    H131106   1.828   1.094  16.582 -0.7359 -0.3277 -1.2537
 3205TIP3    H231107   1.854   0.965  16.508 -0.5645 -1.6907  1.1329
 3206TIP3   OH231108   5.314   0.897  16.623  0.0203  0.4584 -0.2426
 3206TIP3    H131109   5.300   0.901  16.718 -0.1823 -1.7243 -0.1570
 3206TIP3    H231110   5.329   0.988  16.597 -1.0362  1.2186  1.7072
 3207TIP3   OH231111   5.061   0.469   3.661 -0.1238  0.0908  0.0806
 3207TIP3    H131112   5.095   0.381   3.675 -0.6573 -0.0212  0.6653
 3207TIP3    H231113   5.130   0.527   3.694  0.0047 -0.1137  0.1706
 3208TIP3   OH231114   0.779   6.689   0.717  0.1121 -0.4704 -0.7514
 3208TIP3    H131115   0.824   6.609   0.745 -0.1169 -0.3624 -0.0655
 3208TIP3    H231116   0.822   6.713   0.635  1.1585 -0.4939 -0.2188
 3209TIP3   OH231117   3.880   6.392   4.129 -0.2279  0.3727 -0.1720
 3209TIP3    H131118   3.807   6.367   4.184 -0.5661  0.5030 -0.5602
 3209TIP3    H231119   3.846   6.462   4.073  0.4004  0.9431  0.1462
 3210TIP3   OH231120   4.479   0.144   0.187  0.2477 -0.1851  0.0234
 3210TIP3    H131121   4.414   0.149   0.117 -0.0576  0.7320  0.3671
 3210TIP3    H231122   4.521   0.230   0.188 -0.0046 -0.0679  1.2089
 3211TIP3   OH231123   4.428   1.832  14.403 -0.3849  0.5865  0.4742
 3211TIP3    H131124   4.413   1.762  14.340 -1.4551  1.7519 -0.6130
 3211TIP3    H231125   4.353   1.827  14.462  0.5970 -0.4793  1.6533
 3212TIP3   OH231126   2.907   5.990  16.255  0.6192  0.7932  0.1807
 3212TIP3    H131127   2.899   6.051  16.182  0.7370  0.2310 -0.3086
 3212TIP3    H231128   2.988   5.942  16.237  1.3675  1.5891  1.3926
 3213TIP3   OH231129   5.959   3.974  17.263  0.5688  0.1594  0.2347
 3213TIP3    H131130   5.947   3.906  17.197  2.0069 -1.4542  1.5846
 3213TIP3    H231131   5.905   3.946  17.337  0.3612  1.0311  0.4234
 3214TIP3   OH231132   4.437   6.588  13.898  0.1019 -0.5228  0.1260
 3214TIP3    H131133   4.432   6.650  13.825  0.0367 -1.5513 -0.7442
 3214TIP3    H231134   4.406   6.505  13.862  1.0870 -1.3002  1.0339
 3215TIP3   OH231135   0.399   1.851   1.322 -0.5061  0.2525  0.1373
 3215TIP3    H131136   0.332   1.843   1.390 -1.1946  0.6570 -0.4812
 3215TIP3    H231137   0.412   1.946   1.313  0.3741  0.1667  0.4730
 3216TIP3   OH231138   0.322   3.589  13.189  0.0695 -0.5736 -1.0703
 3216TIP3    H131139   0.235   3.550  13.196 -0.1466 -0.0740 -0.9702
 3216TIP3    H231140   0.348   3.573  13.098 -0.1044 -0.7589 -1.0890
 3217TIP3   OH231141   2.948   5.615  11.335  0.2814 -0.1857 -0.1914
 3217TIP3    H131142   2.919   5.530  11.300 -1.5932 -0.3681  1.6867
 3217TIP3    H231143   3.037   5.626  11.301  1.4051 -3.9352  1.2805
 3218TIP3   OH231144   0.208   2.815   5.044  0.5419  0.1253 -0.5228
 3218TIP3    H131145   0.257   2.734   5.027  1.9815  1.1018 -1.1499
 3218TIP3    H231146   0.254   2.882   4.993 -0.6124  1.3440  0.0106
 3219TIP3   OH231147   3.698   3.767   5.655 -0.2615 -0.3517 -0.1012
 3219TIP3    H131148   3.665   3.842   5.703  0.3681 -0.2822  0.2315
 3219TIP3    H231149   3.677   3.692   5.710  1.0095 -0.2164  0.5965
 3220TIP3   OH231150   3.274   4.948  14.939 -0.4123 -0.8871  0.3981
 3220TIP3    H131151   3.180   4.963  14.927  0.2924  2.4838 -1.6618
 3220TIP3    H231152   3.308   5.033  14.967  2.2077 -1.7896  0.0676
 3221TIP3   OH231153   5.607   4.770   1.502  0.1755  0.3384  0.0505
 3221TIP3    H131154   5.597   4.707   1.431  0.3570 -0.4658  0.7210
 3221TIP3    H231155   5.605   4.855   1.460 -0.1003 -0.1182 -0.8719
 3222TIP3   OH231156   4.603   6.374   1.809 -0.8195 -0.4392  0.3509
 3222TIP3    H131157   4.605   6.409   1.898 -0.1841  0.2109  0.0928
 3222TIP3    H231158   4.580   6.449   1.754  0.4727 -0.4298 -0.2022
 3223TIP3   OH231159   1.269   5.618  15.226  0.4542 -0.0884 -0.3977
 3223TIP3    H131160   1.251   5.711  15.213 -0.3305 -0.2272 -0.3757
 3223TIP3    H231161   1.348   5.615  15.279 -1.9814  0.6893  3.4796
 3224TIP3   OH231162   0.739   4.796  11.264 -0.5000  0.0149  0.3911
 3224TIP3    H131163   0.736   4.773  11.171  0.3732  1.7609 -0.0842
 3224TIP3    H231164   0.656   4.841  11.279 -0.2747  0.4901  0.2373
 3225TIP3   OH231165   4.946   5.443  11.895 -0.4792 -0.3553 -0.2901
 3225TIP3    H131166   4.907   5.472  11.813 -1.1667  0.7130  0.3962
 3225TIP3    H231167   5.022   5.391  11.869 -0.9614 -0.4115 -1.6054
 3226TIP3   OH231168   0.295   1.322  13.869 -0.6834 -0.3589 -0.6860
 3226TIP3    H131169   0.213   1.371  13.871 -0.8188 -0.5462 -1.3405
 3226TIP3    H231170   0.347   1.364  13.800 -0.0923 -0.0311 -0.0458
 3227TIP3   OH231171   6.445   0.698   2.593  0.1300  0.2012 -0.3492
 3227TIP3    H131172   6.515   0.763   2.590  1.0917 -0.8565 -1.3213
 3227TIP3    H231173   6.481   0.622   2.548 -1.0962 -0.8967  0.4743
 3228TIP3   OH231174   0.155   2.579   3.872  0.1644 -0.0993  0.6617
 3228TIP3    H131175   0.152   2.492   3.911  2.1254 -0.2383  0.5576
 3228TIP3    H231176   0.117   2.636   3.939  1.2405 -0.6842  1.7889
 3229TIP3   OH231177   0.842   6.534  12.724  0.3905  0.2662 -0.0477
 3229TIP3    H131178   0.769   6.495  12.772  1.1780  0.8574  1.6611
 3229TIP3    H231179   0.872   6.463  12.666 -0.0247 -0.7415  0.9427
 3230TIP3   OH231180   2.404   6.402   4.400 -0.1477 -0.5929  0.2647
 3230TIP3    H131181   2.402   6.350   4.481  1.7089 -1.8215 -0.4540
 3230TIP3    H231182   2.497   6.418   4.384 -0.4534 -0.9716 -2.0158
 3231TIP3   OH231183   1.688   0.697   0.007 -0.0399 -0.1318 -0.1549
 3231TIP3    H131184   1.760   0.634   0.002  0.2727 -0.0596  2.5879
 3231TIP3    H231185   1.621   0.653   0.060 -0.7009  0.9988 -0.0343
 3232TIP3   OH231186   3.995   2.344   2.344  0.1416  0.2054 -0.0181
 3232TIP3    H131187   3.942   2.311   2.271 -0.0368  1.2066 -0.3578
 3232TIP3    H231188   4.085   2.317   2.322 -0.1801 -1.2336  0.4082
 3233TIP3   OH231189   5.214   3.645  16.226  0.6596 -0.2925 -0.0366
 3233TIP3    H131190   5.183   3.689  16.146 -0.3964 -1.1313 -0.0999
 3233TIP3    H231191   5.310   3.651  16.221  0.6208 -0.6704 -1.5688
 3234TIP3   OH231192   3.284   4.667  14.755  0.1491  0.4559  0.5511
 3234TIP3    H131193   3.289   4.746  14.700 -0.5990 -1.0579 -1.7610
 3234TIP3    H231194   3.194   4.666  14.787 -0.0717  0.1468 -0.0643
 3235TIP3   OH231195   5.592   4.242  13.344  0.5238 -0.1172 -0.4369
 3235TIP3    H131196   5.617   4.195  13.264  1.3864  0.0605 -0.2756
 3235TIP3    H231197   5.645   4.322  13.343  0.5759 -0.1360  0.3331
 3236TIP3   OH231198   0.589   5.122  13.515 -0.0622  0.2944 -0.0387
 3236TIP3    H131199   0.646   5.187  13.557  1.5683 -0.6028 -0.8381
 3236TIP3    H231200   0.631   5.103  13.432 -1.0403 -1.0781 -0.2383
 3237TIP3   OH231201   2.845   4.143   1.070 -0.4708 -0.4143  0.4698
 3237TIP3    H131202   2.752   4.125   1.063  0.1822 -3.0915 -2.5759
 3237TIP3    H231203   2.852   4.238   1.067 -3.0204 -0.2283 -0.4259
 3238TIP3   OH231204   1.900   4.816  10.787  0.1349 -0.4482 -0.4465
 3238TIP3    H131205   1.925   4.725  10.773  0.4518 -0.8216  2.3242
 3238TIP3    H231206   1.982   4.861  10.809  0.1078  0.6838 -2.5410
 3239TIP3   OH231207   4.674   3.884   3.463 -0.9075 -0.2918  0.3025
 3239TIP3    H131208   4.691   3.794   3.491 -1.8851 -0.1243  1.4812
 3239TIP3    H231209   4.751   3.933   3.494 -0.3447 -0.7188 -0.3948
 3240TIP3   OH231210   2.198   3.154  11.930 -0.1319  0.0333 -0.2255
 3240TIP3    H131211   2.261   3.226  11.939  0.5216 -0.5941  0.2324
 3240TIP3    H231212   2.238   3.095  11.865 -1.5326  0.9999 -2.0225
 3241TIP3   OH231213   0.379   2.431   3.379  0.0392 -0.2469 -0.2215
 3241TIP3    H131214   0.362   2.517   3.418 -0.3771 -0.5199  0.2007
 3241TIP3    H231215   0.451   2.447   3.317  1.2579  0.0262  1.2494
 3242TIP3   OH231216   3.849   0.574   4.514  0.0476 -0.4053 -0.1568
 3242TIP3    H131217   3.875   0.526   4.592  0.6018 -1.3367 -0.8891
 3242TIP3    H231218   3.801   0.510   4.461  1.0444 -0.2650 -1.2738
 3243TIP3   OH231219   5.683   3.382  15.060  0.3647  0.2427  0.5070
 3243TIP3    H131220   5.718   3.315  15.118  0.3263  1.4483  1.9316
 3243TIP3    H231221   5.697   3.464  15.106  0.4397  1.2372 -1.2397
 3244TIP3   OH231222   4.043   3.457   0.151  0.5046 -0.4605  0.4491
 3244TIP3    H131223   4.041   3.375   0.103  1.4526  1.0289 -2.2618
 3244TIP3    H231224   4.132   3.464   0.185 -0.0969 -1.3966  2.2930
 3245TIP3   OH231225   4.557   0.134   2.574  0.5089 -0.0339 -0.2215
 3245TIP3    H131226   4.613   0.114   2.649 -0.5622  0.8502  0.8243
 3245TIP3    H231227   4.500   0.057   2.566  0.4583 -0.0219  0.0253
 3246TIP3   OH231228   3.970   6.353  13.490 -0.1773  0.0134 -0.5188
 3246TIP3    H131229   4.043   6.295  13.466  0.4708  0.9372 -0.8140
 3246TIP3    H231230   3.924   6.369  13.408  1.2036  2.0319 -0.9310
 3247TIP3   OH231231   6.060   3.919  15.266 -0.4311  0.3886  0.0368
 3247TIP3    H131232   6.017   3.997  15.229  2.1770  2.7765  1.8216
 3247TIP3    H231233   6.034   3.920  15.358  0.9041  0.0733  0.4227
 3248TIP3   OH231234   2.724   0.784  13.889 -0.4014  0.2002  0.0926
 3248TIP3    H131235   2.749   0.811  13.801 -1.3530 -1.1920 -0.6170
 3248TIP3    H231236   2.801   0.737  13.922 -1.4343 -2.7325 -1.5128
 3249TIP3   OH231237   3.115   0.171   3.175 -0.1378  0.0862 -0.3371
 3249TIP3    H131238   3.110   0.186   3.081  2.2545  2.3354 -0.1525
 3249TIP3    H231239   3.057   0.237   3.213  1.4436  1.3699 -0.1011
 3250TIP3   OH231240   0.056   3.044  17.215 -0.0192 -0.0177  0.0249
 3250TIP3    H131241   0.077   3.065  17.124 -1.5223  0.9233 -0.1076
 3250TIP3    H231242   0.079   2.951  17.223 -0.1033 -0.1771 -1.3771
 3251TIP3   OH231243   1.914   1.050   2.697 -0.1281  0.0930 -0.1229
 3251TIP3    H131244   1.833   1.101   2.686  0.7738  1.7878  0.8399
 3251TIP3    H231245   1.967   1.074   2.621 -0.0158 -0.0439 -0.0868
 3252TIP3   OH231246   5.694   0.830  13.357 -0.3941 -0.1141 -0.5085
 3252TIP3    H131247   5.705   0.799  13.267 -0.8236 -0.5290 -0.4212
 3252TIP3    H231248   5.652   0.756  13.402  1.7752 -0.7417  0.5496
 3253TIP3   OH231249   2.251   5.664  11.822 -0.0062  1.0608  0.4340
 3253TIP3    H131250   2.277   5.755  11.809  0.9829  0.8311  0.7591
 3253TIP3    H231251   2.177   5.651  11.763  3.2554  0.4985 -3.7107
 3254TIP3   OH231252   5.872   4.460  15.914 -0.0844  0.2949 -0.0188
 3254TIP3    H131253   5.946   4.404  15.936  1.8799  2.9875  0.4901
 3254TIP3    H231254   5.858   4.447  15.820  0.4359 -0.8934  0.0605
 3255TIP3   OH231255   2.792   0.818  16.831  0.0564 -0.3156  0.6785
 3255TIP3    H131256   2.875   0.783  16.798  1.0721  0.8843  1.9234
 3255TIP3    H231257   2.742   0.741  16.855  0.8549 -1.0551  0.0100
 3256TIP3   OH231258   4.343   2.610   5.224 -0.5430 -0.2693  1.0009
 3256TIP3    H131259   4.332   2.694   5.269 -0.4841  0.6113 -0.5818
 3256TIP3    H231260   4.271   2.608   5.161  0.3851 -0.6996 -0.0451
 3257TIP3   OH231261   6.690   0.272  13.429  0.0553 -0.2868 -0.3861
 3257TIP3    H131262   6.640   0.232  13.357 -0.4207 -1.0150  0.3447
 3257TIP3    H231263   6.624   0.316  13.482  0.4023  0.2031 -0.3543
 3258TIP3   OH231264   5.417   0.288   4.415  0.6338 -0.3218  0.0185
 3258TIP3    H131265   5.322   0.287   4.427  0.6669  0.2980  0.3576
 3258TIP3    H231266   5.431   0.251   4.328  0.0121  0.6281 -0.4879
 3259TIP3   OH231267   1.666   3.027   6.135 -0.5592  0.2644 -0.1537
 3259TIP3    H131268   1.711   3.074   6.205 -2.1962  1.5926  0.0347
 3259TIP3    H231269   1.573   3.031   6.160 -0.8773 -1.8309 -0.8751
 3260TIP3   OH231270   5.472   2.879  13.654 -0.1216  0.0949 -0.4804
 3260TIP3    H131271   5.425   2.807  13.611 -0.0680  0.3207 -0.9249
 3260TIP3    H231272   5.472   2.856  13.747 -0.5099 -0.2468 -0.5649
 3261TIP3   OH231273   0.362   4.861   1.507  0.3836 -0.2679 -0.2007
 3261TIP3    H131274   0.355   4.902   1.594 -0.7797  0.8614 -0.8047
 3261TIP3    H231275   0.428   4.913   1.462  0.8779 -0.7613 -0.0427
 3262TIP3   OH231276   4.095   4.691   5.285 -0.3179 -0.6687  0.6578
 3262TIP3    H131277   4.173   4.701   5.339  0.6307 -1.3940 -0.5445
 3262TIP3    H231278   4.072   4.598   5.293 -0.9080 -0.5083  0.8188
 3263TIP3   OH231279   0.090   4.980   1.413  0.0741  0.0842 -0.4184
 3263TIP3    H131280   0.180   4.956   1.389  0.0981  0.2256 -0.4667
 3263TIP3    H231281   0.089   4.975   1.509  1.2444  4.0367 -0.1354
 3264TIP3   OH231282   3.021   4.629  11.424 -0.5542  0.4042 -0.7520
 3264TIP3    H131283   3.003   4.597  11.336 -1.3637 -0.7943 -0.1753
 3264TIP3    H231284   3.000   4.555  11.481 -0.7620  1.4033  0.5013
 3265TIP3   OH231285   0.759   0.570   0.322  0.2598 -0.5410 -0.3309
 3265TIP3    H131286   0.824   0.632   0.292 -1.9621  2.0307 -0.0650
 3265TIP3    H231287   0.681   0.589   0.269 -0.8219 -2.2887  0.5822
 3266TIP3   OH231288   3.788   6.608   2.218  0.5614 -0.1877  0.1468
 3266TIP3    H131289   3.832   6.524   2.208  0.5955 -0.1149 -0.3293
 3266TIP3    H231290   3.788   6.646   2.130  0.6932  0.3781  0.3859
 3267TIP3   OH231291   3.367   5.596   6.639 -0.4170 -0.7176 -0.2008
 3267TIP3    H131292   3.370   5.516   6.587  1.6758 -0.8455  0.0690
 3267TIP3    H231293   3.279   5.596   6.678 -0.6611 -2.5534 -0.6989
 3268TIP3   OH231294   6.306   1.931   6.652 -0.1906  0.2342 -0.0597
 3268TIP3    H131295   6.277   1.903   6.738 -2.4634  0.9626 -0.5626
 3268TIP3    H231296   6.343   1.852   6.611  1.0119 -0.0794  1.5983
 3269TIP3   OH231297   5.354   3.533   2.014  0.0826 -0.1333  0.1448
 3269TIP3    H131298   5.395   3.606   2.062 -1.7967  0.9834  0.0824
 3269TIP3    H231299   5.412   3.458   2.031  1.6392  1.1883  0.8263
 3270TIP3   OH231300   2.518   3.417  16.502 -0.0509  0.0457 -0.2539
 3270TIP3    H131301   2.457   3.448  16.569 -0.3673 -1.1943  0.0479
 3270TIP3    H231302   2.596   3.470  16.515  0.0358 -0.4380  1.3636
 3271TIP3   OH231303   0.887   0.356  10.850  0.4646  0.4276  0.1066
 3271TIP3    H131304   0.981   0.369  10.848  0.1950  2.4792 -1.6665
 3271TIP3    H231305   0.866   0.316  10.765 -0.3705  0.8887  0.0868
 3272TIP3   OH231306   2.267   6.045   4.495 -0.0503  0.4003  0.1592
 3272TIP3    H131307   2.321   6.055   4.416 -0.5086  2.5555  0.0815
 3272TIP3    H231308   2.325   6.006   4.559  0.3138 -1.4578 -1.2553
 3273TIP3   OH231309   3.275   0.142   2.738 -0.2776 -0.0008 -0.4508
 3273TIP3    H131310   3.310   0.194   2.666  0.5969  2.1213  1.4595
 3273TIP3    H231311   3.353   0.103   2.779 -0.5179  1.0374  1.0173
 3274TIP3   OH231312   3.196   0.402   2.627 -0.0479  0.0545 -0.0496
 3274TIP3    H131313   3.209   0.421   2.720 -1.2812  1.0360 -0.0725
 3274TIP3    H231314   3.285   0.384   2.594  0.1363 -2.6662  1.7952
 3275TIP3   OH231315   3.487   1.617  12.722 -0.4964 -0.3114  0.6217
 3275TIP3    H131316   3.497   1.556  12.795  2.9802 -0.3467  0.2248
 3275TIP3    H231317   3.516   1.702  12.757  0.6501 -0.2108 -0.5394
 3276TIP3   OH231318   6.265   1.116  12.667 -0.0801  0.3329 -0.1624
 3276TIP3    H131319   6.261   1.022  12.684  0.4143  0.5016  0.9772
 3276TIP3    H231320   6.250   1.125  12.573  0.3891 -0.9183 -0.3638
 3277TIP3   OH231321   3.337   4.153   6.095  0.6658 -0.5915  0.7418
 3277TIP3    H131322   3.401   4.103   6.145  0.5955 -1.5586 -0.1264
 3277TIP3    H231323   3.353   4.244   6.120  3.4413 -0.6617 -0.6557
 3278TIP3   OH231324   0.381   5.731  15.687  0.7217  0.4571 -0.3069
 3278TIP3    H131325   0.337   5.650  15.663  1.5001  0.0727 -0.4595
 3278TIP3    H231326   0.366   5.740  15.781 -0.8424  1.0500 -0.5978
 3279TIP3   OH231327   4.731   4.867  15.910  0.3088 -0.2379  0.5198
 3279TIP3    H131328   4.788   4.797  15.941 -0.8028 -0.8425  1.2651
 3279TIP3    H231329   4.789   4.941  15.894  1.4589 -1.2574 -0.0221
 3280TIP3   OH231330   0.178   3.678   5.257 -0.4097 -0.2050  0.7514
 3280TIP3    H131331   0.257   3.679   5.311 -0.9067  1.3073  1.4881
 3280TIP3    H231332   0.187   3.601   5.201  0.4213 -1.4258  2.5442
 3281TIP3   OH231333   1.695   4.264  12.324  0.0176 -0.5157  0.3746
 3281TIP3    H131334   1.712   4.357  12.340  0.3452 -0.1391 -2.0222
 3281TIP3    H231335   1.758   4.239  12.257 -0.5575 -2.2943  0.4679
 3282TIP3   OH231336   2.949   0.419  13.253  0.4540  0.1206 -0.4760
 3282TIP3    H131337   2.883   0.409  13.185 -0.9928  0.7227  0.8152
 3282TIP3    H231338   2.936   0.344  13.311  2.8690 -1.4047 -1.7934
 3283TIP3   OH231339   0.907   4.446   5.205 -0.4085  0.6629 -0.0271
 3283TIP3    H131340   0.997   4.442   5.237  0.1342 -0.2755 -1.5887
 3283TIP3    H231341   0.854   4.416   5.278  0.7310 -0.7095  0.2631
 3284TIP3   OH231342   0.648   4.463   4.246  0.1379  0.3864  0.5740
 3284TIP3    H131343   0.599   4.476   4.327 -1.6217  0.5668 -0.5036
 3284TIP3    H231344   0.612   4.528   4.185  0.7973 -0.3761 -0.6438
 3285TIP3   OH231345   2.596   2.082   4.465 -0.3468  0.0012 -0.1948
 3285TIP3    H131346   2.534   2.128   4.409 -0.0567 -0.3434 -0.8122
 3285TIP3    H231347   2.682   2.102   4.427  0.1358  2.3025  1.9497
 3286TIP3   OH231348   5.775   3.625  16.905 -0.4849  0.1625 -0.6569
 3286TIP3    H131349   5.730   3.540  16.902 -2.5257  1.1200  1.4097
 3286TIP3    H231350   5.741   3.673  16.830 -0.3766 -0.3436 -1.0314
 3287TIP3   OH231351   3.709   2.953  12.656  0.6375  0.0743  0.0849
 3287TIP3    H131352   3.668   3.002  12.585  2.2672 -0.3299 -1.1720
 3287TIP3    H231353   3.637   2.930  12.714 -1.2163 -2.1346 -2.9256
 3288TIP3   OH231354   5.384   5.622  11.020  0.2964 -0.3375 -0.4362
 3288TIP3    H131355   5.476   5.596  11.028  0.0184 -1.1590  0.1685
 3288TIP3    H231356   5.365   5.611  10.927  0.7029 -0.5495 -0.4992
 3289TIP3   OH231357   4.649   2.093   5.537  0.9030  0.4917  0.5321
 3289TIP3    H131358   4.559   2.059   5.531  1.1095 -0.4666  2.4243
 3289TIP3    H231359   4.638   2.188   5.539  0.1094  0.4729 -1.6547
 3290TIP3   OH231360   6.398   1.314   4.594 -0.8910 -0.0434  0.8869
 3290TIP3    H131361   6.420   1.239   4.539  0.9676  0.4049  0.9798
 3290TIP3    H231362   6.474   1.372   4.587 -1.2763  0.7187  2.7238
 3291TIP3   OH231363   0.479   4.066   1.652 -0.1356 -0.3285 -0.4267
 3291TIP3    H131364   0.419   4.007   1.698 -0.2729 -0.5946 -0.9481
 3291TIP3    H231365   0.450   4.153   1.677 -1.6407 -0.4119 -1.7875
 3292TIP3   OH231366   4.250   5.651   0.736 -0.1601  0.2791  0.5561
 3292TIP3    H131367   4.325   5.706   0.715 -0.7707  0.6908 -0.5859
 3292TIP3    H231368   4.271   5.614   0.822  2.0630 -0.8544 -0.4337
 3293TIP3   OH231369   4.180   5.087   5.694 -0.9257  0.4053 -0.0209
 3293TIP3    H131370   4.087   5.081   5.719 -0.5168  0.2666  1.4875
 3293TIP3    H231371   4.221   5.013   5.737  0.0762  1.0405  0.1171
 3294TIP3   OH231372   3.330   6.371  16.049 -0.4110 -0.0331 -0.3166
 3294TIP3    H131373   3.373   6.309  15.991  1.3384  0.1485  0.7290
 3294TIP3    H231374   3.402   6.411  16.099 -1.7091  1.0572  0.7383
 3295TIP3   OH231375   1.384   5.320  12.760 -0.6588  0.3306  0.0505
 3295TIP3    H131376   1.387   5.287  12.671  0.0598 -0.8335  0.4912
 3295TIP3    H231377   1.465   5.289  12.800  0.3125  3.0439  0.3545
 3296TIP3   OH231378   1.660   6.600  15.221 -0.1114  0.0005 -0.7073
 3296TIP3    H131379   1.615   6.516  15.213 -2.4190  1.0580  0.5220
 3296TIP3    H231380   1.721   6.588  15.293 -0.5708 -0.5649 -0.4055
 3297TIP3   OH231381   1.626   5.955   5.884 -0.5550  0.6657  0.3767
 3297TIP3    H131382   1.712   5.918   5.866 -0.5106  1.5010 -1.2351
 3297TIP3    H231383   1.624   5.967   5.979  0.9376  0.2462  0.4730
 3298TIP3   OH231384   6.800   6.318  15.052  0.3598  0.2761  0.2188
 3298TIP3    H131385   6.767   6.331  14.963  3.0596 -0.3409 -0.9269
 3298TIP3    H231386   6.739   6.255  15.091 -0.9361  0.6624 -1.1443
 3299TIP3   OH231387   2.694   5.149  14.447  0.0671  0.3759 -0.0157
 3299TIP3    H131388   2.685   5.113  14.359  3.0218 -1.4322  0.3566
 3299TIP3    H231389   2.640   5.092  14.501  2.6283 -2.0060  0.1483
 3300TIP3   OH231390   1.065   6.425  15.901  0.1197  0.1438  0.1863
 3300TIP3    H131391   1.143   6.451  15.950  0.6321 -0.5205 -0.2724
 3300TIP3    H231392   1.095   6.419  15.810 -0.9838  2.0175 -0.3229
 3301TIP3   OH231393   4.163   1.859  14.550 -0.7885  0.1705 -0.0603
 3301TIP3    H131394   4.156   1.954  14.542  1.7374  0.4342  0.2936
 3301TIP3    H231395   4.167   1.844  14.644 -0.8416 -0.2655 -0.1289
 3302TIP3   OH231396   4.140   3.283  11.552  0.2696 -0.0944  0.2795
 3302TIP3    H131397   4.213   3.239  11.508  1.2118  0.9332  0.7802
 3302TIP3    H231398   4.121   3.228  11.628 -1.5722 -2.0480 -1.5179
 3303TIP3   OH231399   3.495   3.412  14.065 -0.0271 -0.0685  0.4511
 3303TIP3    H131400   3.472   3.339  14.122 -0.2402  1.1396  1.9373
 3303TIP3    H231401   3.411   3.452  14.043  0.1202 -0.0188 -0.0158
 3304TIP3   OH231402   0.038   3.490  15.320  0.5714  0.6210  0.0368
 3304TIP3    H131403   0.031   3.399  15.290  1.1196  0.3846  0.5942
 3304TIP3    H231404   0.073   3.482  15.409 -1.3606  1.2891  0.8719
 3305TIP3   OH231405   3.319   4.291  13.933 -0.2365  0.3561  0.8173
 3305TIP3    H131406   3.287   4.208  13.968 -2.7286  1.6760  1.7701
 3305TIP3    H231407   3.290   4.292  13.842  3.7763 -1.7860 -0.6547
 3306TIP3   OH231408   6.327   5.570   1.964  0.5971  0.1453  0.1638
 3306TIP3    H131409   6.348   5.662   1.948 -0.7433 -0.0995 -3.4633
 3306TIP3    H231410   6.234   5.563   1.945  0.3793 -1.7039  1.7678
 3307TIP3   OH231411   3.543   6.367   3.901  0.0969 -0.9477 -0.0498
 3307TIP3    H131412   3.578   6.347   3.988 -0.9152  1.0528  0.8315
 3307TIP3    H231413   3.460   6.320   3.896  0.5135 -1.6736 -0.2414
 3308TIP3   OH231414   2.993   6.699  13.048 -0.8189  0.3965 -0.2105
 3308TIP3    H131415   2.978   6.649  13.128 -0.4821 -0.3618 -0.6189
 3308TIP3    H231416   3.027   6.635  12.986 -1.5880  0.8654 -1.1269
 3309TIP3   OH231417   5.532   5.160   3.681  0.4597 -0.3753 -0.1464
 3309TIP3    H131418   5.521   5.241   3.732  3.3765 -0.3878  0.6178
 3309TIP3    H231419   5.536   5.091   3.746  1.3946 -0.7219 -0.5628
 3310TIP3   OH231420   1.657   3.618  12.655 -0.1255  0.7207  0.3925
 3310TIP3    H131421   1.687   3.677  12.724  1.6473 -1.0189  1.1558
 3310TIP3    H231422   1.589   3.667  12.609 -1.1448  2.0274  3.1791
 3311TIP3   OH231423   3.073   3.568  16.401 -0.9884 -0.0564  0.3378
 3311TIP3    H131424   3.103   3.511  16.472  0.8244  0.2530 -0.1520
 3311TIP3    H231425   3.093   3.656  16.430 -1.4038  0.1525 -0.0086
 3312TIP3   OH231426   0.520   2.236   0.548  0.3864  0.3129 -0.3782
 3312TIP3    H131427   0.609   2.222   0.580  0.4260  0.0509 -0.6050
 3312TIP3    H231428   0.464   2.187   0.609  0.5600 -1.2022 -1.4339
 3313TIP3   OH231429   4.954   5.006  16.317 -0.2043  0.0185 -0.4792
 3313TIP3    H131430   4.997   5.024  16.234  1.4500  0.2592  0.4042
 3313TIP3    H231431   5.016   5.037  16.383 -2.1169  1.2072  0.8259
 3314TIP3   OH231432   1.516   5.691   4.279 -0.6663  0.1749  0.2138
 3314TIP3    H131433   1.563   5.679   4.196 -1.7352  1.4905 -0.5963
 3314TIP3    H231434   1.497   5.602   4.308  1.5984 -0.3719  0.1521
 3315TIP3   OH231435   0.171   5.615  15.439  0.3457  0.0391 -0.1767
 3315TIP3    H131436   0.122   5.556  15.382 -0.4739 -0.3678  0.9345
 3315TIP3    H231437   0.259   5.616  15.402  0.4935 -2.2529  0.0535
 3316TIP3   OH231438   2.837   1.093  12.090  0.4274 -0.2679 -0.1815
 3316TIP3    H131439   2.931   1.082  12.105  0.3854 -0.8000 -0.2706
 3316TIP3    H231440   2.796   1.054  12.167  0.2378 -2.0501 -1.1356
 3317TIP3   OH231441   3.007   3.426  13.247 -0.7527 -0.2307  0.5487
 3317TIP3    H131442   2.945   3.472  13.304 -1.5736  0.4303 -0.8609
 3317TIP3    H231443   2.952   3.375  13.188 -0.0064  1.2401 -1.4519
 3318TIP3   OH231444   1.374   2.352  15.790  0.0875  0.1115  0.0483
 3318TIP3    H131445   1.329   2.435  15.804 -0.1213 -0.2007  1.2136
 3318TIP3    H231446   1.309   2.285  15.810  0.4047 -0.3407 -0.4048
 3319TIP3   OH231447   0.653   6.720  10.605  0.3720 -0.1780 -0.1888
 3319TIP3    H131448   0.568   6.691  10.574 -0.1991  0.2586  0.9585
 3319TIP3    H231449   0.716   6.669  10.554 -0.5726 -0.5121 -1.0209
 3320TIP3   OH231450   6.080   1.968  16.038 -0.4956  0.0364 -0.1796
 3320TIP3    H131451   6.133   1.970  16.117  0.5009 -0.0486 -0.8425
 3320TIP3    H231452   6.078   1.876  16.012 -0.4111  0.1333 -0.5332
 3321TIP3   OH231453   4.647   4.722   1.822  0.1823 -0.3940  0.0841
 3321TIP3    H131454   4.676   4.765   1.741 -0.7278 -1.2359 -0.7003
 3321TIP3    H231455   4.728   4.689   1.862  0.4331 -1.8455 -1.5705
 3322TIP3   OH231456   2.740   4.152  12.136  0.8645  0.4427  0.0784
 3322TIP3    H131457   2.750   4.188  12.223  0.5782  0.2967  0.1707
 3322TIP3    H231458   2.708   4.063  12.150  0.2840  0.6084 -0.1957
 3323TIP3   OH231459   3.569   4.545  17.142 -0.3973  0.0890 -1.0617
 3323TIP3    H131460   3.550   4.534  17.049  1.0468  0.5389 -1.4231
 3323TIP3    H231461   3.627   4.471  17.163  1.0930  1.2341 -1.0724
 3324TIP3   OH231462   6.269   2.214   4.103 -0.6020 -0.6235  0.1017
 3324TIP3    H131463   6.364   2.208   4.113 -0.4406 -0.2996 -1.1491
 3324TIP3    H231464   6.252   2.186   4.013 -1.4845  1.1410 -0.3028
 3325TIP3   OH231465   2.194   0.081   2.053  0.4342  0.4013 -0.1173
 3325TIP3    H131466   2.130   0.061   2.121  0.3548 -0.6462 -0.4807
 3325TIP3    H231467   2.154   0.048   1.972  2.0645 -1.6355 -0.1364
 3326TIP3   OH231468   3.112   5.232  15.796 -0.6076 -0.1822  0.2684
 3326TIP3    H131469   3.035   5.176  15.782 -0.1813 -0.9422  0.9488
 3326TIP3    H231470   3.094   5.311  15.744 -2.3383  0.1100  1.2813
 3327TIP3   OH231471   3.198   1.112   1.628  0.3461  0.3802 -0.4300
 3327TIP3    H131472   3.235   1.127   1.541  1.4518  0.9068  0.1103
 3327TIP3    H231473   3.117   1.163   1.629  0.1689  0.1234 -1.2472
 3328TIP3   OH231474   4.903   4.737  15.644  0.0725 -0.2893 -0.1331
 3328TIP3    H131475   4.871   4.666  15.588  1.9770 -0.9379 -0.4148
 3328TIP3    H231476   4.846   4.812  15.623  1.0357 -0.3784 -3.2718
 3329TIP3   OH231477   4.266   6.123   2.221 -0.4204 -0.1856  1.0384
 3329TIP3    H131478   4.245   6.208   2.182  1.5753  0.3407  1.0772
 3329TIP3    H231479   4.208   6.061   2.177 -2.1846  1.2549  1.3067
 3330TIP3   OH231480   4.778   5.888  15.265  0.6590  0.2446  0.3079
 3330TIP3    H131481   4.700   5.894  15.319  1.3088  0.3525  1.2373
 3330TIP3    H231482   4.744   5.879  15.176 -0.4211 -2.7216  0.9750
 3331TIP3   OH231483   2.216   5.711  13.933 -0.1576  0.3713  0.0336
 3331TIP3    H131484   2.281   5.709  14.004  0.6922  0.3060 -0.7351
 3331TIP3    H231485   2.137   5.747  13.973  0.9201  2.2530  0.5198
 3332TIP3   OH231486   1.129   4.861   4.044  0.2280 -0.0635 -0.1998
 3332TIP3    H131487   1.067   4.792   4.020 -0.3894  1.0004 -1.7289
 3332TIP3    H231488   1.074   4.935   4.070  0.8508  0.8119 -1.3322
 3333TIP3   OH231489   2.593   1.471   0.821 -0.3014 -0.1825  0.2927
 3333TIP3    H131490   2.537   1.397   0.793  0.8279 -0.4246 -1.4134
 3333TIP3    H231491   2.577   1.478   0.915 -0.7715 -2.3316  0.4204
 3334TIP3   OH231492   0.761   0.400  16.139 -0.0146 -0.3521 -0.5139
 3334TIP3    H131493   0.755   0.408  16.044 -0.1661  2.1248 -0.3214
 3334TIP3    H231494   0.836   0.454  16.163 -0.6788 -0.0270  0.8906
 3335TIP3   OH231495   1.196   1.083   1.613  0.0455 -1.0964 -0.3355
 3335TIP3    H131496   1.250   1.150   1.654  0.4948 -1.3259 -0.5433
 3335TIP3    H231497   1.258   1.028   1.566 -0.3898 -1.2693 -0.7120
 3336TIP3   OH231498   6.338   5.511  11.755 -0.5769  0.0158  0.3841
 3336TIP3    H131499   6.328   5.569  11.680  1.8418  0.2501  0.1892
 3336TIP3    H231500   6.369   5.567  11.826  0.4128 -0.7500  0.5891
 3337TIP3   OH231501   3.952   4.022  12.396  0.2776 -0.2122  0.3659
 3337TIP3    H131502   3.902   4.084  12.343  1.1769  0.9017  0.7868
 3337TIP3    H231503   3.958   3.944  12.342  0.7372  0.7214 -0.9740
 3338TIP3   OH231504   4.652   1.480   5.443  0.4498  0.1811 -0.1685
 3338TIP3    H131505   4.716   1.457   5.376 -0.0688  0.9547 -0.9359
 3338TIP3    H231506   4.655   1.575   5.448  0.0477  0.1642  0.4810
 3339TIP3   OH231507   5.597   3.500   4.246  0.2636  0.0910  0.0260
 3339TIP3    H131508   5.558   3.529   4.328 -1.8203 -0.1066 -0.8580
 3339TIP3    H231509   5.524   3.459   4.198  1.0556  1.5602 -2.5343
 3340TIP3   OH231510   1.767   5.014   1.009 -0.1717 -0.1381 -0.7263
 3340TIP3    H131511   1.766   4.929   1.053  1.3644 -0.7372 -1.7795
 3340TIP3    H231512   1.814   5.071   1.070 -1.4799  0.0569  0.1226
 3341TIP3   OH231513   0.205   6.482  11.539  0.5226  0.5067  0.0864
 3341TIP3    H131514   0.175   6.454  11.452  2.2243  0.0248 -0.3533
 3341TIP3    H231515   0.151   6.432  11.600  0.6606 -0.6163 -0.7021
 3342TIP3   OH231516   3.880   2.989  15.690 -0.4518  0.5531 -0.1685
 3342TIP3    H131517   3.826   2.982  15.768 -1.4660 -1.3217 -1.0177
 3342TIP3    H231518   3.876   2.902  15.649  3.8922  0.0406  0.1990
 3343TIP3   OH231519   4.505   5.922   3.273 -0.1241 -0.4835 -0.2832
 3343TIP3    H131520   4.544   5.835   3.288  0.6670 -0.4724 -2.0836
 3343TIP3    H231521   4.495   5.926   3.178 -0.0098  1.4646 -0.2166
 3344TIP3   OH231522   2.673   0.513   1.537 -0.8291 -0.4051  0.0620
 3344TIP3    H131523   2.580   0.530   1.548 -1.1607 -1.6442 -0.6748
 3344TIP3    H231524   2.714   0.599   1.537 -2.1440  0.2298 -1.1223
 3345TIP3   OH231525   3.873   4.204   3.120  0.5514  0.5423 -0.2800
 3345TIP3    H131526   3.874   4.196   3.216 -0.6743 -0.8534 -0.3669
 3345TIP3    H231527   3.956   4.246   3.099  1.9217 -1.2938  1.2320
 3346TIP3   OH231528   1.636   4.822   5.800 -0.2718  0.0666  0.3943
 3346TIP3    H131529   1.597   4.757   5.858  0.1662  0.9807  1.7300
 3346TIP3    H231530   1.600   4.802   5.713 -0.2313 -1.8689  0.8077
 3347TIP3   OH231531   2.049   4.211  15.659 -0.5181  0.3918  0.0644
 3347TIP3    H131532   1.984   4.223  15.590 -1.6727  0.8359  1.2116
 3347TIP3    H231533   2.112   4.282  15.645 -1.0493  0.8187 -0.2020
 3348TIP3   OH231534   6.533   0.659  15.003  0.0919  0.0955 -0.6697
 3348TIP3    H131535   6.603   0.636  15.064  0.5346 -0.0806 -1.2429
 3348TIP3    H231536   6.456   0.672  15.059  0.6336  0.5197 -0.0163
 3349TIP3   OH231537   4.729   4.268  13.005  0.1537  0.7691 -0.4167
 3349TIP3    H131538   4.725   4.193  12.946  0.9142 -0.4379  1.0290
 3349TIP3    H231539   4.643   4.272  13.045  0.0152  0.8542 -0.7271
 3350TIP3   OH231540   3.962   4.947  13.832 -0.4419  0.1534 -0.0481
 3350TIP3    H131541   3.987   4.985  13.748 -1.8091 -1.0791 -1.0521
 3350TIP3    H231542   3.959   4.852  13.816 -1.3717 -0.0504  1.2009
 3351TIP3   OH231543   2.129   3.046  16.498 -0.4826  0.2795  0.5675
 3351TIP3    H131544   2.136   3.056  16.403 -0.5999 -1.1781  0.3993
 3351TIP3    H231545   2.065   3.112  16.525  0.0236  1.1241 -0.2734
 3352TIP3   OH231546   1.373   3.208  15.273  0.6049  0.3740  0.3266
 3352TIP3    H131547   1.460   3.181  15.242  0.9933 -0.4499  2.0517
 3352TIP3    H231548   1.322   3.127  15.272  0.9761  0.0634  2.9170
 3353TIP3   OH231549   5.588   5.048   2.763  0.0270  0.3944 -0.0892
 3353TIP3    H131550   5.610   5.015   2.850 -0.5310 -2.7049 -1.0366
 3353TIP3    H231551   5.564   4.969   2.714  1.7678  1.8695 -3.4769
 3354TIP3   OH231552   0.981   5.674  15.203  0.0169 -0.0457 -0.4722
 3354TIP3    H131553   0.990   5.768  15.186  0.6341  0.5070  2.5102
 3354TIP3    H231554   1.071   5.642  15.205  0.0594  0.1280  2.4670
 3355TIP3   OH231555   3.406   2.802   4.259 -0.1488  0.2881 -0.0741
 3355TIP3    H131556   3.414   2.757   4.343 -1.9778 -0.4907 -0.2974
 3355TIP3    H231557   3.488   2.850   4.250 -0.0117  0.5263  2.2261
 3356TIP3   OH231558   3.700   6.149   3.229 -0.2551 -0.3414  0.1012
 3356TIP3    H131559   3.731   6.089   3.297 -0.2785  1.0139  1.3390
 3356TIP3    H231560   3.609   6.168   3.253 -0.6200 -0.7631 -0.9569
 3357TIP3   OH231561   4.374   6.729   4.523  0.4713 -0.3904 -0.0018
 3357TIP3    H131562   4.308   6.697   4.584  0.9586 -0.3474  0.5539
 3357TIP3    H231563   4.325   6.756   4.445 -0.1360 -0.5630  0.3224
 3358TIP3   OH231564   0.455   3.948   4.342  0.0841 -0.6394  0.3280
 3358TIP3    H131565   0.452   4.021   4.280 -0.1910 -1.5461 -0.7435
 3358TIP3    H231566   0.538   3.958   4.388  0.7355 -0.5127 -0.8772
 3359TIP3   OH231567   5.313   4.268  10.399  0.5821 -0.0282 -0.2318
 3359TIP3    H131568   5.394   4.308  10.365  0.5777  0.0292 -0.1754
 3359TIP3    H231569   5.339   4.229  10.482  1.0454 -1.8569 -1.2123
 3360TIP3   OH231570   4.513   4.557  16.781 -0.0105 -0.2426  0.0226
 3360TIP3    H131571   4.453   4.628  16.801 -0.1756 -0.3930  0.0590
 3360TIP3    H231572   4.570   4.551  16.858 -0.5193 -0.6879  0.3756
 3361TIP3   OH231573   1.874   6.353   4.704  0.0504 -0.0209 -0.6685
 3361TIP3    H131574   1.843   6.335   4.615 -1.4062 -0.7179 -0.0289
 3361TIP3    H231575   1.902   6.444   4.701  1.4726 -0.4693 -2.2486
 3362TIP3   OH231576   5.371   4.920  14.099 -0.4775 -0.1295 -0.3847
 3362TIP3    H131577   5.400   4.897  14.188  0.9714  1.2299 -0.4933
 3362TIP3    H231578   5.360   4.835  14.056  0.9663 -0.7601  0.4249
 3363TIP3   OH231579   3.509   3.463  11.018 -0.3685 -0.3294  0.0900
 3363TIP3    H131580   3.580   3.514  10.978  1.3943 -1.5010  1.6504
 3363TIP3    H231581   3.458   3.528  11.067 -0.7360  0.6094 -1.5048
 3364TIP3   OH231582   4.086   3.020  11.687  0.2198  0.2722 -0.0122
 3364TIP3    H131583   4.088   2.957  11.759 -0.5135  0.9569  0.6173
 3364TIP3    H231584   4.116   2.971  11.610  2.7377 -0.0293  1.0968
 3365TIP3   OH231585   2.132   0.385  13.154 -0.1140 -0.5749  0.2889
 3365TIP3    H131586   2.065   0.321  13.180  0.9517 -1.3899  1.0759
 3365TIP3    H231587   2.107   0.410  13.065 -0.7156 -1.8860  0.0694
 3366TIP3   OH231588   5.193   5.943  16.328  0.4592  0.6136 -0.1913
 3366TIP3    H131589   5.237   6.010  16.274  0.3210  1.6555  0.9577
 3366TIP3    H231590   5.158   5.992  16.402  1.4114 -0.9410  1.3097
 3367TIP3   OH231591   2.461   5.826   2.631 -0.4794  0.4747 -0.1378
 3367TIP3    H131592   2.526   5.896   2.622 -0.3405  0.8219  2.9742
 3367TIP3    H231593   2.508   5.746   2.607 -0.0303  1.1935 -1.6724
 3368TIP3   OH231594   0.367   3.630   2.997 -0.0168  0.4060 -0.5564
 3368TIP3    H131595   0.283   3.645   2.954  1.1524  0.4438 -2.9199
 3368TIP3    H231596   0.421   3.587   2.931  1.4515 -0.7465  1.3209
 3369TIP3   OH231597   1.595   4.265  14.582  0.0038 -0.3500  0.2394
 3369TIP3    H131598   1.682   4.230  14.602 -0.2048 -1.7349 -1.2194
 3369TIP3    H231599   1.592   4.270  14.487 -0.2111  3.1351  0.3736
 3370TIP3   OH231600   5.558   0.024   6.491  0.1204  0.6093  0.5055
 3370TIP3    H131601   5.596  -0.050   6.539  0.5977 -0.4013 -1.3907
 3370TIP3    H231602   5.485  -0.015   6.442  0.9364  1.2156 -1.2152
 3371TIP3   OH231603   0.646   6.580  16.046 -0.4661  0.2401 -0.2031
 3371TIP3    H131604   0.636   6.564  16.140 -0.8499  0.0349 -0.2809
 3371TIP3    H231605   0.737   6.608  16.036 -0.4262  0.2622  0.2288
 3372TIP3   OH231606   2.554   2.286   0.453 -0.0110 -0.4175  0.4599
 3372TIP3    H131607   2.597   2.268   0.370 -0.6299 -0.0313  0.0534
 3372TIP3    H231608   2.587   2.373   0.478  1.2770 -1.1473  1.3293
 3373TIP3   OH231609   6.098   0.097  13.809  0.1268 -0.8160  0.6735
 3373TIP3    H131610   6.121   0.113  13.901  0.0117  1.1621  0.3841
 3373TIP3    H231611   6.180   0.109  13.761 -0.0810 -0.5733  0.3780
 3374TIP3   OH231612   1.174   2.487   4.010 -0.5444  0.3556  0.2190
 3374TIP3    H131613   1.145   2.433   4.084 -1.1480  0.2834 -0.0645
 3374TIP3    H231614   1.166   2.430   3.934 -0.5059  0.6191  0.0176
 3375TIP3   OH231615   5.648   3.247   1.033 -0.0180 -0.0545 -0.0460
 3375TIP3    H131616   5.662   3.154   1.051  2.8813  0.2189 -0.6975
 3375TIP3    H231617   5.617   3.283   1.116  1.6035 -1.0874  1.0384
 3376TIP3   OH231618   3.115   4.237  15.304  0.1016  0.1267 -0.3132
 3376TIP3    H131619   3.194   4.256  15.254 -0.0993  0.2841 -0.5776
 3376TIP3    H231620   3.058   4.312  15.287  0.1531  0.3299  0.4056
 3377TIP3   OH231621   3.433   6.555  10.703  0.1932  0.4316  0.3599
 3377TIP3    H131622   3.525   6.578  10.696  0.1094  0.2054 -2.0966
 3377TIP3    H231623   3.433   6.462  10.727  0.6354  0.1070 -0.8497
 3378TIP3   OH231624   0.079   5.484   2.578 -0.0235 -0.1693 -0.1121
 3378TIP3    H131625  -0.000   5.444   2.615 -0.2215  1.0637  0.8268
 3378TIP3    H231626   0.123   5.524   2.654  0.1868  1.3704 -1.0322
 3379TIP3   OH231627   6.198   4.964   2.136  0.4349  0.6930 -0.3589
 3379TIP3    H131628   6.274   4.963   2.078  1.3639 -0.9941  0.8372
 3379TIP3    H231629   6.232   5.002   2.218  0.2572 -0.9538  0.5001
 3380TIP3   OH231630   4.567   6.172   4.479 -0.3552  0.4434 -0.0113
 3380TIP3    H131631   4.599   6.197   4.566  1.3838 -0.7253 -0.2870
 3380TIP3    H231632   4.485   6.127   4.495  0.7811 -1.2582  1.2086
 3381TIP3   OH231633   4.577   4.503  11.370  0.2208 -0.2877 -0.2210
 3381TIP3    H131634   4.536   4.588  11.383 -1.3767 -1.2465  1.2815
 3381TIP3    H231635   4.616   4.507  11.283  0.3963  2.0581 -0.0520
 3382TIP3   OH231636   3.008   6.481   2.838 -0.0340 -0.6207  0.0239
 3382TIP3    H131637   3.089   6.530   2.823 -0.5231 -0.0482 -0.7491
 3382TIP3    H231638   2.951   6.543   2.885 -0.1221 -0.9369  0.3351
 3383TIP3   OH231639   5.909   2.613   2.861  0.1388 -0.0324  0.3917
 3383TIP3    H131640   5.997   2.635   2.829  0.0318  2.0959  1.4854
 3383TIP3    H231641   5.920   2.530   2.907  1.3770 -0.2666 -0.2959
 3384TIP3   OH231642   5.374   5.163  14.227  0.3598 -0.3813 -0.6772
 3384TIP3    H131643   5.374   5.080  14.180 -0.6062 -0.9915  0.3867
 3384TIP3    H231644   5.282   5.178  14.250  0.3813  1.4488 -1.6803
 3385TIP3   OH231645   1.992   4.963  13.091  0.2216 -0.5977 -0.1772
 3385TIP3    H131646   2.048   5.015  13.034 -0.3296  1.1163  0.8035
 3385TIP3    H231647   2.053   4.921  13.152  0.6207 -0.5689 -0.5537
 3386TIP3   OH231648   5.951   4.059   4.277  0.3135 -0.4613 -0.1206
 3386TIP3    H131649   5.969   4.067   4.183  2.2692 -0.1203  0.2594
 3386TIP3    H231650   5.941   3.965   4.291 -1.4270 -0.4203 -0.8979
 3387TIP3   OH231651   0.882   5.274   5.396  0.0166 -0.0526 -0.3966
 3387TIP3    H131652   0.890   5.368   5.380  0.2984 -0.0957 -0.5111
 3387TIP3    H231653   0.967   5.238   5.372 -0.2768 -0.4150 -0.8983
 3388TIP3   OH231654   4.673   0.932   3.668  0.1518 -0.0507  0.5281
 3388TIP3    H131655   4.749   0.957   3.614 -0.6913 -1.1897 -1.2433
 3388TIP3    H231656   4.637   1.014   3.699  1.3847  0.5675  0.3602
 3389TIP3   OH231657   5.326   3.824   0.180 -0.0303  0.0091  0.2429
 3389TIP3    H131658   5.371   3.742   0.198 -0.8444 -0.5713 -0.3542
 3389TIP3    H231659   5.396   3.884   0.153  0.4196 -0.7977 -0.3820
 3390TIP3   OH231660   4.638   5.558   3.838 -0.5769  0.3356 -0.3438
 3390TIP3    H131661   4.594   5.568   3.922 -1.8002 -3.4986 -0.4293
 3390TIP3    H231662   4.724   5.522   3.860  0.7751  3.2930 -0.5164
 3391TIP3   OH231663   6.813   2.034   3.762 -0.4890 -0.0869 -0.1918
 3391TIP3    H131664   6.721   2.056   3.753 -0.5541 -0.4689 -0.4440
 3391TIP3    H231665   6.827   1.960   3.703 -0.4191 -1.1557  1.1301
 3392TIP3   OH231666   1.151   5.842   4.549  0.8450  0.2317 -0.4160
 3392TIP3    H131667   1.095   5.837   4.627  2.2869  0.8221  0.6787
 3392TIP3    H231668   1.089   5.850   4.476 -0.5800 -1.6521  0.5219
 3393TIP3   OH231669   4.062   6.370  12.739 -0.2491 -0.4258  0.0675
 3393TIP3    H131670   4.075   6.288  12.691 -0.9998 -1.0567  0.9412
 3393TIP3    H231671   3.972   6.395  12.720 -0.3307 -0.3200  0.5946
 3394TIP3   OH231672   2.823   1.274   6.145 -0.3414 -0.0364  0.8506
 3394TIP3    H131673   2.777   1.335   6.202 -2.3898 -1.5874  0.8893
 3394TIP3    H231674   2.829   1.193   6.195 -2.4892 -1.5323 -1.2271
 3395TIP3   OH231675   3.577   6.640  14.635 -0.0498  0.1910  0.0902
 3395TIP3    H131676   3.652   6.695  14.656 -0.0966 -0.0511  0.8915
 3395TIP3    H231677   3.534   6.624  14.719 -0.6878 -0.1245 -0.2926
 3396TIP3   OH231678   1.249   1.385   0.666  0.2629  0.2871  0.7404
 3396TIP3    H131679   1.247   1.361   0.759  1.7273  0.9381  0.9505
 3396TIP3    H231680   1.171   1.439   0.654 -0.3393 -0.4115  1.4081
 3397TIP3   OH231681   1.422   1.718   5.318 -0.1256  0.3861  0.0576
 3397TIP3    H131682   1.466   1.695   5.236 -0.6801  0.4322 -0.2509
 3397TIP3    H231683   1.465   1.664   5.384  0.4318  0.4655 -0.2383
 3398TIP3   OH231684   4.824   4.886   1.631  0.4422  0.2966 -0.0102
 3398TIP3    H131685   4.859   4.970   1.658  2.1431 -0.4917  0.2872
 3398TIP3    H231686   4.777   4.904   1.549  0.0741  1.6616  0.4911
 3399TIP3   OH231687   1.554   6.514   6.362  0.1915  0.6187 -0.1770
 3399TIP3    H131688   1.566   6.604   6.390  0.9181  0.3569  0.3822
 3399TIP3    H231689   1.507   6.521   6.279 -0.8059  1.4483  0.4477
 3400TIP3   OH231690   2.528   6.450  13.613  0.1909  0.0107 -0.8780
 3400TIP3    H131691   2.538   6.363  13.575  0.7190 -0.0222 -0.6739
 3400TIP3    H231692   2.615   6.490  13.604  0.4653 -0.1762  0.7130
 3401TIP3   OH231693   0.276   0.478  16.756 -0.2586  0.3138  0.0293
 3401TIP3    H131694   0.196   0.448  16.799 -0.7209  1.2786 -0.1382
 3401TIP3    H231695   0.311   0.400  16.713 -1.2005 -0.0784 -0.0327
 3402TIP3   OH231696   2.591   2.079  14.121  0.1444  0.3790 -0.0524
 3402TIP3    H131697   2.623   2.033  14.043  1.6173 -0.2905  0.9196
 3402TIP3    H231698   2.536   2.150  14.087 -0.4305 -0.8103 -1.6382
 3403TIP3   OH231699   5.887   1.917   5.348 -0.1221  0.2038  0.3114
 3403TIP3    H131700   5.902   2.010   5.329 -0.2212 -0.2301 -2.0624
 3403TIP3    H231701   5.851   1.882   5.266 -0.6624 -1.7971  1.3870
 3404TIP3   OH231702   2.091   1.288  13.256 -0.0456 -0.3361  0.0320
 3404TIP3    H131703   2.121   1.370  13.215 -2.9452  0.2892 -0.9572
 3404TIP3    H231704   2.073   1.313  13.347  1.1832 -0.4363  0.3189
 3405TIP3   OH231705   1.459   0.577  10.678  0.2434 -0.4711 -0.4457
 3405TIP3    H131706   1.420   0.491  10.688  0.3395 -0.3850  0.6776
 3405TIP3    H231707   1.544   0.571  10.721 -0.5236  0.7083  1.2788
 3406TIP3   OH231708   4.100   3.299  13.151  0.0020  0.3786  0.2989
 3406TIP3    H131709   4.103   3.210  13.116 -0.9632  0.1007  0.9012
 3406TIP3    H231710   4.049   3.291  13.232 -0.0597  1.4797  0.3746
 3407TIP3   OH231711   0.940   1.357   3.173  0.6910  0.2755  0.0384
 3407TIP3    H131712   0.848   1.336   3.189  0.8998  0.0757  1.0119
 3407TIP3    H231713   0.985   1.273   3.176  0.9112  0.3760 -0.4175
 3408TIP3   OH231714   0.362   2.504   0.403  0.5661 -0.3181  0.0734
 3408TIP3    H131715   0.311   2.570   0.450 -0.1205 -0.9509  0.2270
 3408TIP3    H231716   0.446   2.501   0.449  0.8554  0.9307 -0.3560
 3409TIP3   OH231717   1.834   2.258   0.936  0.0434  0.4161  0.4965
 3409TIP3    H131718   1.840   2.190   0.870 -1.3062 -0.5554  1.3386
 3409TIP3    H231719   1.865   2.217   1.017  1.4262  1.5106  0.5436
 3410TIP3   OH231720   5.989   1.163   2.010 -0.4336 -0.7944 -0.0060
 3410TIP3    H131721   6.085   1.160   2.013 -0.3114  0.5913 -2.0118
 3410TIP3    H231722   5.963   1.171   2.102  1.3563 -1.3284  0.5759
 3411TIP3   OH231723   5.863   4.665  16.467 -0.3050  0.4855  0.3162
 3411TIP3    H131724   5.812   4.584  16.470  0.6827 -0.1388  0.2220
 3411TIP3    H231725   5.825   4.714  16.394  1.5380 -1.5408 -2.0989
 3412TIP3   OH231726   3.150   1.403  15.146  0.2201  0.1195  0.2609
 3412TIP3    H131727   3.207   1.326  15.149 -2.3920 -1.8329  1.6809
 3412TIP3    H231728   3.088   1.389  15.218 -2.0565  2.1398 -1.2672
 3413TIP3   OH231729   5.272   5.195   4.912  0.0840  0.2783 -0.1925
 3413TIP3    H131730   5.245   5.284   4.935  0.1434  0.3199 -0.2845
 3413TIP3    H231731   5.197   5.159   4.865 -0.4518 -0.1775  1.0101
 3414TIP3   OH231732   0.248   3.650  14.055  0.2203  0.4096  0.1867
 3414TIP3    H131733   0.239   3.745  14.055 -0.2278  0.3759  1.2301
 3414TIP3    H231734   0.341   3.635  14.077  0.0650  0.5967  0.9870
 3415TIP3   OH231735   2.586   5.870   0.142  0.5128 -1.1520  0.2172
 3415TIP3    H131736   2.533   5.927   0.086  0.8165 -0.5476  0.5404
 3415TIP3    H231737   2.637   5.816   0.081  0.6142 -0.7119 -0.0885
 3416TIP3   OH231738   1.197   0.867   4.835  0.0027  0.5553  0.0184
 3416TIP3    H131739   1.141   0.842   4.908  0.2249 -0.3902 -0.1300
 3416TIP3    H231740   1.257   0.931   4.871  1.9255 -1.9344  1.3765
 3417TIP3   OH231741   1.641   4.445  12.922 -0.3510 -0.5273  0.1590
 3417TIP3    H131742   1.575   4.485  12.979 -0.4205  0.8758 -0.8697
 3417TIP3    H231743   1.718   4.501  12.932  0.2246 -1.3278  0.2558
 3418TIP3   OH231744   5.390   3.014   5.317  0.6603 -0.1472 -0.2451
 3418TIP3    H131745   5.399   3.066   5.397  1.1538  0.3214 -0.6046
 3418TIP3    H231746   5.432   2.931   5.337 -0.6841 -0.6499  0.5454
 3419TIP3   OH231747   2.132   3.160   1.442  0.9554 -0.1040 -0.1284
 3419TIP3    H131748   2.198   3.178   1.509  0.0752 -0.7338  0.9272
 3419TIP3    H231749   2.127   3.064   1.439  0.9806 -0.0814 -1.0953
 3420TIP3   OH231750   5.500   3.910   3.489 -0.0071  0.0279 -0.6519
 3420TIP3    H131751   5.500   3.858   3.408  0.1564  0.9298 -1.2275
 3420TIP3    H231752   5.502   3.844   3.559 -2.1325 -0.8151 -1.3481
 3421TIP3   OH231753   6.561   5.263  13.762  0.0992  0.2045 -0.0818
 3421TIP3    H131754   6.640   5.267  13.816 -0.7094 -2.1397  1.3546
 3421TIP3    H231755   6.501   5.207  13.812 -1.4979 -0.1997 -2.3861
 3422TIP3   OH231756   4.947   1.901  14.251  0.3887 -0.3119 -0.2015
 3422TIP3    H131757   4.969   1.820  14.205 -1.7060  0.0485 -1.9384
 3422TIP3    H231758   4.851   1.905  14.248  0.4049  1.6926  0.8004
 3423TIP3   OH231759   2.029   6.523  11.964 -0.0643  0.2910  0.6593
 3423TIP3    H131760   2.092   6.527  12.036 -0.9192  1.9515  1.3252
 3423TIP3    H231761   2.071   6.465  11.899  0.7480 -1.1346  2.4118
 3424TIP3   OH231762   0.549   6.335  14.956 -0.4631 -0.4318 -0.3922
 3424TIP3    H131763   0.486   6.368  15.020  0.0754 -1.9418  0.9450
 3424TIP3    H231764   0.506   6.261  14.915 -0.5563  0.1373 -1.3312
 3425TIP3   OH231765   5.282   0.925   1.793 -0.6119 -0.4632  0.3684
 3425TIP3    H131766   5.356   0.894   1.846 -0.8071  0.4499  1.1753
 3425TIP3    H231767   5.217   0.954   1.857 -1.3060 -0.4097 -0.3558
 3426TIP3   OH231768   1.531   1.642  11.859 -0.3072  0.2019  0.7554
 3426TIP3    H131769   1.564   1.717  11.908  0.3514  2.0308 -2.3423
 3426TIP3    H231770   1.609   1.594  11.832 -0.6441 -0.6497  1.2866
 3427TIP3   OH231771   0.062   0.079  16.523  0.4837 -0.1383  0.6267
 3427TIP3    H131772   0.117   0.072  16.445  3.1815 -1.2204  2.5519
 3427TIP3    H231773   0.004   0.004  16.519 -0.6054  0.7696 -1.1967
 3428TIP3   OH231774   4.411   0.556  12.815  0.3874 -0.3302  0.3030
 3428TIP3    H131775   4.429   0.488  12.880 -4.0134 -1.9130  0.0333
 3428TIP3    H231776   4.380   0.508  12.738  1.9059  1.7374 -1.6727
 3429TIP3   OH231777   5.973   2.877  10.782  0.9267  0.0759  0.0208
 3429TIP3    H131778   5.922   2.957  10.793  1.0270  0.3145 -1.1646
 3429TIP3    H231779   5.908   2.810  10.760  0.9953  0.1348 -0.3643
 3430TIP3   OH231780   4.681   0.467  16.845 -0.4304  0.3314  0.0449
 3430TIP3    H131781   4.760   0.462  16.792  0.7716 -2.0794  1.9556
 3430TIP3    H231782   4.712   0.481  16.934 -2.0404 -1.7234  0.9864
 3431TIP3   OH231783   1.006   5.481  13.748 -0.4584 -0.2541  0.5808
 3431TIP3    H131784   0.931   5.534  13.774  0.9467  1.0901  2.0334
 3431TIP3    H231785   1.011   5.413  13.815  0.9735  1.0483  1.8563
 3432TIP3   OH231786   4.366   2.489  15.358 -0.1288  0.4493  0.6422
 3432TIP3    H131787   4.391   2.431  15.287  1.8781  2.4329 -0.3152
 3432TIP3    H231788   4.422   2.463  15.432 -1.9360 -1.3451  1.4268
 3433TIP3   OH231789   5.142   0.644   2.398  1.0616 -0.0200 -0.4662
 3433TIP3    H131790   5.191   0.726   2.388  1.9573 -0.4482  0.4059
 3433TIP3    H231791   5.164   0.613   2.485 -1.9209  0.5090  0.5572
 3434TIP3   OH231792   4.912   0.703  14.787 -0.1743  0.5573  0.6172
 3434TIP3    H131793   4.882   0.719  14.697 -1.6800 -3.0164  0.4240
 3434TIP3    H231794   4.999   0.744  14.790  0.2579  0.0673 -2.7028
 3435TIP3   OH231795   1.812   2.358   2.664 -0.4251 -0.2215  0.2862
 3435TIP3    H131796   1.831   2.265   2.652  1.2071 -0.2138  2.3248
 3435TIP3    H231797   1.879   2.403   2.612  0.4410 -0.2083  1.3869
 3436TIP3   OH231798   2.975   1.654   3.183  0.2665  0.1296 -0.0259
 3436TIP3    H131799   2.986   1.563   3.155  0.4788 -0.0123  0.5131
 3436TIP3    H231800   3.058   1.696   3.157  0.0623  0.2369 -0.5188
 3437TIP3   OH231801   5.537   0.063  17.146 -0.2442  0.8215  0.2834
 3437TIP3    H131802   5.613   0.101  17.100  0.2918 -0.6755 -0.0964
 3437TIP3    H231803   5.527  -0.024  17.107 -1.6985  0.7224  0.8674
 3438TIP3   OH231804   1.931   2.003  12.465 -0.1666 -0.6528  0.1365
 3438TIP3    H131805   1.841   2.028  12.488  0.3189 -0.0075  1.3984
 3438TIP3    H231806   1.939   2.025  12.372 -0.4963  1.7970  0.6447
 3439TIP3   OH231807   3.042   2.124   3.655  0.1918  0.0236  0.3143
 3439TIP3    H131808   2.983   2.119   3.730 -1.7614 -0.2982 -1.2022
 3439TIP3    H231809   3.106   2.192   3.679 -0.6478  0.2190  2.0633
 3440TIP3   OH231810   0.413   3.340  15.206 -0.6260 -0.0568  0.0082
 3440TIP3    H131811   0.383   3.430  15.220 -2.4004 -0.6467  0.2107
 3440TIP3    H231812   0.499   3.336  15.247 -1.3903  1.0088  1.7694
 3441TIP3   OH231813   6.446   3.177  14.296  0.3038  0.0001  0.5017
 3441TIP3    H131814   6.436   3.246  14.230 -0.8533 -0.8187 -0.1823
 3441TIP3    H231815   6.537   3.187  14.327  0.2320  1.6476  0.2187
 3442TIP3   OH231816   5.235   1.617   3.249 -0.4118  0.4628 -0.0095
 3442TIP3    H131817   5.164   1.622   3.185  0.2752  0.2737 -0.7820
 3442TIP3    H231818   5.238   1.524   3.274  0.3272  0.2543 -0.8460
 3443TIP3   OH231819   3.945   2.382   2.954 -0.1116 -0.2821  0.3845
 3443TIP3    H131820   3.923   2.441   2.882 -2.4783  0.3258  1.5919
 3443TIP3    H231821   3.969   2.300   2.910  0.3531  0.6443 -1.1597
 3444TIP3   OH231822   4.859   3.514  16.734  0.4738  0.6596 -0.3288
 3444TIP3    H131823   4.848   3.608  16.746  0.0727  0.5803 -0.0714
 3444TIP3    H231824   4.938   3.493  16.783  0.1271  0.7306  0.2612
 3445TIP3   OH231825   3.781   5.313  11.250  0.5756  0.1979 -0.1897
 3445TIP3    H131826   3.726   5.367  11.194  0.0611  1.1997  1.2586
 3445TIP3    H231827   3.720   5.264  11.304  1.0928  0.2244  0.4234
 3446TIP3   OH231828   2.451   4.436  14.557  0.3869 -0.4835 -0.0469
 3446TIP3    H131829   2.534   4.406  14.520  0.4655 -0.2145 -0.0908
 3446TIP3    H231830   2.384   4.395  14.503  0.4871 -0.8848  0.1304
 3447TIP3   OH231831   2.227   1.502  11.654  0.0735  0.3834 -0.2115
 3447TIP3    H131832   2.175   1.505  11.574 -2.6120  1.6717  1.4973
 3447TIP3    H231833   2.178   1.443  11.712  1.0656  0.7956  1.0641
 3448TIP3   OH231834   4.438   2.152  15.529  0.3043 -1.3580  0.4624
 3448TIP3    H131835   4.405   2.173  15.441  0.7314 -0.5873  0.4822
 3448TIP3    H231836   4.473   2.064  15.521 -0.0404 -1.4511 -0.0373
 3449TIP3   OH231837   2.127   3.231  15.330 -0.5695 -0.1631 -0.2241
 3449TIP3    H131838   2.060   3.288  15.369 -0.3051 -1.1719  1.7695
 3449TIP3    H231839   2.099   3.142  15.354  1.3092 -0.6092  0.3789
 3450TIP3   OH231840   2.389   1.388  13.653  0.1000  0.0552 -0.7411
 3450TIP3    H131841   2.324   1.323  13.626 -1.1965  0.2269  1.8007
 3450TIP3    H231842   2.346   1.472  13.638 -0.5594  0.1539  1.5768
 3451TIP3   OH231843   2.007   2.020   2.225  0.2221  0.5403  0.2010
 3451TIP3    H131844   2.042   1.936   2.195 -2.5899 -0.3082 -0.8198
 3451TIP3    H231845   2.046   2.084   2.166 -0.3947 -0.4529 -1.3301
 3452TIP3   OH231846   1.388   2.094  12.400  0.4338 -0.5067 -0.4065
 3452TIP3    H131847   1.303   2.110  12.441 -0.2401  0.0003 -1.9707
 3452TIP3    H231848   1.424   2.181  12.383  1.7331 -0.7112  1.1448
 3453TIP3   OH231849   3.545   2.763   1.291 -0.1955 -0.1632 -0.0128
 3453TIP3    H131850   3.539   2.677   1.333 -0.0057 -0.1545  0.0317
 3453TIP3    H231851   3.610   2.752   1.221  2.2015  0.7454  1.9851
 3454TIP3   OH231852   5.800   3.661   2.741 -0.3577  0.3381  0.3613
 3454TIP3    H131853   5.750   3.580   2.755  0.5745  0.0349  2.1289
 3454TIP3    H231854   5.733   3.728   2.728 -1.2434 -0.2227  1.8028
 3455TIP3   OH231855   0.958   0.266   0.494 -0.6497 -0.4879  0.1472
 3455TIP3    H131856   0.967   0.251   0.588 -0.8423  0.3199  0.3023
 3455TIP3    H231857   0.875   0.314   0.485  1.2439  2.9227 -0.0190
 3456TIP3   OH231858   2.291   0.424   0.622  0.2554  0.0191  0.2018
 3456TIP3    H131859   2.276   0.502   0.675 -1.5843 -0.2141  0.0460
 3456TIP3    H231860   2.379   0.435   0.588  1.0435  0.7333  2.3739
 3457TIP3   OH231861   1.723   3.775   1.339 -0.1503 -0.4029 -0.1866
 3457TIP3    H131862   1.774   3.706   1.381 -0.0814  0.3186  0.9603
 3457TIP3    H231863   1.639   3.735   1.320 -0.2857 -0.6761  0.9356
 3458TIP3   OH231864   5.705   4.493   0.840  0.3770 -0.3792  0.3017
 3458TIP3    H131865   5.620   4.530   0.862  0.1816  0.0339 -1.1201
 3458TIP3    H231866   5.700   4.402   0.867 -0.7688 -0.5372 -0.4114
 3459TIP3   OH231867   3.385   1.663   4.612 -0.3590  0.5964  0.0048
 3459TIP3    H131868   3.427   1.748   4.598 -1.6379  1.6642  2.3655
 3459TIP3    H231869   3.426   1.605   4.548 -0.8052  3.4257 -2.9466
 3460TIP3   OH231870   1.320   4.175  11.726 -0.1753  0.2942 -0.1344
 3460TIP3    H131871   1.246   4.115  11.737 -0.9438  0.9821 -1.3958
 3460TIP3    H231872   1.289   4.258  11.764  0.1561  0.4293 -0.1604
 3461TIP3   OH231873   4.565   3.524   4.009 -0.0764  0.6073  0.8169
 3461TIP3    H131874   4.598   3.571   4.086  0.3792  1.6330  0.0131
 3461TIP3    H231875   4.495   3.580   3.976  0.8756  1.0331 -0.5061
 3462TIP3   OH231876   3.002   4.416  11.798  0.3109 -0.0437  0.0977
 3462TIP3    H131877   3.075   4.372  11.755  0.3168 -0.7424  0.8187
 3462TIP3    H231878   3.038   4.450  11.879  0.6438  2.4910 -1.0735
 3463TIP3   OH231879   0.760   1.117   6.041  0.1321  0.2401 -0.3302
 3463TIP3    H131880   0.820   1.045   6.060 -1.2519 -1.1604 -1.0987
 3463TIP3    H231881   0.764   1.173   6.119 -1.6985 -2.7530  2.0544
 3464TIP3   OH231882   5.044   3.256   4.989 -0.1692  0.2500  0.4484
 3464TIP3    H131883   4.991   3.192   4.942 -1.1682  0.3025  1.4839
 3464TIP3    H231884   5.115   3.205   5.028 -0.0268  0.0249 -0.1111
 3465TIP3   OH231885   6.405   3.546   5.053  0.2805 -0.1953 -0.0369
 3465TIP3    H131886   6.343   3.567   4.983 -0.2358 -1.4131  0.0544
 3465TIP3    H231887   6.379   3.605   5.125 -2.6493 -2.6568  1.0380
 3466TIP3   OH231888   4.458   1.258   4.731  0.0321  0.2494  0.0966
 3466TIP3    H131889   4.409   1.318   4.787  0.9232  0.4493  0.6784
 3466TIP3    H231890   4.407   1.253   4.651 -0.5032  1.1070  0.3751
 3467TIP3   OH231891   0.513   6.532   1.170  0.8870 -0.3483 -0.0211
 3467TIP3    H131892   0.434   6.571   1.133  2.2847  2.1047 -0.4699
 3467TIP3    H231893   0.508   6.440   1.143 -2.2440 -0.4690  0.7281
 3468TIP3   OH231894   4.958   6.455   5.428 -0.5300  0.5987 -0.4833
 3468TIP3    H131895   4.906   6.410   5.361 -0.0920  0.7546 -0.9280
 3468TIP3    H231896   4.957   6.547   5.402 -1.3489  0.8423  0.3761
 3469TIP3   OH231897   5.563   4.826  15.574  0.2864 -0.3576 -0.0692
 3469TIP3    H131898   5.489   4.772  15.602  0.5025 -0.3767  0.4830
 3469TIP3    H231899   5.573   4.891  15.644  1.0789 -0.6432  0.0923
 3470TIP3   OH231900   5.099   0.020   3.159  0.1716  0.4307  0.4260
 3470TIP3    H131901   5.107   0.116   3.166  0.5360  0.4082  0.3627
 3470TIP3    H231902   5.189  -0.010   3.145 -0.1179  0.1925 -1.0106
 3471TIP3   OH231903   5.871   1.591  12.265  0.1288 -0.1599 -0.3058
 3471TIP3    H131904   5.796   1.549  12.307  0.0492  0.4632  0.1811
 3471TIP3    H231905   5.935   1.603  12.336  1.0042 -1.3750 -0.8599
 3472TIP3   OH231906   5.509   3.467   0.693 -0.2013 -0.1455  0.1157
 3472TIP3    H131907   5.600   3.496   0.680 -0.6792  0.8290 -1.0663
 3472TIP3    H231908   5.472   3.462   0.605 -1.5005  0.1156  0.6367
 3473TIP3   OH231909   4.241   1.859  17.199 -0.6286 -0.2036 -0.4601
 3473TIP3    H131910   4.314   1.851  17.137 -0.9056 -2.6817 -0.5261
 3473TIP3    H231911   4.165   1.878  17.144 -0.6599 -1.1760 -0.7522
 3474TIP3   OH231912   1.272   3.508  11.054 -0.4652  0.3965  0.0083
 3474TIP3    H131913   1.207   3.570  11.022  0.8883  1.6238 -0.3703
 3474TIP3    H231914   1.348   3.521  10.999  1.6478  2.0028  3.1754
 3475TIP3   OH231915   3.509   0.528   5.013 -0.3030  0.5097  0.7757
 3475TIP3    H131916   3.581   0.470   4.988 -0.5509  0.3413  0.4412
 3475TIP3    H231917   3.538   0.615   4.986 -0.4792  0.3570  0.0950
 3476TIP3   OH231918   6.457   4.570   4.957 -0.1215  0.1674  1.1087
 3476TIP3    H131919   6.488   4.511   5.026  2.3049  1.5807  1.2836
 3476TIP3    H231920   6.531   4.577   4.897 -2.2537 -1.2342 -1.8409
 3477TIP3   OH231921   6.246   2.034   6.082  1.0378  0.1572  0.0844
 3477TIP3    H131922   6.215   1.954   6.125  0.8290 -0.7897 -1.7715
 3477TIP3    H231923   6.185   2.102   6.110  1.2272 -0.3011  1.6911
 3478TIP3   OH231924   0.609   3.494  11.743  0.4602 -0.7382 -0.4196
 3478TIP3    H131925   0.638   3.566  11.687  2.1116 -0.9458  0.1256
 3478TIP3    H231926   0.646   3.416  11.702 -0.7517 -1.2039 -0.6304
 3479TIP3   OH231927   3.561   0.452   4.209  0.3079  0.0079 -0.2746
 3479TIP3    H131928   3.628   0.482   4.147  0.1792 -2.6027 -1.7314
 3479TIP3    H231929   3.607   0.394   4.269 -0.6702 -2.2363 -1.6100
 3480TIP3   OH231930   3.477   5.527   3.385 -0.8700  0.2411 -0.3150
 3480TIP3    H131931   3.505   5.618   3.380  0.3419 -0.0138  1.3496
 3480TIP3    H231932   3.416   5.526   3.459 -1.0322 -0.2597 -0.4553
 3481TIP3   OH231933   2.967   1.368  15.352 -0.2659  0.2337  0.0168
 3481TIP3    H131934   2.966   1.332  15.440 -2.3311 -2.5164 -1.0348
 3481TIP3    H231935   2.887   1.421  15.347  0.1163  0.8062 -0.0442
 3482TIP3   OH231936   5.293   3.478  16.564  0.5251  0.5705  0.5006
 3482TIP3    H131937   5.211   3.477  16.515  1.3720  2.4964 -1.0224
 3482TIP3    H231938   5.266   3.484  16.656 -1.0683  1.9113 -0.0193
 3483TIP3   OH231939   6.548   3.188  15.949  0.2662 -0.1144 -0.0899
 3483TIP3    H131940   6.566   3.212  16.040  1.0971  0.2856 -0.3601
 3483TIP3    H231941   6.621   3.224  15.899 -2.2574  3.2781 -1.4882
 3484TIP3   OH231942   0.806   2.585   5.015  0.6929  0.1133  0.2293
 3484TIP3    H131943   0.879   2.540   5.056 -0.1290 -2.5088 -1.0514
 3484TIP3    H231944   0.844   2.628   4.939  1.0475 -0.7375 -0.0853
 3485TIP3   OH231945   4.328   5.640   3.141 -0.0149  0.3183 -0.0029
 3485TIP3    H131946   4.373   5.640   3.226 -0.1282  1.0145  0.0587
 3485TIP3    H231947   4.244   5.681   3.158 -0.1913  0.1106 -0.3729
 3486TIP3   OH231948   5.938   0.565   0.100 -0.3433  0.4061  0.1607
 3486TIP3    H131949   5.871   0.608   0.154 -2.0705  0.8328 -2.2178
 3486TIP3    H231950   5.968   0.634   0.041  0.8595 -0.2758 -0.0271
 3487TIP3   OH231951   4.909   4.950   3.913 -0.2777 -0.5076 -0.3713
 3487TIP3    H131952   4.911   5.029   3.860  0.6623 -0.1244  0.2318
 3487TIP3    H231953   4.924   4.979   4.003 -0.5334 -1.2993 -0.0595
 3488TIP3   OH231954   1.917   1.793   2.614 -0.1734 -0.1469 -0.1857
 3488TIP3    H131955   1.979   1.808   2.542  0.8604  2.0371  1.1093
 3488TIP3    H231956   1.907   1.698   2.617  0.6228 -0.3553 -2.4858
 3489TIP3   OH231957   2.622   1.613   1.836  0.3066 -0.0988 -0.1136
 3489TIP3    H131958   2.640   1.669   1.760  0.5870 -1.2266 -0.9050
 3489TIP3    H231959   2.625   1.672   1.911 -2.8659  1.6066 -1.2205
 3490TIP3   OH231960   1.940   4.771   4.905  0.3057 -0.1469 -0.1383
 3490TIP3    H131961   1.856   4.735   4.878  0.2711  1.4869 -2.3082
 3490TIP3    H231962   1.929   4.866   4.896  2.1521  0.1153  0.2426
 3491TIP3   OH231963   6.036   4.723  14.763  0.3309  0.2351  0.2683
 3491TIP3    H131964   6.045   4.663  14.689 -0.9428  0.3360  0.0131
 3491TIP3    H231965   6.082   4.680  14.835  0.0930 -0.6770 -0.1194
 3492TIP3   OH231966   0.298   6.161   1.061 -0.1770  0.3291  0.4534
 3492TIP3    H131967   0.288   6.154   0.966 -0.6517  0.5402  0.4837
 3492TIP3    H231968   0.380   6.207   1.074 -0.5036  1.0108  0.1241
 3493TIP3   OH231969   6.331   6.314  14.183  0.1676  0.7840 -0.4370
 3493TIP3    H131970   6.298   6.400  14.157 -0.2756  1.0809  1.0570
 3493TIP3    H231971   6.420   6.311  14.148 -0.2617  1.3320 -1.6007
 3494TIP3   OH231972   2.182   3.283  16.225  0.0870 -0.1816  0.2487
 3494TIP3    H131973   2.169   3.284  16.130  0.6199  0.6521  0.1759
 3494TIP3    H231974   2.114   3.342  16.258  0.6292  0.4266  0.2827
 3495TIP3   OH231975   1.373   1.006   3.544  0.5548  0.1842  0.8226
 3495TIP3    H131976   1.443   1.071   3.542  0.1810  0.6524  2.2393
 3495TIP3    H231977   1.292   1.058   3.545  0.0782 -0.3494 -2.4586
 3496TIP3   OH231978   3.450   5.526  13.642  0.4369  0.0593 -1.0080
 3496TIP3    H131979   3.477   5.567  13.724  0.9518 -0.3280 -0.9824
 3496TIP3    H231980   3.510   5.563  13.576 -0.7137  1.2591 -1.4215
 3497TIP3   OH231981   5.637   0.121   2.231 -0.4294 -0.9811  0.3604
 3497TIP3    H131982   5.542   0.127   2.234 -0.4314  1.2859 -2.3554
 3497TIP3    H231983   5.667   0.195   2.285 -0.2218 -0.3907 -0.5603
 3498TIP3   OH231984   3.847   5.345   1.621 -0.3382 -0.2083 -0.2915
 3498TIP3    H131985   3.754   5.358   1.602 -1.0931 -1.2381  2.4488
 3498TIP3    H231986   3.881   5.299   1.545 -2.2881 -0.6595 -0.9293
 3499TIP3   OH231987   6.354   1.996   2.539 -0.2433 -0.6727 -0.4250
 3499TIP3    H131988   6.433   1.946   2.557 -0.3271 -0.7264 -0.2070
 3499TIP3    H231989   6.308   1.999   2.622 -0.0963  0.0196 -0.3624
 3500TIP3   OH231990   1.407   5.132  16.040 -0.5364 -0.1750 -0.1372
 3500TIP3    H131991   1.457   5.194  16.092  0.6418  0.8946 -2.4929
 3500TIP3    H231992   1.406   5.052  16.093  2.0610  0.3614  0.7636
 3501TIP3   OH231993   3.266   0.605  13.963 -0.2612 -0.0101  0.0712
 3501TIP3    H131994   3.171   0.597  13.951 -0.1113 -0.9366 -0.5267
 3501TIP3    H231995   3.287   0.691  13.928 -0.5756 -0.6545 -1.7400
 3502TIP3   OH231996   6.008   3.262   5.359  0.2763  0.3312 -0.0340
 3502TIP3    H131997   6.008   3.276   5.454  0.0760  2.1305 -0.2849
 3502TIP3    H231998   6.072   3.192   5.345 -0.1981 -0.4173  1.4904
 3503TIP3   OH231999   3.252   3.625   2.850 -0.3434 -0.1422  0.2394
 3503TIP3    H132000   3.312   3.697   2.831  0.0550 -1.0423 -2.1422
 3503TIP3    H232001   3.303   3.564   2.902  0.9200 -1.0355 -2.0231
 3504TIP3   OH232002   4.953   1.047   2.432 -0.2748  0.0564  0.3831
 3504TIP3    H132003   4.939   1.138   2.407  1.2605  0.2050  0.0114
 3504TIP3    H232004   4.899   0.997   2.371  2.3581  0.4919 -2.4073
 3505TIP3   OH232005   4.226   6.312   1.709  0.7225  0.1823  0.2143
 3505TIP3    H132006   4.261   6.397   1.680  0.6207  0.0615 -0.2815
 3505TIP3    H232007   4.300   6.252   1.705  0.3809 -0.1729 -1.2582
 3506TIP3   OH232008   2.770   1.402  11.743 -0.1570  0.2434  0.3688
 3506TIP3    H132009   2.695   1.455  11.718 -2.0583 -1.4532  2.3163
 3506TIP3    H232010   2.732   1.320  11.775  2.5984 -1.3419 -0.2525
 3507TIP3   OH232011   6.446   0.627   6.195 -0.1251 -0.1068  0.0449
 3507TIP3    H132012   6.441   0.700   6.257 -1.4309 -1.7263  1.8900
 3507TIP3    H232013   6.360   0.586   6.200  0.3233 -1.2840 -1.6114
 3508TIP3   OH232014   0.309   0.309   6.713 -0.1613 -0.0587 -0.2496
 3508TIP3    H132015   0.224   0.353   6.706 -0.4239 -0.2063  1.7401
 3508TIP3    H232016   0.288   0.216   6.711 -0.1449 -0.1018  1.0944
 3509TIP3   OH232017   3.316   0.945  11.083  0.4457 -0.2764 -0.8232
 3509TIP3    H132018   3.250   1.012  11.099  1.7600  0.8559  0.0014
 3509TIP3    H232019   3.369   0.980  11.011  2.0357  0.2647  0.5916
 3510TIP3   OH232020   1.584   1.339   6.069 -0.1011  0.6704 -0.4663
 3510TIP3    H132021   1.545   1.252   6.073 -0.5384  0.8856 -0.0389
 3510TIP3    H232022   1.667   1.331   6.116 -0.5115  0.6809  0.2648
 3511TIP3   OH232023   3.446   2.031  14.950 -0.3480 -0.2342  0.2432
 3511TIP3    H132024   3.477   2.118  14.925 -1.6169  0.2894  0.4837
 3511TIP3    H232025   3.384   2.047  15.021  0.5438 -1.4483  1.3131
 3512TIP3   OH232026   5.443   4.672   0.659 -0.0690  0.2076  0.3530
 3512TIP3    H132027   5.483   4.737   0.602 -0.6507 -1.4560 -2.0326
 3512TIP3    H232028   5.364   4.715   0.692 -1.1507  0.2949 -2.2508
 3513TIP3   OH232029   1.398   3.350  13.323  0.1311  0.1775 -0.6111
 3513TIP3    H132030   1.476   3.370  13.373  0.1742  1.9212 -1.3620
 3513TIP3    H232031   1.429   3.301  13.247  0.3982  0.2569 -0.5503
 3514TIP3   OH232032   4.559   5.287  13.486  0.4765  0.1453 -0.2125
 3514TIP3    H132033   4.551   5.296  13.581 -0.0025 -0.5707 -0.1848
 3514TIP3    H232034   4.649   5.315  13.467  0.2829  1.1485  0.3400
 3515TIP3   OH232035   6.597   2.588   1.291 -0.2621 -0.2641  0.3989
 3515TIP3    H132036   6.617   2.679   1.311  0.6733 -0.1505 -1.0110
 3515TIP3    H232037   6.600   2.544   1.376 -2.3438  1.2902  1.3203
 3516TIP3   OH232038   4.475   1.613   1.537 -0.2690  0.2162  0.1561
 3516TIP3    H132039   4.386   1.644   1.518  1.1803  2.9296 -2.7323
 3516TIP3    H232040   4.486   1.537   1.480 -0.5478  0.2369  0.0729
 3517TIP3   OH232041   3.125   3.477   3.833 -0.6630 -0.6512  0.1128
 3517TIP3    H132042   3.049   3.431   3.798 -1.5785 -0.6178  1.9779
 3517TIP3    H232043   3.188   3.408   3.852 -0.9566 -0.8740  0.2902
 3518TIP3   OH232044   4.138   4.507   0.262  0.0867 -0.0120  1.1355
 3518TIP3    H132045   4.047   4.517   0.289 -0.2997 -0.0684 -0.1380
 3518TIP3    H232046   4.169   4.431   0.313 -0.7403 -0.3561  1.1424
 3519TIP3   OH232047   0.787   6.811  11.212 -0.1355  0.4894  0.0878
 3519TIP3    H132048   0.796   6.844  11.123 -0.6928 -1.3857 -0.6854
 3519TIP3    H232049   0.816   6.721  11.207  3.5614  1.4565  2.6592
 3520TIP3   OH232050   6.651   3.789   4.116  0.5819 -0.6477  0.4970
 3520TIP3    H132051   6.658   3.713   4.174  0.5340 -0.3958  0.8316
 3520TIP3    H232052   6.557   3.798   4.100  0.5353 -0.2744  0.9671
 3521TIP3   OH232053   1.695   5.873  16.008 -0.6225 -0.2700  0.6212
 3521TIP3    H132054   1.640   5.897  16.082  0.6400 -0.4996  1.6608
 3521TIP3    H232055   1.661   5.789  15.978 -0.5128 -0.6712  1.5992
 3522TIP3   OH232056   5.841   1.917   5.616  0.7008 -0.4808 -0.2416
 3522TIP3    H132057   5.760   1.868   5.599 -0.4187  1.0278  0.6870
 3522TIP3    H232058   5.878   1.930   5.529 -0.7304 -0.0584 -0.8131
 3523TIP3   OH232059   1.139   1.928   5.723 -0.1709 -0.3885  0.0322
 3523TIP3    H132060   1.154   1.970   5.638 -1.4313 -1.1016 -0.5517
 3523TIP3    H232061   1.213   1.867   5.732  0.9821  1.0298  0.3138
 3524TIP3   OH232062   2.484   2.511  16.757  0.0164  0.0054 -0.4061
 3524TIP3    H132063   2.427   2.531  16.832 -1.6129 -3.2873 -0.6554
 3524TIP3    H232064   2.565   2.478  16.797 -0.8470 -1.7463 -0.0349
 3525TIP3   OH232065   1.075   6.389   0.228  0.1427  0.0121 -0.6612
 3525TIP3    H132066   1.078   6.294   0.241 -0.6399  0.3342  2.1055
 3525TIP3    H232067   0.982   6.410   0.223  0.1239  1.1447  3.1572
 3526TIP3   OH232068   0.175   6.172  14.077  0.0517 -0.1887  0.6737
 3526TIP3    H132069   0.080   6.170  14.067  0.1765  0.4693 -0.7438
 3526TIP3    H232070   0.196   6.090  14.122 -0.8007 -2.3660 -2.7010
 3527TIP3   OH232071   1.661   4.813  12.506  0.0254  0.4149  0.5961
 3527TIP3    H132072   1.632   4.772  12.588  1.1657  0.8472  1.2209
 3527TIP3    H232073   1.618   4.762  12.437 -3.1919  1.7457  1.4979
 3528TIP3   OH232074   2.934   5.033   4.180 -0.1914  0.0725  0.2275
 3528TIP3    H132075   2.922   4.953   4.129  0.9274  0.1164 -0.1203
 3528TIP3    H232076   2.960   5.002   4.267 -0.7462  0.0351  0.3837
 3529TIP3   OH232077   3.710   5.537   5.642 -0.1387 -0.1259  0.7695
 3529TIP3    H132078   3.775   5.600   5.612 -0.2517 -1.0449 -1.4609
 3529TIP3    H232079   3.755   5.453   5.638 -1.1700 -0.6521  0.0643
 3530TIP3   OH232080   3.242   6.191   3.068  0.3515 -0.4303 -0.4793
 3530TIP3    H132081   3.301   6.178   3.142 -0.3421  1.5236  0.4469
 3530TIP3    H232082   3.280   6.264   3.020 -0.6875  0.0882 -0.5225
 3531TIP3   OH232083   1.179   1.751  16.325 -0.3529  0.4630  0.8163
 3531TIP3    H132084   1.221   1.699  16.394  1.6459  3.8017  2.2715
 3531TIP3    H232085   1.249   1.808  16.293 -2.4260  2.1821 -0.7572
 3532TIP3   OH232086   0.645   2.197   4.999  0.1566  0.0658 -0.3497
 3532TIP3    H132087   0.588   2.121   5.007 -0.6849  0.6433 -0.8123
 3532TIP3    H232088   0.590   2.271   5.025  0.4286  0.7283 -1.6441
 3533TIP3   OH232089   6.389   5.898   5.673 -0.3202 -0.2577  0.5776
 3533TIP3    H132090   6.325   5.827   5.665 -0.8921  0.2662  0.5323
 3533TIP3    H232091   6.345   5.974   5.636  0.2657  0.1413  0.7080
 3534TIP3   OH232092   4.805   0.018  10.400 -0.2996 -0.2208 -0.0190
 3534TIP3    H132093   4.876   0.081  10.394 -0.3550 -0.1336  0.2191
 3534TIP3    H232094   4.797  -0.000  10.494 -1.0197  0.2687  0.0178
 3535TIP3   OH232095   0.363   1.389   5.347  0.0567 -0.4026  0.1638
 3535TIP3    H132096   0.298   1.422   5.408 -0.4377 -0.7628 -0.1675
 3535TIP3    H232097   0.328   1.411   5.261  0.8754  0.3389  0.0057
 3536TIP3   OH232098   4.357   2.755   0.875  0.7238 -0.7153  0.1224
 3536TIP3    H132099   4.296   2.812   0.922  1.4094 -0.8416  1.1887
 3536TIP3    H232100   4.310   2.729   0.796 -1.2647 -2.1627  1.7364
 3537TIP3   OH232101   2.745   2.099   2.079  0.2245 -0.0168  0.0681
 3537TIP3    H132102   2.707   2.186   2.092 -0.3854 -0.4360  1.1036
 3537TIP3    H232103   2.806   2.088   2.151 -0.5515 -0.9159  0.5910
 3538TIP3   OH232104   2.089   0.756   1.523 -0.2268 -0.1437  0.0332
 3538TIP3    H132105   2.133   0.701   1.459 -1.1625 -0.7245 -0.1162
 3538TIP3    H232106   2.119   0.845   1.503  0.5560 -0.4845 -0.3208
 3539TIP3   OH232107   4.063   3.791   1.931  0.5046 -0.2286 -0.3896
 3539TIP3    H132108   4.109   3.848   1.993  0.6250  1.4449 -1.9798
 3539TIP3    H232109   4.032   3.850   1.863 -1.2218 -1.7975 -0.9981
 3540TIP3   OH232110   0.015   3.880  11.982  0.5395 -0.3642 -0.1602
 3540TIP3    H132111   0.100   3.879  12.026  0.6532 -0.5517 -0.3808
 3540TIP3    H232112  -0.035   3.811  12.026  0.4004 -0.0559  0.1670
 3541TIP3   OH232113   5.497   2.875   4.128 -0.3070 -0.0287 -0.1469
 3541TIP3    H132114   5.414   2.859   4.083 -0.0853 -2.0147  0.1060
 3541TIP3    H232115   5.507   2.800   4.187  1.2523  0.6249  0.4439
 3542TIP3   OH232116   5.474   2.467   5.227 -0.2029  0.4981  0.2975
 3542TIP3    H132117   5.407   2.406   5.197  1.2136 -1.4383  0.9035
 3542TIP3    H232118   5.461   2.473   5.322 -0.5667  1.4283  0.1903
 3543TIP3   OH232119   3.018   2.587   3.927  0.7227 -0.2662 -0.0031
 3543TIP3    H132120   3.032   2.679   3.906  0.6481  0.0713  1.3740
 3543TIP3    H232121   2.929   2.568   3.897  0.4407  0.3387  0.4402
 3544TIP3   OH232122   3.041   5.904  16.674 -0.1455 -0.0016 -0.2597
 3544TIP3    H132123   3.129   5.919  16.639  0.0996 -0.2862  0.2285
 3544TIP3    H232124   2.988   5.974  16.635  0.4720  0.6705  0.0888
 3545TIP3   OH232125   1.589   2.172  14.828  0.3695  0.1705 -0.4908
 3545TIP3    H132126   1.496   2.172  14.853  0.5491  0.7425  0.2029
 3545TIP3    H232127   1.598   2.247  14.769  0.1094 -0.7136 -1.6745
 3546TIP3   OH232128   0.705   6.573  11.726 -0.0837  0.5161  0.2216
 3546TIP3    H132129   0.618   6.534  11.715 -0.0625  0.2713  0.8902
 3546TIP3    H232130   0.729   6.604  11.639  1.2237 -3.6503 -0.9914
 3547TIP3   OH232131   3.849   6.405   2.445  0.4547 -0.5582 -0.0208
 3547TIP3    H132132   3.921   6.345   2.424  0.5513 -0.5934  0.4062
 3547TIP3    H232133   3.772   6.349   2.444  0.3641 -0.4345 -0.9390
 3548TIP3   OH232134   2.536   6.072  10.494  0.1349 -0.0836 -0.4535
 3548TIP3    H132135   2.580   6.156  10.507 -0.8780  0.0371  2.4276
 3548TIP3    H232136   2.451   6.095  10.457  0.0048  0.1328 -0.0205
 3549TIP3   OH232137   5.986   0.373  15.194  0.3534  0.2059  0.0824
 3549TIP3    H132138   5.926   0.316  15.243  2.0271 -1.6744  0.0062
 3549TIP3    H232139   6.002   0.447  15.253  0.3977 -0.8009  1.3581
 3550TIP3   OH232140   1.365   2.147   4.740 -0.3702 -0.1530  0.8194
 3550TIP3    H132141   1.331   2.230   4.707 -1.2989 -0.3433  1.2660
 3550TIP3    H232142   1.337   2.145   4.832  0.2038 -0.6697  0.9892
 3551TIP3   OH232143   1.074   3.838   0.223  0.4679 -0.0301  0.2640
 3551TIP3    H132144   1.033   3.925   0.230  0.1819 -0.2054  0.7961
 3551TIP3    H232145   1.001   3.777   0.228  0.7974 -0.3473  1.2973
 3552TIP3   OH232146   6.396   2.219   2.381 -0.5129  0.0012 -0.3110
 3552TIP3    H132147   6.490   2.214   2.399 -0.8300  2.1609  2.3961
 3552TIP3    H232148   6.359   2.143   2.426 -0.1635 -0.2399 -0.4323
 3553TIP3   OH232149   3.524   3.490   3.045 -0.1181  0.1390 -0.3676
 3553TIP3    H132150   3.605   3.446   3.070 -0.0350  1.2159  1.3889
 3553TIP3    H232151   3.552   3.577   3.016 -0.3418 -0.6773 -3.1547
 3554TIP3   OH232152   1.522   5.230  17.178  0.5249 -0.0019  0.2653
 3554TIP3    H132153   1.491   5.258  17.264 -0.9076  0.3713 -0.3592
 3554TIP3    H232154   1.461   5.271  17.116  0.2352 -1.9995 -0.8286
 3555TIP3   OH232155   0.680   0.393   1.066  0.1192  0.3286 -0.2146
 3555TIP3    H132156   0.694   0.445   0.987  0.6365  2.1562  1.0274
 3555TIP3    H232157   0.621   0.446   1.119 -1.4930 -1.5981 -0.0245
 3556TIP3   OH232158   1.701   5.561  14.410  0.1071  0.0283  0.4188
 3556TIP3    H132159   1.688   5.519  14.495  2.1613 -0.2350  0.6204
 3556TIP3    H232160   1.791   5.593  14.412  0.2937 -0.2798 -1.7855
 3557TIP3   OH232161   1.082   0.885  10.399  0.2458  0.1840 -0.1306
 3557TIP3    H132162   1.062   0.801  10.440  0.8915  0.0929 -0.0015
 3557TIP3    H232163   1.083   0.947  10.471  3.7593 -0.3696  0.3712
 3558TIP3   OH232164   5.078   0.588  14.103  0.2233  0.4991  0.4084
 3558TIP3    H132165   5.050   0.588  14.011  1.0253 -0.1028  0.1576
 3558TIP3    H232166   5.174   0.589  14.099  0.3943 -3.1323  1.1629
 3559TIP3   OH232167   5.892   4.321  15.020 -0.0909 -0.2312 -0.5148
 3559TIP3    H132168   5.889   4.249  15.083  0.2636 -0.0014 -0.2386
 3559TIP3    H232169   5.985   4.334  15.001 -0.0931  0.7170  0.0794
 3560TIP3   OH232170   0.867   1.660   3.813 -0.3365 -0.1352 -0.1199
 3560TIP3    H132171   0.788   1.659   3.759 -1.4666  0.5418  1.5109
 3560TIP3    H232172   0.892   1.753   3.815 -0.6957 -0.0688  1.1092
 3561TIP3   OH232173   2.579   4.272  15.653  0.4711  0.2826 -0.0994
 3561TIP3    H132174   2.667   4.241  15.675 -0.9814 -2.2565  2.5815
 3561TIP3    H232175   2.537   4.197  15.612 -0.4149  1.5624 -1.6041
 3562TIP3   OH232176   3.268   1.929   1.864  0.6220 -0.1900 -0.2468
 3562TIP3    H132177   3.267   1.969   1.777 -0.9539  0.0753 -0.1255
 3562TIP3    H232178   3.189   1.963   1.907 -0.0524 -2.3683  0.3293
 3563TIP3   OH232179   6.422   6.326  15.037 -0.2032 -0.3179  0.6105
 3563TIP3    H132180   6.393   6.370  15.117 -1.3762  2.1758 -1.1213
 3563TIP3    H232181   6.480   6.389  14.995 -1.2018 -0.7714 -1.4914
 3564TIP3   OH232182   3.071   1.647  11.450 -0.2556  0.0874  0.0818
 3564TIP3    H132183   3.165   1.632  11.454  0.0094  2.0067  1.4884
 3564TIP3    H232184   3.037   1.611  11.532 -0.5702  0.6650  0.2044
 3565TIP3   OH232185   2.815   6.384  11.311 -0.3227 -0.8324 -0.2739
 3565TIP3    H132186   2.764   6.359  11.233 -0.8126 -1.7650  0.3358
 3565TIP3    H232187   2.888   6.323  11.313  0.3438 -0.0515 -0.6588
 3566TIP3   OH232188   4.865   2.347  16.289  0.0064  0.3768 -0.2885
 3566TIP3    H132189   4.833   2.430  16.255 -1.7642 -0.6154 -1.1345
 3566TIP3    H232190   4.787   2.291  16.292  1.4831 -1.8041 -1.4614
 3567TIP3   OH232191   0.755   0.221  16.458  0.0211  0.2715 -0.3681
 3567TIP3    H132192   0.735   0.175  16.540  1.0665  0.4270 -0.0108
 3567TIP3    H232193   0.724   0.310  16.472  2.2398  0.9092  0.7486
 3568TIP3   OH232194   0.485   0.983  11.837 -0.0759  0.1728 -0.1239
 3568TIP3    H132195   0.521   1.067  11.807 -2.3020  0.2032 -2.9456
 3568TIP3    H232196   0.548   0.918  11.805 -0.2216  0.5277 -1.1617
 3569TIP3   OH232197   3.493   1.072  11.825  0.4134 -0.2599 -0.5011
 3569TIP3    H132198   3.503   0.978  11.842  0.9908  0.3865  3.3388
 3569TIP3    H232199   3.582   1.101  11.802  0.0898 -0.7562 -2.4339
 3570TIP3   OH232200   3.423   0.952  15.837  0.6000 -0.0491 -0.3309
 3570TIP3    H132201   3.514   0.925  15.821  0.2197 -1.6903  0.1967
 3570TIP3    H232202   3.409   0.934  15.930  0.1685  1.5417 -0.0697
 3571TIP3   OH232203   3.362   5.968  16.617  0.6267  0.2345 -0.2891
 3571TIP3    H132204   3.344   5.962  16.710  0.1472 -0.6782 -0.4386
 3571TIP3    H232205   3.340   6.058  16.594  2.1593  0.8997  0.7646
 3572TIP3   OH232206   4.053   6.603  11.322  0.0513 -1.2205  0.4964
 3572TIP3    H132207   4.092   6.515  11.318  1.2169 -0.7334  1.1696
 3572TIP3    H232208   4.098   6.646  11.394 -1.7102 -0.6272  1.2642
 3573TIP3   OH232209   2.996   1.562  14.328 -0.3059 -0.2134  0.0819
 3573TIP3    H132210   3.038   1.489  14.375 -0.3671  0.6596  1.5248
 3573TIP3    H232211   2.902   1.552  14.349 -0.4090 -0.1951 -0.3784
 3574TIP3   OH232212   3.380   6.496  14.770  0.0524  0.0552  0.3765
 3574TIP3    H132213   3.436   6.443  14.713  0.9442 -0.2182  1.4831
 3574TIP3    H232214   3.291   6.469  14.750  0.3990 -0.5151 -0.4044
 3575TIP3   OH232215   3.769   5.341   1.933  0.2987 -0.3322  0.2314
 3575TIP3    H132216   3.753   5.377   1.845 -1.1786  1.1413  1.0837
 3575TIP3    H232217   3.836   5.398   1.970 -1.0800  0.7846  1.0776
 3576TIP3   OH232218   4.567   3.828  16.651  0.3371 -0.0911 -0.0577
 3576TIP3    H132219   4.654   3.789  16.642  0.1653 -0.4717 -0.1089
 3576TIP3    H232220   4.583   3.922  16.658  0.6565 -0.0156 -1.6358
 3577TIP3   OH232221   4.884   3.314  13.373  0.1201  0.4729 -0.2021
 3577TIP3    H132222   4.976   3.290  13.380 -0.1113 -0.7043 -1.0097
 3577TIP3    H232223   4.878   3.364  13.291 -0.0709 -0.0281 -0.4971
 3578TIP3   OH232224   6.513   0.174   3.053  0.5082  0.5385  0.4158
 3578TIP3    H132225   6.539   0.250   3.105  1.2593 -0.7344  1.9364
 3578TIP3    H232226   6.556   0.100   3.096  0.0901 -0.7044 -1.2656
 3579TIP3   OH232227   3.949   4.449   5.922  0.0754 -0.1867 -0.8520
 3579TIP3    H132228   4.028   4.463   5.974 -1.2573  1.1454  0.8728
 3579TIP3    H232229   3.889   4.404   5.981 -1.8971  2.4277 -0.8136
 3580TIP3   OH232230   1.259   2.456   4.749 -0.2235  0.8673 -0.4681
 3580TIP3    H132231   1.199   2.478   4.678 -1.6701  1.7854  0.9779
 3580TIP3    H232232   1.212   2.482   4.828  1.5538  0.3417  0.7939
 3581TIP3   OH232233   4.297   4.138  16.573  1.0720  0.7005 -0.4881
 3581TIP3    H132234   4.278   4.231  16.582 -0.0038  0.5649 -1.2367
 3581TIP3    H232235   4.372   4.123  16.630  2.0742  2.2797 -1.3590
 3582TIP3   OH232236   2.629   6.139  14.240  0.0259 -0.7357 -0.8508
 3582TIP3    H132237   2.708   6.120  14.189  0.5173  3.2142 -1.7897
 3582TIP3    H232238   2.564   6.163  14.173 -0.5680  0.4606  0.1415
 3583TIP3   OH232239   1.181   3.999   0.427 -0.1648 -0.1242 -0.5950
 3583TIP3    H132240   1.185   3.947   0.347 -1.5932 -1.5075  0.1891
 3583TIP3    H232241   1.121   3.950   0.484 -1.5236  2.3654  0.1916
 3584TIP3   OH232242   0.827   5.583  12.609  0.1488  0.2370  0.0285
 3584TIP3    H132243   0.794   5.505  12.653  0.9106 -0.9366 -1.4386
 3584TIP3    H232244   0.775   5.655  12.644 -1.5955 -1.1333  0.2696
 3585TIP3   OH232245   5.378   0.429  15.811  0.1670  0.3024 -0.1272
 3585TIP3    H132246   5.467   0.462  15.818 -0.2230  1.5121 -0.6526
 3585TIP3    H232247   5.339   0.481  15.741 -0.1863 -1.9487 -1.6543
 3586TIP3   OH232248   4.542   4.878  15.721  0.0721 -0.0649  0.0103
 3586TIP3    H132249   4.473   4.924  15.769  0.7516 -1.1686  2.1057
 3586TIP3    H232250   4.600   4.844  15.790  0.9933 -1.8123 -1.5966
 3587TIP3   OH232251   3.592   3.643   3.691 -0.4406  0.2261 -0.1329
 3587TIP3    H132252   3.573   3.550   3.701  0.8966  0.1122  1.5321
 3587TIP3    H232253   3.676   3.645   3.644  0.3185  0.5647  1.2310
 3588TIP3   OH232254   2.720   3.411   4.774  0.1957  0.2550 -0.2889
 3588TIP3    H132255   2.683   3.415   4.686 -0.5508 -0.9851 -0.0408
 3588TIP3    H232256   2.806   3.452   4.765 -0.2016  0.8631 -1.4194
 3589TIP3   OH232257   6.792   2.121   0.207 -0.3064  0.1492 -0.3033
 3589TIP3    H132258   6.883   2.121   0.178 -0.9862  1.5966 -2.5654
 3589TIP3    H232259   6.754   2.199   0.166 -3.0915 -1.5711 -1.1167
 3590TIP3   OH232260   1.388   0.455  12.289  0.3326 -0.0609  0.1737
 3590TIP3    H132261   1.361   0.364  12.280 -1.8595  0.6152 -0.6125
 3590TIP3    H232262   1.386   0.490  12.200  2.0716  0.5113  0.3521
 3591TIP3   OH232263   5.560   1.967  14.312  0.2706  0.0409 -0.2584
 3591TIP3    H132264   5.553   1.890  14.370  0.9437  0.5247  0.4830
 3591TIP3    H232265   5.516   1.940  14.231 -1.3842 -0.3752  0.7533
 3592TIP3   OH232266   2.158   0.069  14.862 -0.2308 -1.1137  0.2326
 3592TIP3    H132267   2.219   0.027  14.801  0.5520 -0.9030  0.8491
 3592TIP3    H232268   2.101   0.122  14.807 -0.2002 -1.7310 -0.4064
 3593TIP3   OH232269   2.107   1.857   0.858  0.0380  1.0079 -0.9369
 3593TIP3    H132270   2.174   1.789   0.867  0.3818  1.3169 -1.0977
 3593TIP3    H232271   2.112   1.882   0.765 -0.1774  1.1555 -0.9080
 3594TIP3   OH232272   0.137   0.584  12.150 -0.2203  0.2247  0.1602
 3594TIP3    H132273   0.187   0.665  12.152  0.9315 -0.3418 -2.9827
 3594TIP3    H232274   0.058   0.605  12.099 -0.5016 -0.3279  0.3556
 3595TIP3   OH232275   4.352   6.816  12.881  0.4139 -0.2465 -0.2301
 3595TIP3    H132276   4.432   6.825  12.829  0.7145 -0.7081  0.1478
 3595TIP3    H232277   4.318   6.905  12.890  1.2994  0.0399  0.2668
 3596TIP3   OH232278   3.815   2.159   1.071 -0.1667  0.2855 -0.6071
 3596TIP3    H132279   3.873   2.113   1.131  1.2645  0.3883 -1.8651
 3596TIP3    H232280   3.805   2.246   1.109 -1.7286 -0.5955  1.0364
 3597TIP3   OH232281   5.895   5.412   5.421 -0.0313 -0.7884 -0.6758
 3597TIP3    H132282   5.851   5.423   5.506 -1.7634  0.9010 -1.7477
 3597TIP3    H232283   5.842   5.347   5.375 -0.4726  0.0451 -1.3562
 3598TIP3   OH232284   2.373   6.623   2.036  0.3745 -0.8600  0.4109
 3598TIP3    H132285   2.329   6.607   2.119  0.4995 -1.8687  0.2860
 3598TIP3    H232286   2.332   6.703   2.002 -1.4158 -1.8146  0.2686
 3599TIP3   OH232287   5.831   2.193  16.650 -0.1701  0.2854  0.5382
 3599TIP3    H132288   5.761   2.174  16.713 -0.2110 -2.3064 -0.2283
 3599TIP3    H232289   5.806   2.278  16.612 -1.8350  0.3559  1.7094
 3600TIP3   OH232290   3.448   4.775  11.897 -0.1245 -0.2158 -0.6409
 3600TIP3    H132291   3.369   4.745  11.852 -1.8625  1.6049  1.0996
 3600TIP3    H232292   3.509   4.797  11.827 -1.5871 -0.5472 -2.0474
 3601TIP3   OH232293   5.706   1.660  16.296  0.0618  0.0164  0.4168
 3601TIP3    H132294   5.713   1.742  16.344  0.8323  0.0247  0.3035
 3601TIP3    H232295   5.654   1.603  16.353 -1.0975  0.8167  0.1679
 3602TIP3   OH232296   2.500   1.167   0.994 -0.3582  0.0227 -0.3270
 3602TIP3    H132297   2.563   1.172   0.923 -1.2525  0.7397 -1.0909
 3602TIP3    H232298   2.538   1.220   1.064  0.9414 -1.4164  0.0751
 3603TIP3   OH232299   5.739   3.889   2.530 -0.1989 -0.7045  0.6164
 3603TIP3    H132300   5.807   3.927   2.474 -0.6356 -1.2671 -0.2957
 3603TIP3    H232301   5.674   3.854   2.469 -0.3216 -1.9756  1.4555
 3604TIP3   OH232302   6.804   4.223   2.894 -0.0938 -0.0335 -0.3395
 3604TIP3    H132303   6.766   4.135   2.889  0.1379 -0.2529  1.2975
 3604TIP3    H232304   6.893   4.212   2.863 -0.0441 -0.3995 -0.0768
 3605TIP3   OH232305   5.050   4.523   1.053 -0.0372 -0.3250  0.8409
 3605TIP3    H132306   4.978   4.500   1.113  0.3849 -1.7456  0.8286
 3605TIP3    H232307   5.124   4.540   1.111  0.0337 -0.4563  0.7903
 3606TIP3   OH232308   4.118   4.011   1.562  0.7097 -0.2651 -0.3120
 3606TIP3    H132309   4.059   4.016   1.637  2.4136  1.4609  0.9716
 3606TIP3    H232310   4.157   4.098   1.556  0.8468 -0.4627 -3.0351
 3607TIP3   OH232311   2.885   5.080  15.734 -0.2882 -0.7264 -0.1729
 3607TIP3    H132312   2.810   5.140  15.732 -1.1498 -1.8051 -0.9662
 3607TIP3    H232313   2.863   5.013  15.670  1.9578 -0.3684 -1.3478
 3608TIP3   OH232314   5.018   0.701   1.523 -0.0814 -0.0649 -0.6595
 3608TIP3    H132315   5.103   0.666   1.551 -0.3737 -0.8669 -0.7580
 3608TIP3    H232316   4.960   0.626   1.524 -0.6840  0.3911 -1.0495
 3609TIP3   OH232317   0.792   4.347  15.212 -0.5091 -0.4978 -0.1444
 3609TIP3    H132318   0.753   4.333  15.298 -1.1282  0.5343 -0.2572
 3609TIP3    H232319   0.763   4.272  15.160 -4.0314  1.2644 -0.8205
 3610TIP3   OH232320   4.849   5.918   5.644  0.4623  0.1191  0.2498
 3610TIP3    H132321   4.818   5.866   5.718 -1.8797  1.4811  0.2842
 3610TIP3    H232322   4.770   5.960   5.609  1.6128  0.0117 -2.6446
 3611TIP3   OH232323   2.131   0.561  14.109  0.1830  0.6350 -0.0980
 3611TIP3    H132324   2.074   0.584  14.037 -1.1225  0.8993  0.9968
 3611TIP3    H232325   2.141   0.642  14.159  0.3577  0.2476  0.5017
 3612TIP3   OH232326   3.726   6.755   1.450 -0.0469  0.2699  0.2542
 3612TIP3    H132327   3.737   6.836   1.400  2.3009 -0.4042 -0.3515
 3612TIP3    H232328   3.729   6.686   1.384 -1.4191 -0.3776  0.8455
 3613TIP3   OH232329   4.683   3.594  12.419 -0.0557  0.3309  0.8360
 3613TIP3    H132330   4.751   3.563  12.358 -0.2568 -0.4992  1.0230
 3613TIP3    H232331   4.666   3.519  12.476 -0.5481  0.8000  1.3107
 3614TIP3   OH232332   3.727   1.800  14.610  0.6157 -0.1182 -0.5305
 3614TIP3    H132333   3.632   1.811  14.618  0.6165  0.9972 -1.8261
 3614TIP3    H232334   3.764   1.860  14.674  0.4636  1.1379 -1.5854
 3615TIP3   OH232335   3.730   0.184  16.990  0.5056 -0.1957 -0.2671
 3615TIP3    H132336   3.785   0.121  17.037  0.1374  0.0360  0.4774
 3615TIP3    H232337   3.762   0.269  17.019  0.0500 -0.0558 -0.1700
 3616TIP3   OH232338   3.627   1.166  11.061  0.3426  0.1419  0.0836
 3616TIP3    H132339   3.611   1.137  11.151  1.3037  1.1770  0.6083
 3616TIP3    H232340   3.562   1.119  11.009  0.9364 -1.8574  1.0761
 3617TIP3   OH232341   6.452   0.267  13.840  0.3902 -0.3805 -0.1634
 3617TIP3    H132342   6.538   0.264  13.882 -0.4639 -0.8592  1.5793
 3617TIP3    H232343   6.390   0.277  13.912 -0.9238  1.7546 -1.5095
 3618TIP3   OH232344   5.653   3.997   1.083  0.0818  0.3928 -0.2150
 3618TIP3    H132345   5.631   3.938   1.156  1.4505  0.8835  0.6230
 3618TIP3    H232346   5.634   3.946   1.004 -1.4755 -0.1278  0.4723
 3619TIP3   OH232347   6.275   3.629  13.789 -0.0409 -0.0081 -0.5253
 3619TIP3    H132348   6.192   3.605  13.831  0.7873 -2.0953  0.0194
 3619TIP3    H232349   6.272   3.584  13.705  0.0017  0.9556 -1.0419
 3620TIP3   OH232350   1.745   5.088   2.769 -0.2074 -0.1743  0.2412
 3620TIP3    H132351   1.675   5.073   2.832 -0.2323  0.3583  0.3443
 3620TIP3    H232352   1.780   5.174   2.793  1.4600 -1.0561  1.1341
 3621TIP3   OH232353   1.311   2.975   4.020 -0.2796 -0.0413  0.1506
 3621TIP3    H132354   1.382   2.999   3.960 -0.5473 -0.0783 -0.1886
 3621TIP3    H232355   1.268   2.902   3.976  0.5352 -1.1547  1.1814
 3622TIP3   OH232356   1.201   0.107  11.956  0.1753  0.0017 -0.2422
 3622TIP3    H132357   1.235   0.047  12.022  0.7724 -1.4920 -1.8665
 3622TIP3    H232358   1.245   0.081  11.875 -2.9862 -0.4179 -1.9266
 3623TIP3   OH232359   5.082   5.605   2.114 -0.0964  0.2689 -0.2536
 3623TIP3    H132360   4.997   5.644   2.095 -0.7792 -0.9936  0.2145
 3623TIP3    H232361   5.090   5.608   2.209  0.0207 -0.3797 -0.2421
 3624TIP3   OH232362   1.011   0.451   2.159  0.0506  0.2907  0.7519
 3624TIP3    H132363   1.025   0.544   2.143  1.1324  0.2710  1.5464
 3624TIP3    H232364   0.981   0.446   2.249 -1.5837  0.0023  0.1985
 3625TIP3   OH232365   2.380   3.914  12.029 -0.6547 -0.1650 -0.1703
 3625TIP3    H132366   2.327   3.993  12.024 -2.0841 -1.1197 -0.7062
 3625TIP3    H232367   2.458   3.934  11.978  0.0677  1.6766  1.6056
 3626TIP3   OH232368   3.599   1.251   2.850 -0.5544  0.6436  0.3395
 3626TIP3    H132369   3.695   1.247   2.854 -0.5255  0.7300 -0.1788
 3626TIP3    H232370   3.579   1.233   2.758 -1.0725 -0.1197  0.6032
 3627TIP3   OH232371   4.220   3.869   4.434 -0.2632  0.4855 -0.5507
 3627TIP3    H132372   4.310   3.864   4.404 -0.5314 -2.2090 -1.0391
 3627TIP3    H232373   4.222   3.836   4.523 -0.7954  0.1073 -0.6707
 3628TIP3   OH232374   4.411   1.187   0.629  0.1057 -0.2009  0.2634
 3628TIP3    H132375   4.439   1.107   0.674 -1.9150  0.5166  2.9793
 3628TIP3    H232376   4.476   1.253   0.653  1.2623 -0.7651 -1.2290
 3629TIP3   OH232377   3.929   1.798  16.089  0.4819  0.9578 -0.5849
 3629TIP3    H132378   3.999   1.732  16.091 -0.1695  0.2862  0.6464
 3629TIP3    H232379   3.956   1.859  16.020  1.0102 -0.7014 -1.9089
 3630TIP3   OH232380   3.424   0.225   0.988 -0.2647 -0.3510 -0.1955
 3630TIP3    H132381   3.420   0.129   0.986  0.9018 -0.5179  2.8076
 3630TIP3    H232382   3.503   0.245   1.037 -1.0623  2.1591  0.1486
 3631TIP3   OH232383   1.929   4.233  12.191  0.1037  0.0776 -0.1109
 3631TIP3    H132384   1.957   4.146  12.219  1.5294  0.4116 -0.4563
 3631TIP3    H232385   2.002   4.291  12.214 -0.5335  1.0744 -0.5217
 3632TIP3   OH232386   6.699   6.382  11.323 -0.1210 -0.6856  0.2869
 3632TIP3    H132387   6.625   6.386  11.262  0.3264 -0.7863 -0.2629
 3632TIP3    H232388   6.686   6.457  11.381 -0.0043  0.0121 -0.5664
 3633TIP3   OH232389   1.874   0.822  16.383  0.3134  0.2568 -0.1422
 3633TIP3    H132390   1.951   0.777  16.350 -0.2239  0.9691 -2.4834
 3633TIP3    H232391   1.843   0.875  16.309 -1.8387  0.7454  1.0443
 3634TIP3   OH232392   5.389   0.202  11.553 -0.4486  0.7828  0.4169
 3634TIP3    H132393   5.402   0.210  11.459 -0.0654 -1.2034  0.2809
 3634TIP3    H232394   5.295   0.188  11.563 -0.0495 -2.3626  0.0520
 3635TIP3   OH232395   4.942   1.444  15.681  0.0478  0.1702 -0.2024
 3635TIP3    H132396   4.860   1.490  15.664 -0.0263  0.5624  1.1626
 3635TIP3    H232397   4.916   1.363  15.724  0.3563  0.1671 -0.0221
 3636TIP3   OH232398   5.289   4.470  11.316  0.1083  0.0020  0.0020
 3636TIP3    H132399   5.335   4.446  11.236  0.3800  0.7311 -0.0675
 3636TIP3    H232400   5.238   4.393  11.339 -0.2962 -0.0572 -1.1056
 3637TIP3   OH232401   2.064   0.457  15.103 -0.3705 -0.6472 -0.2432
 3637TIP3    H132402   2.121   0.384  15.079 -1.1752 -1.6919  0.9677
 3637TIP3    H232403   1.976   0.423  15.090 -0.7822 -0.4426  1.8559
 3638TIP3   OH232404   0.171   1.464   5.823  0.3770  0.5079  0.3417
 3638TIP3    H132405   0.135   1.491   5.907  0.1270  0.8319  0.1302
 3638TIP3    H232406   0.155   1.369   5.819 -0.5220  0.6587  0.2146
 3639TIP3   OH232407   5.142   2.645  16.920 -0.2600  0.0842 -0.6637
 3639TIP3    H132408   5.055   2.609  16.902  0.4896 -0.6949 -2.8883
 3639TIP3    H232409   5.202   2.571  16.910  0.8521  0.9983 -0.9742
 3640TIP3   OH232410   0.905   4.083  14.476  0.9452  0.1134  0.4690
 3640TIP3    H132411   0.998   4.096  14.493  1.2895  0.4004 -1.5002
 3640TIP3    H232412   0.889   4.126  14.392 -1.1386  0.7260  1.1235
 3641TIP3   OH232413   4.583   0.569   4.372 -0.7084  0.4625  0.1560
 3641TIP3    H132414   4.491   0.557   4.392 -0.5761 -0.8547  0.0390
 3641TIP3    H232415   4.629   0.514   4.435  0.0214  1.3726  0.4392
 3642TIP3   OH232416   4.883   3.217   2.832 -0.1584 -0.9589  0.4118
 3642TIP3    H132417   4.934   3.192   2.909  0.7068 -0.4539  0.0127
 3642TIP3    H232418   4.873   3.312   2.841 -0.4107 -0.9604  0.1192
 3643TIP3   OH232419   0.682   6.385   3.939 -0.6001 -0.0970 -0.2017
 3643TIP3    H132420   0.660   6.294   3.956 -3.6480  0.4750 -0.6433
 3643TIP3    H232421   0.716   6.386   3.850 -0.5285 -0.8000 -0.1818
 3644TIP3   OH232422   4.277   0.470   3.870 -0.2198 -0.5675  0.1346
 3644TIP3    H132423   4.233   0.528   3.808  0.5420 -0.0638  0.0672
 3644TIP3    H232424   4.240   0.383   3.851 -1.0394 -0.1885 -0.0540
 3645TIP3   OH232425   2.430   1.354   4.125  1.0809 -0.2225  1.0467
 3645TIP3    H132426   2.496   1.355   4.195  0.7961 -0.5090  1.3170
 3645TIP3    H232427   2.477   1.319   4.049  1.3352 -0.0998  1.1459
 3646TIP3   OH232428   2.696   4.232   6.091 -0.3063  0.3213  0.3206
 3646TIP3    H132429   2.735   4.166   6.148  0.7471  1.3992  0.8627
 3646TIP3    H232430   2.759   4.243   6.021 -1.5622 -0.9434 -1.0519
 3647TIP3   OH232431   5.158   5.111   4.536 -0.5889  0.0771  0.3678
 3647TIP3    H132432   5.170   5.204   4.555 -2.4818  0.4221 -0.0598
 3647TIP3    H232433   5.226   5.090   4.473  1.1689  0.6688  2.0262
 3648TIP3   OH232434   1.598   0.310   6.741  0.8091 -0.6938 -0.3521
 3648TIP3    H132435   1.623   0.388   6.693 -1.5089 -0.4894 -1.2903
 3648TIP3    H232436   1.558   0.343   6.822 -1.4009 -0.8433 -1.3601
 3649TIP3   OH232437   5.673   5.144   1.691  0.1212  0.0250 -0.1223
 3649TIP3    H132438   5.580   5.126   1.707  0.1565  0.3939  0.4913
 3649TIP3    H232439   5.705   5.066   1.645 -0.2214 -0.5889  0.6814
 3650TIP3   OH232440   5.839   5.853  16.894  0.1438  0.0144 -0.2732
 3650TIP3    H132441   5.834   5.871  16.988 -0.3451  0.2063 -0.3353
 3650TIP3    H232442   5.829   5.939  16.853 -0.4328 -0.1745 -0.5227
 3651TIP3   OH232443   3.820   4.701   5.223 -0.6295  0.2221  0.3576
 3651TIP3    H132444   3.904   4.747   5.217 -0.8485  0.6500  0.5222
 3651TIP3    H232445   3.755   4.771   5.227 -0.9600 -0.1025  0.7075
 3652TIP3   OH232446   1.496   6.761  16.018  0.1671  0.0443 -0.5140
 3652TIP3    H132447   1.452   6.702  16.080  1.5785 -0.2426  0.2136
 3652TIP3    H232448   1.456   6.740  15.934 -1.6572  0.3246  0.2456
 3653TIP3   OH232449   1.113   1.315  12.122  0.0480 -0.5376 -0.3981
 3653TIP3    H132450   1.102   1.246  12.057  2.0070 -0.7999 -0.4579
 3653TIP3    H232451   1.164   1.383  12.078  0.3953 -0.2021  0.4926
 3654TIP3   OH232452   3.044   0.276  12.357 -0.5274  0.4649  0.2099
 3654TIP3    H132453   3.042   0.365  12.323 -2.1810  1.7556  3.4476
 3654TIP3    H232454   3.135   0.249  12.348  0.2564  2.9415  0.2963
 3655TIP3   OH232455   2.429   3.389   3.679  0.1243  0.2950 -0.1499
 3655TIP3    H132456   2.495   3.438   3.728  0.8901 -1.5256  0.6654
 3655TIP3    H232457   2.478   3.346   3.609 -0.5393  0.6561 -0.8495
 3656TIP3   OH232458   3.327   4.337  11.399  0.0579 -0.2268  0.1055
 3656TIP3    H132459   3.233   4.329  11.383  0.1018 -1.9663  0.5966
 3656TIP3    H232460   3.357   4.403  11.336 -1.2607 -0.6158 -0.9444
 3657TIP3   OH232461   3.455   6.036  12.663 -0.2342 -0.0946 -0.1816
 3657TIP3    H132462   3.428   6.106  12.722 -0.0971  1.6909 -2.1936
 3657TIP3    H232463   3.402   5.961  12.688 -1.0506  0.9956  1.3938
 3658TIP3   OH232464   1.232   4.931   0.163  0.1442 -0.3141 -0.3043
 3658TIP3    H132465   1.180   4.932   0.082 -0.9966  0.5721  0.4169
 3658TIP3    H232466   1.223   4.841   0.195  0.0899 -0.5056 -0.8423
 3659TIP3   OH232467   2.022   3.543  15.488 -1.2286  0.5124 -0.3651
 3659TIP3    H132468   2.108   3.523  15.525 -0.5896 -0.9359 -2.5510
 3659TIP3    H232469   1.962   3.481  15.530 -0.5485 -0.9899 -1.6031
 3660TIP3   OH232470   0.735   2.737   5.250  0.5073  0.4628 -0.2497
 3660TIP3    H132471   0.793   2.718   5.324  0.2141 -0.6734 -0.2953
 3660TIP3    H232472   0.757   2.670   5.185 -2.5022 -1.5059  0.6646
 3661TIP3   OH232473   2.375   1.444   4.890 -0.0936  0.1554 -0.1578
 3661TIP3    H132474   2.375   1.392   4.970  1.6018  0.7112  0.2182
 3661TIP3    H232475   2.326   1.391   4.827 -1.2905 -0.3576  1.1851
 3662TIP3   OH232476   0.272   1.742   1.873  0.5593 -0.6516 -0.5036
 3662TIP3    H132477   0.345   1.722   1.816  1.0268  1.2417 -0.5998
 3662TIP3    H232478   0.197   1.753   1.814  0.4744 -1.2602 -0.5151
 3663TIP3   OH232479   3.612   1.575  16.894 -0.2248  0.0521 -0.2947
 3663TIP3    H132480   3.543   1.565  16.960 -0.4424 -1.3659 -0.6948
 3663TIP3    H232481   3.566   1.560  16.811  0.0208  1.9455 -0.7775
 3664TIP3   OH232482   5.199   6.585   1.645  0.6860 -0.1033 -0.4687
 3664TIP3    H132483   5.216   6.491   1.653  0.3795 -0.2592 -1.4605
 3664TIP3    H232484   5.235   6.624   1.724 -0.7655 -1.2714  0.7859
 3665TIP3   OH232485   6.358   1.720  14.248  0.0336  0.0813  0.9750
 3665TIP3    H132486   6.302   1.647  14.221  0.1047 -0.3213  1.8875
 3665TIP3    H232487   6.443   1.680  14.265  0.2365  0.4757  0.8898
 3666TIP3   OH232488   1.183   5.695   5.033  0.0266 -0.6489 -0.3359
 3666TIP3    H132489   1.265   5.691   4.985  1.2596  1.6129  1.4493
 3666TIP3    H232490   1.209   5.699   5.125 -2.0608  0.4104  0.2528
 3667TIP3   OH232491   0.523   5.216  13.867  0.3036  0.0058 -0.7958
 3667TIP3    H132492   0.556   5.305  13.871  0.5277 -0.1432  1.3583
 3667TIP3    H232493   0.473   5.212  13.785  0.9255  1.8606 -1.2806
 3668TIP3   OH232494   5.326   6.514   0.597 -0.8752  0.2257 -0.4577
 3668TIP3    H132495   5.282   6.444   0.549 -1.8955 -0.3214  1.2446
 3668TIP3    H232496   5.381   6.557   0.531 -1.3570 -1.2333 -1.8466
 3669TIP3   OH232497   3.118   5.405  11.808  0.1410 -0.3252  0.6308
 3669TIP3    H132498   3.028   5.384  11.835 -0.5348  0.0810 -1.2757
 3669TIP3    H232499   3.168   5.402  11.890 -1.8336  0.7457  1.9322
 3670TIP3   OH232500   3.115   0.614   1.897 -0.0990  0.1534 -0.4665
 3670TIP3    H132501   3.087   0.693   1.851 -1.5183 -0.3258 -0.4425
 3670TIP3    H232502   3.140   0.553   1.827 -1.5556 -0.3129 -0.5998
 3671TIP3   OH232503   4.726   3.348   3.201 -0.4618 -0.3598 -0.2749
 3671TIP3    H132504   4.717   3.403   3.124  1.4993  1.3290  0.6560
 3671TIP3    H232505   4.795   3.286   3.178 -0.0685 -0.0311  0.0102
 3672TIP3   OH232506   6.369   5.395   4.166  0.9141  0.7097 -0.5459
 3672TIP3    H132507   6.355   5.421   4.075 -0.3732 -2.0927 -1.2073
 3672TIP3    H232508   6.286   5.354   4.192  2.7088 -2.4257  0.4690
 3673TIP3   OH232509   5.562   3.138  14.906 -0.7562  0.1444  0.6224
 3673TIP3    H132510   5.519   3.207  14.957  1.6573  1.9292  0.2841
 3673TIP3    H232511   5.572   3.176  14.818 -0.5531 -1.1345  0.0862
 3674TIP3   OH232512   6.216   5.221   3.402 -0.1971 -0.3033  0.6358
 3674TIP3    H132513   6.202   5.140   3.352  1.9018  0.1920 -0.8216
 3674TIP3    H232514   6.195   5.291   3.341  0.9182  0.2844  0.9035
 3675TIP3   OH232515   5.830   4.087  14.598 -0.2289  0.0541  0.5412
 3675TIP3    H132516   5.743   4.063  14.631  0.4033  0.7177  2.8341
 3675TIP3    H232517   5.868   4.005  14.567 -1.0062 -0.5487  1.1786
 3676TIP3   OH232518   2.769   5.280   3.238  0.0617  0.5830 -0.3133
 3676TIP3    H132519   2.831   5.352   3.240 -0.7312  1.4185 -3.1700
 3676TIP3    H232520   2.823   5.201   3.232  0.8650  1.0888  0.1626
 3677TIP3   OH232521   6.660   5.140   1.728 -0.2397  0.8794  0.5012
 3677TIP3    H132522   6.726   5.203   1.699 -1.3891  0.6987 -2.7929
 3677TIP3    H232523   6.692   5.056   1.697 -1.1040  0.5328  0.5307
 3678TIP3   OH232524   1.831   3.531   6.218 -0.3781 -0.2231 -0.6686
 3678TIP3    H132525   1.886   3.486   6.154 -0.3177 -1.6569  0.3737
 3678TIP3    H232526   1.892   3.556   6.287 -0.6872  0.0613 -0.4987
 3679TIP3   OH232527   6.185   0.651   5.645  1.0681 -0.6010 -0.5877
 3679TIP3    H132528   6.191   0.557   5.628  1.8392 -1.1442  2.4510
 3679TIP3    H232529   6.274   0.683   5.634  0.3766  0.2711 -4.0786
 3680TIP3   OH232530   4.552   2.720  11.602  0.0548  0.3666  0.5573
 3680TIP3    H132531   4.537   2.802  11.649  0.7119 -0.2128  1.8154
 3680TIP3    H232532   4.644   2.723  11.577  0.2559 -0.2834  1.2045
 3681TIP3   OH232533   2.612   0.309  16.118  0.1378  0.1324 -0.3163
 3681TIP3    H132534   2.673   0.291  16.047  0.5090  0.8182 -0.1713
 3681TIP3    H232535   2.525   0.294  16.079  0.3672 -0.2257 -0.6973
 3682TIP3   OH232536   4.507   3.550  12.051  0.2474 -0.7848 -0.1898
 3682TIP3    H132537   4.568   3.623  12.051 -0.7869  0.1188  1.5862
 3682TIP3    H232538   4.534   3.495  12.125 -1.5928  0.1076  1.2017
 3683TIP3   OH232539   0.792   1.633  15.069  0.2446  0.0208 -0.5404
 3683TIP3    H132540   0.811   1.656  15.160  3.0583 -3.7769 -0.0492
 3683TIP3    H232541   0.875   1.648  15.023 -1.2588  2.2864 -2.6260
 3684TIP3   OH232542   6.509   5.954  14.723  0.3464  0.4855 -0.1082
 3684TIP3    H132543   6.466   5.881  14.768  1.5069 -0.4842 -0.5410
 3684TIP3    H232544   6.536   6.013  14.794  0.1070  0.1074  0.3025
 3685TIP3   OH232545   4.126   3.165   0.333 -0.2889  0.4571 -0.1440
 3685TIP3    H132546   4.165   3.078   0.330  0.7179  0.9129 -0.5545
 3685TIP3    H232547   4.175   3.215   0.267 -0.8016  1.3524  0.1528
 3686TIP3   OH232548   4.908   0.814   1.227 -0.6029  0.1907 -0.2183
 3686TIP3    H132549   4.939   0.901   1.253  0.6500 -0.5267  0.7542
 3686TIP3    H232550   4.975   0.754   1.258 -1.7948 -1.2033 -0.2494
 3687TIP3   OH232551   3.319   3.327   3.896  0.3079  0.1598 -0.5260
 3687TIP3    H132552   3.288   3.252   3.946  2.5976  0.3611  1.2812
 3687TIP3    H232553   3.373   3.376   3.958  3.1234  0.4922 -3.1321
 3688TIP3   OH232554   0.484   5.579  14.910  0.2413  0.2527 -0.1008
 3688TIP3    H132555   0.504   5.522  14.983  0.8814 -0.0367 -0.4962
 3688TIP3    H232556   0.516   5.665  14.937 -0.6958  0.4277  0.4821
 3689TIP3   OH232557   2.303   6.073  15.772 -0.3608  0.5279  0.1552
 3689TIP3    H132558   2.396   6.093  15.777  0.1903 -2.0855  0.6108
 3689TIP3    H232559   2.274   6.117  15.691  1.0088  2.1908  0.5251
 3690TIP3   OH232560   3.468   0.232  15.546 -0.2752  0.3761  0.5254
 3690TIP3    H132561   3.447   0.209  15.637  2.0341  0.6454  1.1463
 3690TIP3    H232562   3.396   0.194  15.495  0.8007 -3.8888  1.9964
 3691TIP3   OH232563   5.514   0.253   1.079  0.0923  0.0264  0.0524
 3691TIP3    H132564   5.428   0.277   1.115 -1.3295 -0.6090 -2.7499
 3691TIP3    H232565   5.560   0.337   1.070 -0.2600  0.3859  1.4725
 3692TIP3   OH232566   1.016   2.745   3.520 -0.5167 -0.5806  0.4502
 3692TIP3    H132567   0.981   2.756   3.431  2.0555 -3.8639 -1.0932
 3692TIP3    H232568   1.092   2.802   3.523  0.1956 -1.4881  0.0193
 3693TIP3   OH232569   0.823   2.749  14.406 -0.5134 -0.1706 -0.1962
 3693TIP3    H132570   0.798   2.660  14.381 -0.2889 -0.3303  0.1344
 3693TIP3    H232571   0.742   2.790  14.437 -0.5118 -0.4412  0.1696
 3694TIP3   OH232572   4.300   6.420   4.561 -0.4031 -0.1436  0.1555
 3694TIP3    H132573   4.347   6.457   4.636  0.5602 -0.0119 -0.5138
 3694TIP3    H232574   4.219   6.471   4.557 -0.5107 -0.2150  1.1643
 3695TIP3   OH232575   3.632   1.662  12.321 -0.1813  0.1988 -0.7560
 3695TIP3    H132576   3.723   1.682  12.300  0.3600  0.8279  2.0061
 3695TIP3    H232577   3.581   1.730  12.276  0.6348 -0.4734 -2.7504
 3696TIP3   OH232578   4.116   6.094  13.723  0.1071  0.2894 -0.2461
 3696TIP3    H132579   4.133   6.049  13.806 -0.7615  1.1478  0.3966
 3696TIP3    H232580   4.193   6.074  13.669  0.1360 -1.2402  0.3405
 3697TIP3   OH232581   0.571   3.630  16.247 -0.1330  0.2043 -0.0246
 3697TIP3    H132582   0.544   3.546  16.284 -1.3279  0.5517 -0.0895
 3697TIP3    H232583   0.498   3.656  16.191 -0.5006  2.0794  1.2836
 3698TIP3   OH232584   1.587   3.982   1.139 -0.5708  0.1671  0.2044
 3698TIP3    H132585   1.565   3.900   1.183 -0.6194  1.3825  2.5412
 3698TIP3    H232586   1.512   4.039   1.155  0.3724  1.3667  0.4754
 3699TIP3   OH232587   4.281   0.870  11.227 -0.2524  0.0205  0.2141
 3699TIP3    H132588   4.252   0.781  11.206 -0.5334 -0.0282  0.8234
 3699TIP3    H232589   4.291   0.871  11.322 -1.3186  0.9591  0.3287
 3700TIP3   OH232590   6.773   4.506  10.374 -0.0510 -0.3055  0.0830
 3700TIP3    H132591   6.856   4.551  10.359 -0.3040  0.1193 -0.0389
 3700TIP3    H232592   6.795   4.413  10.369  0.3641 -0.1914 -0.2456
 3701TIP3   OH232593   6.364   0.128  12.678  0.2771  0.1280  0.3887
 3701TIP3    H132594   6.336   0.143  12.768  1.5250  0.3551  0.7565
 3701TIP3    H232595   6.404   0.211  12.651  1.6527 -0.5398  0.3094
 3702TIP3   OH232596   5.726   1.310   5.130 -0.2103  0.1328 -0.0083
 3702TIP3    H132597   5.690   1.375   5.190 -1.4725 -0.6999  0.1337
 3702TIP3    H232598   5.666   1.236   5.134 -0.0909 -0.1113 -1.9826
 3703TIP3   OH232599   5.353   1.399  14.192 -0.0526  0.3931  0.4711
 3703TIP3    H132600   5.287   1.375  14.126  0.0073 -0.8939  0.8774
 3703TIP3    H232601   5.302   1.424  14.269 -0.0808 -0.0005  0.5805
 3704TIP3   OH232602   5.855   3.461   1.573 -0.2837 -0.2999 -0.0972
 3704TIP3    H132603   5.909   3.412   1.512  0.7424  0.5689  0.0786
 3704TIP3    H232604   5.918   3.499   1.635 -1.1099  0.5661  0.2307
 3705TIP3   OH232605   3.724   0.963  13.724  0.5153  0.0391 -0.4688
 3705TIP3    H132606   3.701   0.987  13.634 -0.3552  2.8700  0.4545
 3705TIP3    H232607   3.760   1.043  13.762  1.4798 -1.3026  1.5282
 3706TIP3   OH232608   2.385   5.450  13.085  0.1524  0.9864 -0.2797
 3706TIP3    H132609   2.302   5.419  13.049 -0.7659 -0.3566  2.8432
 3706TIP3    H232610   2.362   5.494  13.166  2.3203  2.4761 -0.4125
 3707TIP3   OH232611   5.027   6.451  11.536 -0.5773  0.6609 -0.6268
 3707TIP3    H132612   5.104   6.455  11.593  0.7644 -1.7767 -2.1926
 3707TIP3    H232613   4.956   6.420  11.593  0.2629  0.1562  0.1400
 3708TIP3   OH232614   0.099   3.257  14.760  0.2752  0.1425  0.3227
 3708TIP3    H132615   0.076   3.333  14.814  0.6459  0.0248  0.6465
 3708TIP3    H232616   0.194   3.248  14.770  0.2407 -0.3350  0.2432
 3709TIP3   OH232617   6.684   5.389   5.166  0.1643  0.1344  0.1811
 3709TIP3    H132618   6.695   5.476   5.127 -1.7427 -0.8754 -2.8308
 3709TIP3    H232619   6.772   5.351   5.163  0.3149  0.5516 -2.1184
 3710TIP3   OH232620   0.949   5.521   5.290 -0.5084  0.0581 -0.2869
 3710TIP3    H132621   1.028   5.478   5.258 -0.4853 -0.7393  0.8093
 3710TIP3    H232622   0.970   5.615   5.287  0.6171 -0.1672  0.3872
 3711TIP3   OH232623   3.494   1.523   5.364  0.3375 -0.0506  0.2235
 3711TIP3    H132624   3.439   1.499   5.290 -0.1507  0.1524  0.5142
 3711TIP3    H232625   3.574   1.472   5.353  0.1879 -0.1659 -0.3335
 3712TIP3   OH232626   0.227   0.057   2.789  0.7756 -0.5126  0.0156
 3712TIP3    H132627   0.235   0.153   2.793 -0.8633 -0.2403 -2.2953
 3712TIP3    H232628   0.259   0.034   2.701 -1.7170 -1.7270 -0.6214
 3713TIP3   OH232629   5.231   6.283  16.099 -0.0380  0.8723  0.4852
 3713TIP3    H132630   5.193   6.284  16.187 -0.5469  0.2548  0.2825
 3713TIP3    H232631   5.273   6.197  16.092 -1.0077  0.4383 -0.2777
 3714TIP3   OH232632   3.926   1.529   0.670  0.3569  0.3270  0.5261
 3714TIP3    H132633   3.925   1.620   0.701  1.2011  0.4331  0.2518
 3714TIP3    H232634   3.834   1.509   0.653  0.2791  1.4944 -0.4610
 3715TIP3   OH232635   5.608   6.594  16.657 -0.1168  0.3122 -0.2248
 3715TIP3    H132636   5.626   6.664  16.720  0.6705 -1.9237  2.1768
 3715TIP3    H232637   5.514   6.599  16.641 -0.1736  1.5168  0.4172
 3716TIP3   OH232638   5.236   2.851   2.142 -1.0282  0.1748  0.2894
 3716TIP3    H132639   5.263   2.798   2.218  4.0472  2.4208  0.2949
 3716TIP3    H232640   5.245   2.792   2.068  1.1897 -0.0701  0.6958
 3717TIP3   OH232641   3.491   6.636   1.318  0.2015  0.0067 -0.0702
 3717TIP3    H132642   3.424   6.585   1.272  1.2286  0.5936 -2.2861
 3717TIP3    H232643   3.565   6.576   1.326 -0.7563 -0.8817  3.0207
 3718TIP3   OH232644   2.214   0.575   4.179 -0.1001  0.4745 -0.2842
 3718TIP3    H132645   2.161   0.495   4.176 -0.0739  0.4681 -0.5916
 3718TIP3    H232646   2.263   0.574   4.096  2.0789 -0.6729  0.9744
 3719TIP3   OH232647   6.135   6.147  14.259 -0.1602 -0.2722  0.1628
 3719TIP3    H132648   6.121   6.204  14.334 -0.4844  0.4839 -0.4535
 3719TIP3    H232649   6.207   6.187  14.211 -1.3141  0.4364 -1.0300
 3720TIP3   OH232650   2.019   6.149  11.647 -0.0259  0.0829  0.3825
 3720TIP3    H132651   1.941   6.161  11.700 -0.2417 -2.2842  0.6720
 3720TIP3    H232652   2.081   6.104  11.705  0.4340 -0.8016 -0.7639
 3721TIP3   OH232653   4.388   4.954  12.507  0.1221  0.5854 -0.2245
 3721TIP3    H132654   4.372   4.881  12.446  2.2118 -0.7256  0.7411
 3721TIP3    H232655   4.323   4.941  12.576  0.2636 -0.1841 -0.2255
 3722TIP3   OH232656   2.567   0.311   2.446  0.4305 -0.4387  0.5987
 3722TIP3    H132657   2.577   0.279   2.356  0.5373 -0.7578  0.7221
 3722TIP3    H232658   2.656   0.318   2.479  0.5021  1.4402  0.0819
 3723TIP3   OH232659   5.323   1.787   2.447  0.1254  0.5821  0.1063
 3723TIP3    H132660   5.331   1.850   2.519  0.5148  0.7449 -0.0732
 3723TIP3    H232661   5.412   1.780   2.412 -0.0321  0.3928 -0.2620
 3724TIP3   OH232662   1.910   3.227   4.986  0.4006  0.6396  0.7934
 3724TIP3    H132663   1.984   3.287   4.989 -0.3545  1.5086  2.2065
 3724TIP3    H232664   1.847   3.269   4.928  2.3697 -1.7345 -3.3358
 3725TIP3   OH232665   1.466   4.755  15.292 -0.4310 -0.1708 -0.9149
 3725TIP3    H132666   1.423   4.753  15.377 -1.0643  0.7033 -1.2107
 3725TIP3    H232667   1.401   4.721  15.231 -0.4302  0.3995 -1.2392
 3726TIP3   OH232668   0.727   1.321   2.203 -0.1452  0.1796 -0.0027
 3726TIP3    H132669   0.681   1.310   2.119  1.5238 -0.3157 -0.8598
 3726TIP3    H232670   0.700   1.408   2.233 -0.0617  0.7439 -1.5031
 3727TIP3   OH232671   2.011   2.790  15.175 -0.1856 -0.0626 -0.2385
 3727TIP3    H132672   1.939   2.782  15.112 -0.6146 -1.6378  0.4293
 3727TIP3    H232673   2.038   2.700  15.193  0.1330  0.3772  1.6000
 3728TIP3   OH232674   0.968   2.749   2.409  0.0638 -0.2976 -0.4303
 3728TIP3    H132675   0.926   2.812   2.350 -0.5837 -0.8118 -0.5224
 3728TIP3    H232676   0.908   2.742   2.483  1.4616  1.2777  0.8907
 3729TIP3   OH232677   3.737   2.653  14.810 -0.3882  0.3915 -0.2910
 3729TIP3    H132678   3.676   2.649  14.737 -0.7924  1.3669 -0.0061
 3729TIP3    H232679   3.752   2.746  14.825 -0.3657  0.2090  0.9205
 3730TIP3   OH232680   4.019   6.561   1.395 -0.0415  0.1811 -0.2639
 3730TIP3    H132681   4.011   6.553   1.300 -2.1588 -0.1762 -0.0762
 3730TIP3    H232682   4.086   6.496   1.418 -0.4058 -0.6066 -1.3669
 3731TIP3   OH232683   4.692   5.718   2.591 -0.1098  0.3833 -0.3250
 3731TIP3    H132684   4.646   5.797   2.620  1.1387  1.7668 -2.0227
 3731TIP3    H232685   4.627   5.670   2.539 -0.7464  0.4851  0.3675
 3732TIP3   OH232686   1.743   2.297  15.127 -0.1566  0.0648  0.3994
 3732TIP3    H132687   1.690   2.364  15.083  3.1448  2.0287 -0.8002
 3732TIP3    H232688   1.810   2.274  15.063  1.7004 -0.8002  2.5759
 3733TIP3   OH232689   5.379   3.990   1.284 -0.2437 -0.3106  0.0255
 3733TIP3    H132690   5.360   3.904   1.320  0.4868 -0.0219  1.1135
 3733TIP3    H232691   5.330   3.992   1.201 -0.0511 -1.8581 -0.1456
 3734TIP3   OH232692   2.994   3.585  15.845 -0.2584  0.3263  0.1416
 3734TIP3    H132693   2.995   3.681  15.846  0.2681  0.3222  1.3383
 3734TIP3    H232694   3.000   3.562  15.752 -1.2149  1.4472 -0.2144
 3735TIP3   OH232695   6.673   3.712  11.192  0.8699  0.1726 -0.4719
 3735TIP3    H132696   6.661   3.805  11.212 -0.5789  0.1463 -1.1542
 3735TIP3    H232697   6.735   3.710  11.119  1.2304  0.5772 -0.1756
 3736TIP3   OH232698   5.708   0.149  14.026  0.3203  0.2990 -0.2408
 3736TIP3    H132699   5.621   0.129  13.991 -0.5314 -0.3824  2.1938
 3736TIP3    H232700   5.756   0.066  14.019  0.1496  0.1622  0.2106
 3737TIP3   OH232701   6.544   3.663  12.242  0.4860 -0.0054  0.0329
 3737TIP3    H132702   6.482   3.657  12.315  0.9557  2.0490  0.6403
 3737TIP3    H232703   6.493   3.639  12.165 -0.9379  1.1244  0.5917
 3738TIP3   OH232704   4.478   4.185  16.242  0.4068  0.3208 -0.2924
 3738TIP3    H132705   4.520   4.117  16.295 -0.3805  0.7875  0.9428
 3738TIP3    H232706   4.517   4.267  16.272 -0.7645  0.6756  0.2744
 3739TIP3   OH232707   6.188   6.393   2.250 -0.4528  0.1694  0.1150
 3739TIP3    H132708   6.267   6.394   2.196  0.0432  1.8997  0.8262
 3739TIP3    H232709   6.216   6.426   2.335 -1.7112 -0.2985  0.7310
 3740TIP3   OH232710   3.554   0.190   5.560 -0.3972  0.2776 -0.1405
 3740TIP3    H132711   3.515   0.268   5.522 -0.5361  0.2486 -0.0562
 3740TIP3    H232712   3.481   0.129   5.572 -0.3068  0.1745 -0.1064
 3741TIP3   OH232713   3.890   2.874  16.147  0.2478  0.5613  0.0037
 3741TIP3    H132714   3.967   2.896  16.095 -0.2999  1.0769 -0.6032
 3741TIP3    H232715   3.923   2.865  16.236  1.2648 -0.7090 -0.4820
 3742TIP3   OH232716   4.632   4.413  16.290  0.0480  0.6989 -0.0514
 3742TIP3    H132717   4.622   4.499  16.249  1.8400  0.9534  0.0097
 3742TIP3    H232718   4.585   4.420  16.373 -1.2223  1.0760 -0.7836
 3743TIP3   OH232719   2.467   4.701   4.905  0.3853  0.1309  0.2596
 3743TIP3    H132720   2.391   4.697   4.847  0.8053 -0.3534 -0.2679
 3743TIP3    H232721   2.536   4.655   4.857  0.5324 -0.9292  1.4663
 3744TIP3   OH232722   0.534   3.549   5.524  0.2250 -0.1865 -0.2314
 3744TIP3    H132723   0.483   3.627   5.501  0.5737  0.0228 -0.2874
 3744TIP3    H232724   0.570   3.568   5.610  2.5020  0.8103 -1.3763
 3745TIP3   OH232725   2.934   4.053   2.349  0.4599  0.3174  0.1188
 3745TIP3    H132726   2.911   4.144   2.367 -0.6124  0.0675  0.0262
 3745TIP3    H232727   3.011   4.037   2.404  0.7707  1.3313 -0.0124
 3746TIP3   OH232728   5.405   5.167  16.356 -0.3365 -0.1559 -0.4048
 3746TIP3    H132729   5.490   5.186  16.316 -1.1434 -0.1593 -2.1272
 3746TIP3    H232730   5.363   5.105  16.297 -0.8061 -1.5709  1.3776
 3747TIP3   OH232731   3.631   1.164  12.876  0.5402 -0.7947  0.1207
 3747TIP3    H132732   3.680   1.179  12.796  0.8385 -1.9117  0.0834
 3747TIP3    H232733   3.581   1.084  12.859 -0.6599 -0.1271  0.4545
 3748TIP3   OH232734   3.976   6.228  17.275  0.0909 -0.6479  0.0471
 3748TIP3    H132735   3.981   6.149  17.329 -0.2483 -0.1365  0.8447
 3748TIP3    H232736   3.998   6.299  17.335 -0.2527 -0.0745 -0.5015
 3749TIP3   OH232737   2.381   6.414  11.517  0.1864 -0.4687  0.0950
 3749TIP3    H132738   2.347   6.501  11.495  2.2797  0.7608  1.4308
 3749TIP3    H232739   2.417   6.381  11.435  1.0192  0.7488 -0.0529
 3750TIP3   OH232740   3.316   4.003   0.867  0.1599 -0.0191 -0.0326
 3750TIP3    H132741   3.221   3.995   0.875 -0.0143  0.7084 -1.1988
 3750TIP3    H232742   3.343   3.925   0.818  0.0484  0.2077 -0.4587
 3751TIP3   OH232743   3.767   2.654  10.394 -0.8940  0.0672  0.8351
 3751TIP3    H132744   3.723   2.739  10.396 -0.9309  0.0716 -0.0369
 3751TIP3    H232745   3.723   2.606  10.323  1.5463  0.6484 -1.1468
 3752TIP3   OH232746   5.460   2.275   3.726 -0.0751 -0.6063  0.5837
 3752TIP3    H132747   5.373   2.287   3.766  0.3681 -0.3386  1.4774
 3752TIP3    H232748   5.444   2.287   3.632 -0.7787  0.8062  0.8554
 3753TIP3   OH232749   0.836   4.406   6.326 -0.3635  0.1877  0.1648
 3753TIP3    H132750   0.845   4.437   6.416 -1.4986  0.7283  0.1037
 3753TIP3    H232751   0.926   4.402   6.293  0.0437  0.1790  1.2566
 3754TIP3   OH232752   0.826   4.087   2.362  1.0221  0.0621 -0.1467
 3754TIP3    H132753   0.847   3.996   2.381  0.9880  0.0850  0.0011
 3754TIP3    H232754   0.731   4.092   2.373  0.9953  0.0608 -0.3834
 3755TIP3   OH232755   1.863   6.062  17.039 -0.1933  0.3587 -0.0162
 3755TIP3    H132756   1.869   6.022  16.952 -1.3152  0.5646 -0.1973
 3755TIP3    H232757   1.769   6.064  17.058 -0.1738  3.1509 -0.1178
 3756TIP3   OH232758   0.145   0.521   4.796 -0.4301  0.5341  0.2161
 3756TIP3    H132759   0.237   0.535   4.772 -0.7538 -0.7427 -1.8535
 3756TIP3    H232760   0.140   0.428   4.818 -1.6125  0.2024 -1.4418
 3757TIP3   OH232761   2.003   5.525   5.841  0.1375  0.2357 -0.1346
 3757TIP3    H132762   2.076   5.557   5.895  2.1070 -0.4825 -2.2752
 3757TIP3    H232763   1.986   5.437   5.873  0.0373  0.4835  0.5136
 3758TIP3   OH232764   4.896   4.119  16.557  0.0249 -0.1952  0.0971
 3758TIP3    H132765   4.862   4.040  16.516  1.0987  0.0488 -1.2907
 3758TIP3    H232766   4.974   4.142  16.506  0.1694  1.3180  0.9518
 3759TIP3   OH232767   1.570   4.058  10.959  0.3734 -0.1848  0.7719
 3759TIP3    H132768   1.604   4.147  10.953 -2.0123  0.6807 -0.4850
 3759TIP3    H232769   1.484   4.067  11.001 -0.9629 -1.5782 -1.5738
 3760TIP3   OH232770   1.212   1.039   5.271  0.0686 -0.0051 -0.1268
 3760TIP3    H132771   1.273   1.011   5.202 -0.0653  0.3697 -0.4007
 3760TIP3    H232772   1.150   1.096   5.226 -1.2692 -1.4293 -0.1095
 3761TIP3   OH232773   3.262   6.515   3.324  0.1500  0.1203 -0.3690
 3761TIP3    H132774   3.189   6.555   3.277  1.0135  0.1192 -1.7435
 3761TIP3    H232775   3.254   6.548   3.413 -1.1456  0.6310 -0.6584
 3762TIP3   OH232776   3.545   2.778   2.568  0.1880  0.4149  0.0566
 3762TIP3    H132777   3.607   2.818   2.507 -0.7687 -0.6610 -1.6650
 3762TIP3    H232778   3.470   2.838   2.570  0.6880  1.0209  1.0734
 3763TIP3   OH232779   4.421   6.703  14.741 -0.7677 -0.0230 -0.9425
 3763TIP3    H132780   4.435   6.645  14.815 -1.2417 -1.4666 -1.9669
 3763TIP3    H232781   4.327   6.704  14.727 -0.8229  1.5033 -0.5379
 3764TIP3   OH232782   1.840   2.381  15.978  0.3505  0.0164  0.5507
 3764TIP3    H132783   1.786   2.311  16.014  0.1488 -0.7261 -1.1631
 3764TIP3    H232784   1.791   2.461  15.996 -0.1540 -0.4174  1.1347
 3765TIP3   OH232785   1.637   5.616  15.857 -0.3685  0.5808  0.2756
 3765TIP3    H132786   1.571   5.633  15.790 -0.0368  1.3089  0.1333
 3765TIP3    H232787   1.721   5.631  15.813 -0.1387  0.7419  0.7653
 3766TIP3   OH232788   4.011   6.216   2.321  0.5226 -0.0390  0.0854
 3766TIP3    H132789   3.934   6.160   2.335  0.0047  0.0518 -2.2720
 3766TIP3    H232790   4.079   6.175   2.374 -0.3540 -1.8178 -0.0925
 3767TIP3   OH232791   0.506   3.371  10.255  0.4726 -0.3365  0.4824
 3767TIP3    H132792   0.428   3.321  10.231  0.9617 -0.4137 -0.9766
 3767TIP3    H232793   0.573   3.305  10.272 -0.0585 -0.3180  2.8576
 3768TIP3   OH232794   3.522   2.318  14.191 -0.7366  0.6890 -0.4908
 3768TIP3    H132795   3.552   2.228  14.190 -0.3593  0.7950 -2.6821
 3768TIP3    H232796   3.436   2.315  14.234  0.2864 -0.3382  1.5091
 3769TIP3   OH232797   0.786   4.962  11.884  0.2276  0.0197  0.2191
 3769TIP3    H132798   0.784   4.957  11.788 -1.8942 -0.1526  0.2440
 3769TIP3    H232799   0.876   4.986  11.905  0.4453  1.1592 -1.8767
 3770TIP3   OH232800   4.561   0.670  15.193  0.2487 -0.1851 -0.4303
 3770TIP3    H132801   4.502   0.726  15.245  0.0930  1.5223 -2.3951
 3770TIP3    H232802   4.635   0.726  15.174  0.8696 -1.2049 -1.0289
 3771TIP3   OH232803   4.184   3.892  14.244  0.0755  0.4961 -0.1352
 3771TIP3    H132804   4.278   3.872  14.243  0.1847  1.0242 -1.2220
 3771TIP3    H232805   4.179   3.985  14.226 -0.7231  0.2299 -1.3361
 3772TIP3   OH232806   0.959   2.925  15.876  0.4217  0.3099 -0.0955
 3772TIP3    H132807   1.033   2.863  15.872  1.0330  1.0410 -0.1955
 3772TIP3    H232808   0.948   2.943  15.970  0.8006  0.7114 -0.1264
 3773TIP3   OH232809   3.983   6.556  15.526 -0.0486 -0.3875 -0.1582
 3773TIP3    H132810   4.061   6.540  15.580  0.3900  1.0020 -0.3687
 3773TIP3    H232811   3.973   6.651  15.525 -0.1242 -0.3919 -2.4197
 3774TIP3   OH232812   3.064   4.114   4.462 -0.5057  0.1180  0.0494
 3774TIP3    H132813   3.082   4.191   4.408 -2.0921  1.2309  1.0626
 3774TIP3    H232814   3.013   4.147   4.536 -0.7813 -1.8259  0.7807
 3775TIP3   OH232815   2.016   0.394  13.698 -0.0702  0.3773  0.1819
 3775TIP3    H132816   2.109   0.402  13.679  0.0674  0.8658  1.0603
 3775TIP3    H232817   1.973   0.442  13.627  0.4378  2.1245  1.0496
 3776TIP3   OH232818   6.792   3.338  12.154 -0.1968 -0.2450  0.7893
 3776TIP3    H132819   6.719   3.278  12.174  0.0624 -0.2521  1.7388
 3776TIP3    H232820   6.749   3.420  12.131 -0.5375 -0.5970  0.1340
 3777TIP3   OH232821   1.975   1.428  11.976  0.3950  0.2888  0.2291
 3777TIP3    H132822   1.923   1.449  11.899  1.5883 -0.6753 -0.8608
 3777TIP3    H232823   2.031   1.356  11.949  1.3558  0.4125  1.7764
 3778TIP3   OH232824   6.653   6.745   1.314 -0.1958 -0.2799  0.1364
 3778TIP3    H132825   6.687   6.749   1.403  0.6169  1.3036 -0.2404
 3778TIP3    H232826   6.604   6.662   1.311  0.1822 -0.5817  1.8910
 3779TIP3   OH232827   4.532   4.234   2.168 -0.0009  0.3025  0.1374
 3779TIP3    H132828   4.602   4.198   2.114 -1.6129 -1.9741 -0.4915
 3779TIP3    H232829   4.539   4.329   2.156  0.6972 -0.0631 -2.7603
 3780TIP3   OH232830   6.520   1.488  15.485  0.0290 -1.0674  0.0696
 3780TIP3    H132831   6.522   1.566  15.431 -2.3563 -0.5981  0.6030
 3780TIP3    H232832   6.506   1.416  15.423 -0.3187 -0.7946 -0.1681
 3781TIP3   OH232833   5.621   5.777   5.660 -0.6861  0.3880  0.0314
 3781TIP3    H132834   5.619   5.722   5.581 -1.3295  0.7337 -0.1949
 3781TIP3    H232835   5.680   5.849   5.637 -0.8626  0.4813 -0.1332
 3782TIP3   OH232836   1.213   2.939   3.514 -0.2792  0.0270 -0.7533
 3782TIP3    H132837   1.205   3.016   3.570  1.5706 -0.9053  0.8462
 3782TIP3    H232838   1.307   2.932   3.497 -0.4905 -1.6097 -1.2808
 3783TIP3   OH232839   6.035   0.991   2.620 -0.0999 -0.0259  0.2135
 3783TIP3    H132840   6.068   1.056   2.682 -0.6799  0.0689  0.4269
 3783TIP3    H232841   6.101   0.922   2.619  1.5774  1.5512 -1.6138
 3784TIP3   OH232842   6.331   4.100   1.661 -0.3384 -0.1459 -0.3021
 3784TIP3    H132843   6.426   4.095   1.672 -0.5794 -2.4245  1.1931
 3784TIP3    H232844   6.315   4.066   1.573  0.4084  2.8204 -1.6261
 3785TIP3   OH232845   0.325   4.403   0.400  0.2269  0.1741  0.0066
 3785TIP3    H132846   0.339   4.314   0.434  1.0187  0.7270  1.1535
 3785TIP3    H232847   0.230   4.413   0.399  0.1408 -0.5069  0.3534
 3786TIP3   OH232848   3.288   1.761   0.309 -0.6813  0.2342 -0.2991
 3786TIP3    H132849   3.261   1.724   0.225 -1.3598  0.1194 -0.0328
 3786TIP3    H232850   3.274   1.856   0.299  0.0201  0.3123 -0.5976
 3787TIP3   OH232851   5.513   5.091   4.866 -0.1808 -0.1798  0.3783
 3787TIP3    H132852   5.498   4.996   4.874 -1.1472 -0.2008 -1.3992
 3787TIP3    H232853   5.425   5.127   4.854  0.0901  1.0661  1.9817
 3788TIP3   OH232854   0.421   3.398  13.661  0.7363  0.4269  0.2976
 3788TIP3    H132855   0.375   3.391  13.744  0.2141  2.2395  0.1820
 3788TIP3    H232856   0.369   3.346  13.600  0.5165 -0.0089  0.8591
 3789TIP3   OH232857   2.212   1.578   2.933  0.3857 -0.0102  0.0275
 3789TIP3    H132858   2.160   1.575   3.014 -1.2113 -1.8906 -1.0104
 3789TIP3    H232859   2.302   1.564   2.962  0.2122  2.2258  1.7625
 3790TIP3   OH232860   3.473   1.281   3.244 -0.4792  0.6395  0.1267
 3790TIP3    H132861   3.567   1.297   3.242 -0.3352 -0.2568 -0.7727
 3790TIP3    H232862   3.434   1.368   3.245  0.3770  1.0175  2.0554
 3791TIP3   OH232863   2.923   6.696   1.918 -0.7027 -0.7421 -0.1015
 3791TIP3    H132864   2.915   6.719   2.011  0.7784  0.6367 -0.2758
 3791TIP3    H232865   2.988   6.626   1.917  0.4202  0.2766 -0.2009
 3792TIP3   OH232866   2.227   2.612  12.878  0.0270 -0.1588  0.3173
 3792TIP3    H132867   2.218   2.577  12.789  0.5126  1.0362 -0.2090
 3792TIP3    H232868   2.263   2.700  12.866  1.7363 -0.6384  1.8061
 3793TIP3   OH232869   1.191   1.801  14.659 -0.1057  0.1405 -0.1827
 3793TIP3    H132870   1.231   1.714  14.658 -0.3698  0.0203 -0.4604
 3793TIP3    H232871   1.263   1.860  14.680  0.0844 -0.1414 -0.0397
 3794TIP3   OH232872   6.689   2.190   5.866 -0.1570 -0.2352  0.1208
 3794TIP3    H132873   6.781   2.181   5.842 -0.2064  0.2257 -0.2522
 3794TIP3    H232874   6.670   2.283   5.851 -0.5024 -0.1900  0.8193
 3795TIP3   OH232875   4.423   6.586   1.003  0.0899 -0.1207 -0.3352
 3795TIP3    H132876   4.433   6.645   0.928  0.2969  0.6535  0.2926
 3795TIP3    H232877   4.336   6.548   0.991  0.1317 -0.0292 -0.9849
 3796TIP3   OH232878   6.528   4.861   4.326  0.6080  0.2708 -0.0485
 3796TIP3    H132879   6.451   4.902   4.364  2.0236  1.4355  1.6552
 3796TIP3    H232880   6.494   4.786   4.278 -1.4409 -0.1404  1.9534
 3797TIP3   OH232881   6.111   6.363   3.088  0.2257  0.1309 -0.0687
 3797TIP3    H132882   6.136   6.346   3.179 -0.8896  1.2499  0.4606
 3797TIP3    H232883   6.189   6.340   3.037  0.5456 -1.4012  1.0734
 3798TIP3   OH232884   3.253   5.607  14.984 -0.0126 -0.5719  0.3344
 3798TIP3    H132885   3.317   5.638  14.921 -1.2130 -1.2068 -1.2417
 3798TIP3    H232886   3.178   5.666  14.974 -0.6179 -1.3159  0.4006
 3799TIP3   OH232887   2.910   2.073  13.175  0.6259  0.3238  0.2032
 3799TIP3    H132888   3.003   2.096  13.175  0.1215  2.5086 -0.4849
 3799TIP3    H232889   2.908   1.978  13.159  2.7695 -0.0774  2.1067
 3800TIP3   OH232890   4.688   5.821   4.967 -0.3886 -0.3852  0.7524
 3800TIP3    H132891   4.719   5.859   5.049  1.1633  0.2434 -0.1128
 3800TIP3    H232892   4.623   5.756   4.994  1.5090 -1.5828  2.5955
 3801TIP3   OH232893   1.170   1.792   3.950  0.6728 -0.7916 -0.3228
 3801TIP3    H132894   1.118   1.836   3.882  0.0792  0.1570  0.7253
 3801TIP3    H232895   1.106   1.736   3.995  0.9551 -0.9963 -0.1784
 3802TIP3   OH232896   3.711   0.073   2.263  0.0733  0.5731  0.1517
 3802TIP3    H132897   3.723  -0.022   2.266 -1.8002  0.2662 -0.6792
 3802TIP3    H232898   3.781   0.105   2.207  0.9602 -0.2801  0.7721
 3803TIP3   OH232899   1.039   1.642   1.114  0.2040 -0.1060  0.4553
 3803TIP3    H132900   1.019   1.563   1.065 -0.4005 -1.0149  2.1096
 3803TIP3    H232901   1.107   1.687   1.063 -1.4690 -0.2371 -1.9511
 3804TIP3   OH232902   6.522   1.984   5.761  0.3954 -1.0038 -0.1846
 3804TIP3    H132903   6.590   2.032   5.809 -0.1598 -0.7532  0.3427
 3804TIP3    H232904   6.566   1.957   5.680  0.1263  2.3073 -1.5322
 3805TIP3   OH232905   4.015   5.667  16.333 -0.2417 -0.0433  0.1298
 3805TIP3    H132906   3.990   5.603  16.399  1.5851  0.3769  1.2658
 3805TIP3    H232907   4.063   5.617  16.267  0.4525  0.0072  0.5924
 3806TIP3   OH232908   0.616   5.909   0.755 -0.7148 -0.0764  0.3284
 3806TIP3    H132909   0.577   5.953   0.830 -0.3239  2.3345 -0.8324
 3806TIP3    H232910   0.690   5.860   0.791  0.4481  2.3644  1.3139
 3807TIP3   OH232911   1.129   6.177   2.531  0.0217 -0.2264  0.4811
 3807TIP3    H132912   1.165   6.101   2.485 -1.7000 -0.2808 -0.8457
 3807TIP3    H232913   1.164   6.253   2.484 -1.3098 -0.2750 -0.6212
 3808TIP3   OH232914   6.522   0.438  13.613 -0.0630  0.3939  0.2590
 3808TIP3    H132915   6.473   0.388  13.678 -0.1381  1.0478  0.7044
 3808TIP3    H232916   6.488   0.527  13.620 -0.2761  0.4168 -0.8680
 3809TIP3   OH232917   0.585   5.331   4.734 -0.4688  0.2689 -0.6960
 3809TIP3    H132918   0.522   5.308   4.803 -0.6187 -0.1788 -0.9798
 3809TIP3    H232919   0.658   5.373   4.781 -0.2980 -0.5803 -0.1949
 3810TIP3   OH232920   5.093   5.703   3.283 -0.1663 -0.1527 -1.1020
 3810TIP3    H132921   5.158   5.765   3.316 -0.3096  0.1629 -1.4130
 3810TIP3    H232922   5.074   5.647   3.358  1.1912 -0.8750 -1.2726
 3811TIP3   OH232923   1.612   1.428  11.575  0.3330 -0.2918  0.3194
 3811TIP3    H132924   1.517   1.420  11.570  0.2082  1.1992 -0.2265
 3811TIP3    H232925   1.645   1.370  11.506 -0.3061  0.7657 -0.9260
 3812TIP3   OH232926   3.178   0.849   1.440 -0.1023  0.0160 -0.7031
 3812TIP3    H132927   3.249   0.913   1.431 -0.2977  0.1908 -1.0355
 3812TIP3    H232928   3.180   0.822   1.532  1.5137 -1.2873 -1.1058
 3813TIP3   OH232929   1.509   2.761   0.753  0.3310 -0.5085  0.2738
 3813TIP3    H132930   1.541   2.674   0.728  1.5400 -0.3203  1.0841
 3813TIP3    H232931   1.575   2.821   0.720 -0.7961  0.1583 -0.7886
 3814TIP3   OH232932   6.184   2.024   5.479  0.6857 -0.1996  0.6486
 3814TIP3    H132933   6.254   2.088   5.484  2.2968 -1.6242 -2.3332
 3814TIP3    H232934   6.225   1.946   5.443 -1.7210 -2.2004  2.0374
 3815TIP3   OH232935   1.499   0.334   0.864 -0.1174  0.4471  0.3457
 3815TIP3    H132936   1.574   0.274   0.858 -0.2302  0.1895  1.5553
 3815TIP3    H232937   1.539   0.420   0.877 -0.0116  0.3960  0.3610
 3816TIP3   OH232938   6.800   1.536  15.500  0.3081 -0.4437 -0.0793
 3816TIP3    H132939   6.836   1.465  15.552  0.3902 -1.2200 -1.1696
 3816TIP3    H232940   6.706   1.516  15.493  0.3722 -0.5890 -0.5874
 3817TIP3   OH232941   1.830   4.073  15.783 -0.0865 -0.0583  0.4649
 3817TIP3    H132942   1.772   4.022  15.727  0.3808 -0.9999  0.8312
 3817TIP3    H232943   1.894   4.112  15.723  1.1956 -2.1091  0.4609
 3818TIP3   OH232944   4.041   5.084  16.778  0.3636  0.0026 -0.2175
 3818TIP3    H132945   4.075   5.009  16.729  1.0008  0.0161  0.1924
 3818TIP3    H232946   4.011   5.048  16.861  1.7355  0.3495  0.4516
 3819TIP3   OH232947   4.159   0.342   1.912 -0.7382  0.8013  0.1593
 3819TIP3    H132948   4.239   0.320   1.959 -1.0472 -2.3599 -0.6488
 3819TIP3    H232949   4.188   0.387   1.833  0.3023 -0.7494 -0.3564
 3820TIP3   OH232950   1.679   3.646   2.215 -0.0604  0.1193  0.1849
 3820TIP3    H132951   1.746   3.604   2.162  0.8415  1.4031  0.2941
 3820TIP3    H232952   1.677   3.596   2.296  0.0351 -0.5600 -0.2348
 3821TIP3   OH232953   0.773   1.734   3.075 -0.4398  0.2950 -0.6070
 3821TIP3    H132954   0.772   1.830   3.073  0.5272  0.3022 -1.1397
 3821TIP3    H232955   0.705   1.710   3.138  0.8806  1.3867  1.2708
 3822TIP3   OH232956   2.098   4.671  13.192  0.1313  0.0646 -0.8355
 3822TIP3    H132957   2.085   4.588  13.147 -1.6052  0.5575 -1.2697
 3822TIP3    H232958   2.179   4.659  13.242 -1.2100 -2.5864  0.7598
 3823TIP3   OH232959   4.672   1.783   4.027  0.1666  0.1673 -0.1081
 3823TIP3    H132960   4.643   1.697   4.058 -0.3854 -0.1692 -1.5189
 3823TIP3    H232961   4.761   1.792   4.061  0.4270 -1.1899 -0.4058
 3824TIP3   OH232962   0.912   4.354  12.670 -0.0879 -0.0333 -0.2378
 3824TIP3    H132963   0.965   4.380  12.595  0.4409 -1.0071 -0.2198
 3824TIP3    H232964   0.976   4.334  12.738 -0.5294  0.0245  0.1899
 3825TIP3   OH232965   4.519   3.229   3.379 -0.6710  0.2389 -0.5676
 3825TIP3    H132966   4.464   3.169   3.327 -0.6370  0.3150 -0.6922
 3825TIP3    H232967   4.587   3.258   3.318  0.4975 -1.1421  0.0282
 3826TIP3   OH232968   2.061   1.003   1.407 -0.1699 -0.0927  0.6318
 3826TIP3    H132969   2.134   0.996   1.346 -0.7654  2.0200 -0.4070
 3826TIP3    H232970   1.983   1.007   1.351 -0.8819  0.0188  1.6078
 3827TIP3   OH232971   2.324   5.049   2.479  0.2456  0.2242 -0.1155
 3827TIP3    H132972   2.367   5.116   2.533  2.4673  0.3990 -2.0020
 3827TIP3    H232973   2.292   5.097   2.402 -0.6390 -0.4327 -0.1665
 3828TIP3   OH232974   3.649   1.255   4.364  0.0968 -0.5786 -0.3745
 3828TIP3    H132975   3.725   1.287   4.316 -0.0469  1.0190  0.4207
 3828TIP3    H232976   3.668   1.163   4.380  1.7322 -0.2730 -0.4458
 3829TIP3   OH232977   0.190   2.104   1.308  0.2687  0.0045 -0.0875
 3829TIP3    H132978   0.176   2.046   1.234 -0.2439  1.0798 -0.8461
 3829TIP3    H232979   0.139   2.065   1.379 -1.8087  0.6607 -1.1861
 3830TIP3   OH232980   2.630   1.601  12.572  0.4618  0.2429  0.1805
 3830TIP3    H132981   2.689   1.658  12.522  0.3547 -0.3440 -0.6366
 3830TIP3    H232982   2.650   1.513  12.540 -0.3626 -0.0286  0.4059
 3831TIP3   OH232983   1.197   5.591  12.842 -0.0970 -0.1958 -0.4298
 3831TIP3    H132984   1.170   5.506  12.809  0.2557 -0.5193  0.1156
 3831TIP3    H232985   1.292   5.588  12.845 -0.1078 -0.0211  0.2155
 3832TIP3   OH232986   4.030   2.797  13.189 -0.1355 -0.2004 -0.4384
 3832TIP3    H132987   3.980   2.763  13.263 -1.4667  1.2639 -0.6407
 3832TIP3    H232988   4.093   2.728  13.169  0.0914 -0.7315  1.9013
 3833TIP3   OH232989   6.226   6.031  15.431  0.4289 -0.1794  1.0931
 3833TIP3    H132990   6.253   6.096  15.496  1.3642 -0.5341  1.0695
 3833TIP3    H232991   6.279   6.050  15.354  0.7123 -0.9663  1.0875
 3834TIP3   OH232992   5.819   6.499   2.137 -0.1895  0.0015  0.0445
 3834TIP3    H132993   5.740   6.498   2.083 -1.7153  0.2176  2.1960
 3834TIP3    H232994   5.835   6.592   2.153 -0.7141 -0.1116  1.2889
 3835TIP3   OH232995   0.016   1.217   5.314 -0.3330 -0.4398  0.4196
 3835TIP3    H132996  -0.076   1.240   5.323 -0.0531  0.8671 -0.0232
 3835TIP3    H232997   0.026   1.195   5.222 -0.2059 -0.6252  0.4773
 3836TIP3   OH232998   5.411   6.222   5.354  0.1241  0.0310  0.5148
 3836TIP3    H132999   5.414   6.128   5.374 -0.2178  0.1606  1.1907
 3836TIP3    H233000   5.340   6.256   5.409  0.0607  0.6378  0.0677
 3837TIP3   OH233001   4.744   4.864  10.381 -0.3844  0.1138 -0.8652
 3837TIP3    H133002   4.821   4.807  10.391 -0.5976  0.0130  0.2484
 3837TIP3    H233003   4.778   4.953  10.392 -0.6221  0.0027  0.8814
 3838TIP3   OH233004   1.107   4.765   4.729  0.3718  0.1895  0.5491
 3838TIP3    H133005   1.048   4.832   4.763 -0.9439  0.0410 -1.3143
 3838TIP3    H233006   1.167   4.746   4.801 -1.5845  0.6810  2.3418
 3839TIP3   OH233007   4.630   0.738   0.678 -0.2384  0.7537 -0.2931
 3839TIP3    H133008   4.603   0.754   0.588  0.6444 -0.3366 -0.7525
 3839TIP3    H233009   4.591   0.654   0.701  1.6003 -0.1945 -0.5202
 3840TIP3   OH233010   0.168   5.255  14.055 -0.4965  0.3129  0.0708
 3840TIP3    H133011   0.141   5.204  14.131  1.3634 -0.8887 -0.0542
 3840TIP3    H233012   0.248   5.300  14.083 -1.3297  2.0727 -0.2846
 3841TIP3   OH233013   1.736   2.981  14.694 -0.6106 -0.3861 -0.0655
 3841TIP3    H133014   1.740   2.979  14.789 -0.1118  0.0582 -0.0720
 3841TIP3    H233015   1.828   2.976  14.666 -0.7058  0.2185 -0.5035
 3842TIP3   OH233016   3.231   6.459  12.130  0.6823  0.4415 -0.3613
 3842TIP3    H133017   3.293   6.419  12.068  0.4858  0.7105 -0.7305
 3842TIP3    H233018   3.251   6.552  12.127  0.4662  0.4918 -0.2446
 3843TIP3   OH233019   5.743   1.666   2.500 -0.6281 -0.7120 -0.0670
 3843TIP3    H133020   5.740   1.673   2.405  0.3273 -0.4108 -0.0730
 3843TIP3    H233021   5.788   1.583   2.516 -1.9250 -1.3903  0.1148
 3844TIP3   OH233022   4.371   0.159  10.484  0.6213  0.0569 -0.6329
 3844TIP3    H133023   4.421   0.236  10.514  1.4302 -0.7922  0.2403
 3844TIP3    H233024   4.437   0.095  10.461 -0.0500 -1.3033  1.1016
 3845TIP3   OH233025   3.588   0.775   5.170  0.0947 -0.0298  1.0481
 3845TIP3    H133026   3.570   0.819   5.087 -1.0762 -1.7778  0.3516
 3845TIP3    H233027   3.556   0.836   5.237 -3.3995 -0.6139  0.0313
 3846TIP3   OH233028   6.584   6.689   2.821  0.0905 -0.3041  0.9621
 3846TIP3    H133029   6.617   6.659   2.736  0.4569  1.6879  0.3760
 3846TIP3    H233030   6.662   6.721   2.867 -0.0470 -1.7387  2.2206
 3847TIP3   OH233031   2.621   5.146   0.291  0.0184 -0.2969 -0.7228
 3847TIP3    H133032   2.532   5.169   0.263  0.2308 -1.2282 -2.2092
 3847TIP3    H233033   2.608   5.072   0.351 -0.2751  0.1326 -0.2576
 3848TIP3   OH233034   3.988   1.552  15.521 -0.2014  0.5835  0.3577
 3848TIP3    H133035   4.032   1.488  15.466  0.5853  1.3807  0.0458
 3848TIP3    H233036   4.026   1.636  15.496 -0.8024  1.1152  1.1692
 3849TIP3   OH233037   2.293   4.993  16.070 -0.4301  0.5471  0.8143
 3849TIP3    H133038   2.372   4.978  16.019 -0.4600 -0.2251  0.9845
 3849TIP3    H233039   2.321   4.989  16.161 -0.0431  3.7793  0.8807
 3850TIP3   OH233040   3.812   5.993   4.690  0.1493 -0.0167 -0.1979
 3850TIP3    H133041   3.790   6.073   4.738  1.2442  0.3595 -0.2934
 3850TIP3    H233042   3.730   5.963   4.652 -0.5571  0.2176  1.1196
 3851TIP3   OH233043   1.451   6.220   3.841 -0.2152 -0.5553 -0.6430
 3851TIP3    H133044   1.491   6.134   3.828 -0.1870 -0.4822 -1.0375
 3851TIP3    H233045   1.415   6.243   3.756 -0.9598 -0.5469 -0.3254
 3852TIP3   OH233046   5.977   1.958  12.085  0.1116 -0.4060 -0.4852
 3852TIP3    H133047   5.883   1.973  12.090 -0.0753 -1.7718  0.5072
 3852TIP3    H233048   6.016   2.033  12.130 -0.6166 -0.8621  0.9509
 3853TIP3   OH233049   4.019   2.482   0.182  0.4820 -0.4782 -0.2550
 3853TIP3    H133050   3.983   2.453   0.265  3.3370 -0.8856  0.8868
 3853TIP3    H233051   3.960   2.551   0.153 -1.3138 -1.2745  1.4113
 3854TIP3   OH233052   2.152   2.615   0.598 -0.4198  0.1708  0.1573
 3854TIP3    H133053   2.206   2.694   0.599 -1.1667  0.6781  0.4009
 3854TIP3    H233054   2.068   2.643   0.563 -0.4346 -0.6875 -0.5169
 3855TIP3   OH233055   2.297   2.632   5.778  0.3566  0.2246 -0.4454
 3855TIP3    H133056   2.372   2.659   5.726  0.1889  0.8786 -0.3512
 3855TIP3    H233057   2.322   2.548   5.816  1.1656  0.6010 -0.1439
 3856TIP3   OH233058   2.242   5.409   3.030 -0.2562  0.5090 -0.0952
 3856TIP3    H133059   2.337   5.414   3.045 -0.3622  1.4609  0.2618
 3856TIP3    H233060   2.223   5.315   3.032  0.5702  0.3468  0.5338
 3857TIP3   OH233061   4.508   0.868   4.496 -0.5371  0.6107  0.3224
 3857TIP3    H133062   4.536   0.919   4.573  1.0062 -1.0769  0.8911
 3857TIP3    H233063   4.589   0.837   4.456 -1.3256  1.4157 -1.9987
 3858TIP3   OH233064   4.153   0.611  15.119  0.0391 -0.1368 -0.5494
 3858TIP3    H133065   4.235   0.561  15.116 -0.2525 -0.6613  0.1451
 3858TIP3    H233066   4.101   0.579  15.046  1.0196  1.1983 -1.8690
 3859TIP3   OH233067   5.235   3.289  15.799 -0.4142  0.2417 -0.3114
 3859TIP3    H133068   5.326   3.306  15.775 -0.1534  0.1905  0.6260
 3859TIP3    H233069   5.228   3.319  15.890 -1.2384 -0.0841 -0.2614
 3860TIP3   OH233070   4.281   4.076   3.614  0.3371  0.0282 -0.2222
 3860TIP3    H133071   4.360   4.082   3.667  0.1008 -0.3157  0.1711
 3860TIP3    H233072   4.211   4.106   3.672 -0.0122 -0.9551 -0.1372
 3861TIP3   OH233073   0.952   4.184  16.994 -0.6899 -0.2984  0.2838
 3861TIP3    H133074   0.958   4.175  16.899 -0.6721 -0.2415  0.2778
 3861TIP3    H233075   0.997   4.266  17.013 -0.2008 -0.5953  0.4012
 3862TIP3   OH233076   0.623   5.536   3.963  0.3957  0.4703  0.4131
 3862TIP3    H133077   0.610   5.576   3.877  1.1909 -0.3087 -0.0747
 3862TIP3    H233078   0.538   5.496   3.984  0.2101  0.6471 -0.0050
 3863TIP3   OH233079   3.850   6.636  13.591 -0.9146  0.2624  0.0694
 3863TIP3    H133080   3.903   6.628  13.512 -0.3632  0.6399  0.3964
 3863TIP3    H233081   3.769   6.590  13.571 -1.3128  1.5039 -1.1998
 3864TIP3   OH233082   4.623   0.501  14.812  0.2728 -0.3425  0.3259
 3864TIP3    H133083   4.649   0.593  14.817  2.5664 -0.9012 -0.6350
 3864TIP3    H233084   4.581   0.492  14.727  2.6631 -0.7735 -0.8512
 3865TIP3   OH233085   1.109   5.890  15.089 -0.3333 -0.3006 -0.3122
 3865TIP3    H133086   1.134   5.862  15.001 -0.6307 -0.3173 -0.3891
 3865TIP3    H233087   1.060   5.971  15.076 -1.8356 -1.1917 -0.2888
 3866TIP3   OH233088   0.154   1.325   2.002 -0.4125  0.5416  0.0164
 3866TIP3    H133089   0.222   1.357   2.062  0.2426 -0.7906  0.0053
 3866TIP3    H233090   0.110   1.256   2.051 -1.6968  1.2978 -0.0287
 3867TIP3   OH233091   1.262   3.167   4.445  0.3687 -0.5223  0.3827
 3867TIP3    H133092   1.337   3.197   4.496 -0.5209  1.4081  0.6081
 3867TIP3    H233093   1.187   3.214   4.482 -0.3651  0.6298 -2.4136
 3868TIP3   OH233094   3.837   1.674  14.940  0.0785  0.2366  0.1411
 3868TIP3    H133095   3.828   1.765  14.912  0.7198  0.8608  1.8868
 3868TIP3    H233096   3.821   1.622  14.861  2.4356  1.9440 -1.5247
 3869TIP3   OH233097   5.544   1.932  13.115  0.4293  0.5471  0.1344
 3869TIP3    H133098   5.571   1.915  13.205  0.0358 -0.2906  0.1053
 3869TIP3    H233099   5.508   1.848  13.085 -0.5004  1.1326 -0.4147
 3870TIP3   OH233100   1.193   3.491  13.810  0.3756  0.1764  0.4838
 3870TIP3    H133101   1.175   3.533  13.893  1.6414  0.8549  0.4148
 3870TIP3    H233102   1.183   3.560  13.745 -0.8001 -0.3910  0.0320
 3871TIP3   OH233103   6.622   6.800   0.136  0.1032 -0.6117 -0.6757
 3871TIP3    H133104   6.668   6.873   0.178 -0.7760  0.2437 -1.1947
 3871TIP3    H233105   6.567   6.841   0.070 -1.0186 -1.6777 -0.4172
 3872TIP3   OH233106   4.691   6.749   5.247  0.1502  0.0278 -0.0290
 3872TIP3    H133107   4.707   6.737   5.340 -0.9454 -0.4796  0.0987
 3872TIP3    H233108   4.741   6.679   5.205 -0.3316 -0.4901  0.2553
 3873TIP3   OH233109   5.961   5.021  17.100 -0.1932 -0.0863  0.0518
 3873TIP3    H133110   6.043   5.010  17.147 -0.9992 -0.4324  1.3985
 3873TIP3    H233111   5.979   5.090  17.036  0.5102  1.4449  1.8523
 3874TIP3   OH233112   5.831   1.202  14.284  0.4732  0.0543 -1.0611
 3874TIP3    H133113   5.853   1.110  14.291  3.0547  0.6357 -0.8892
 3874TIP3    H233114   5.753   1.205  14.229 -2.2799 -2.5037  2.5057
 3875TIP3   OH233115   5.408   3.269   4.504 -0.0208 -0.0896 -0.4081
 3875TIP3    H133116   5.375   3.192   4.456  2.0329 -0.6280 -1.0032
 3875TIP3    H233117   5.500   3.248   4.521 -0.4216  0.6133  2.7609
 3876TIP3   OH233118   4.958   0.486  14.968 -0.1350  0.2858  0.5307
 3876TIP3    H133119   5.051   0.483  14.948  0.3659  0.9573  2.6104
 3876TIP3    H233120   4.920   0.539  14.898  1.4903  2.2724  1.0943
 3877TIP3   OH233121   5.940   4.037   4.773 -0.2173  0.0518  0.4296
 3877TIP3    H133122   5.860   4.039   4.721 -0.2357 -2.7245  0.2822
 3877TIP3    H233123   6.006   4.076   4.715 -0.7037 -0.9761 -0.8542
 3878TIP3   OH233124   2.371   6.752  15.324  0.0642 -0.6337  0.3206
 3878TIP3    H133125   2.378   6.723  15.233 -0.5070 -0.3900  0.1947
 3878TIP3    H233126   2.401   6.842  15.324 -0.2169 -0.5389  0.3181
 3879TIP3   OH233127   5.164   1.717  16.685 -0.1870 -0.2320  0.9293
 3879TIP3    H133128   5.167   1.718  16.781  1.7359  2.4008  0.9061
 3879TIP3    H233129   5.249   1.682  16.658 -0.1938  0.2987  0.1950
 3880TIP3   OH233130   6.643   0.082  12.686  0.8220  0.0239 -0.5146
 3880TIP3    H133131   6.573   0.105  12.625  0.4426 -0.3120 -0.2085
 3880TIP3    H233132   6.694   0.162  12.694  1.9205 -0.4155 -2.6512
 3881TIP3   OH233133   0.658   6.328  10.791 -0.1534  0.0254  0.2384
 3881TIP3    H133134   0.683   6.413  10.826 -1.0235 -0.2600  1.6082
 3881TIP3    H233135   0.738   6.293  10.753  0.4141  1.0825  0.4484
 3882TIP3   OH233136   1.417   5.271   4.788  0.1420  0.2665 -0.4646
 3882TIP3    H133137   1.346   5.323   4.750 -0.5817  0.8866  1.6680
 3882TIP3    H233138   1.496   5.323   4.770 -0.2058  0.6397 -0.9330
 3883TIP3   OH233139   1.247   1.752  17.284  0.2748 -0.2505 -0.5157
 3883TIP3    H133140   1.154   1.754  17.304  0.4566 -1.1476  0.4871
 3883TIP3    H233141   1.257   1.680  17.221  0.3065 -0.3007 -0.4546
 3884TIP3   OH233142   5.078   2.503  12.404 -0.4736  0.0233  0.1182
 3884TIP3    H133143   5.042   2.530  12.319 -2.7770  0.2490  1.1100
 3884TIP3    H233144   5.048   2.572  12.465 -1.9708 -2.0058  1.7502
 3885TIP3   OH233145   6.780   2.151  15.520 -0.9747  0.0649 -0.0273
 3885TIP3    H133146   6.822   2.208  15.585 -1.9104  0.1526  0.5014
 3885TIP3    H233147   6.850   2.132  15.457  0.1379 -0.5596  1.3441
 3886TIP3   OH233148   0.083   4.562   0.711  0.0946  0.4717 -0.7637
 3886TIP3    H133149   0.034   4.572   0.630  1.5330  0.9867 -1.5868
 3886TIP3    H233150   0.025   4.513   0.769 -0.6790 -0.5119 -2.3429
 3887TIP3   OH233151   0.011   1.433   3.272 -0.3848 -0.3047  0.5936
 3887TIP3    H133152  -0.073   1.410   3.311  0.4894 -2.2884  1.3545
 3887TIP3    H233153   0.064   1.466   3.344 -0.1707  0.0192  0.2933
 3888TIP3   OH233154   1.654   0.517  12.074 -0.6593 -0.1469 -0.7157
 3888TIP3    H133155   1.566   0.514  12.037 -0.3758  1.3554 -1.5614
 3888TIP3    H233156   1.685   0.426  12.071 -1.5531 -0.4196 -1.9535
 3889TIP3   OH233157   3.889   0.236   3.079 -0.0535 -0.0265  0.4751
 3889TIP3    H133158   3.884   0.294   3.004  0.1143 -1.0908 -0.3624
 3889TIP3    H233159   3.945   0.164   3.051  1.9574  0.7059  2.3735
 3890TIP3   OH233160   4.939   6.621  15.610 -0.5093 -0.1508 -0.1145
 3890TIP3    H133161   4.968   6.640  15.699 -0.5890 -0.5310 -0.0089
 3890TIP3    H233162   5.019   6.622  15.558  0.0452 -3.5490  0.5493
 3891TIP3   OH233163   3.141   5.903  12.825  0.3463 -0.0286  0.2344
 3891TIP3    H133164   3.213   5.861  12.779 -0.0125  0.4987 -0.8306
 3891TIP3    H233165   3.069   5.841  12.819  0.7481 -0.6290  1.4457
 3892TIP3   OH233166   6.788   1.232   4.031 -0.0753  0.3518  0.0802
 3892TIP3    H133167   6.812   1.323   4.015 -0.2376  0.3583 -0.1357
 3892TIP3    H233168   6.811   1.187   3.950 -0.4564  0.2943  0.0024
 3893TIP3   OH233169   0.519   1.981   1.807 -0.2670  0.0511  0.4497
 3893TIP3    H133170   0.554   1.939   1.885 -2.9771 -0.1932  1.6068
 3893TIP3    H233171   0.470   2.056   1.840 -0.5417  0.5905 -1.1060
 3894TIP3   OH233172   0.851   5.195  16.208  0.0033  0.3135  0.4892
 3894TIP3    H133173   0.850   5.153  16.122 -1.7540  0.5871  0.3651
 3894TIP3    H233174   0.944   5.210  16.226  0.6443 -3.1298  0.3035
 3895TIP3   OH233175   5.175   5.887   0.956  0.8891  0.1593 -0.5198
 3895TIP3    H133176   5.174   5.891   1.052 -1.3293 -1.0370 -0.4619
 3895TIP3    H233177   5.268   5.885   0.933  1.4536  1.3542  1.5631
 3896TIP3   OH233178   4.006   3.596  12.395  0.0156 -0.3664 -0.2421
 3896TIP3    H133179   3.990   3.520  12.453 -0.2381 -0.7466 -0.8042
 3896TIP3    H233180   4.054   3.559  12.321  0.1232  0.0759 -0.3891
 3897TIP3   OH233181   5.022   0.258   5.249  0.2145 -0.0861 -0.0890
 3897TIP3    H133182   4.932   0.271   5.280  0.2825 -0.9425  0.4840
 3897TIP3    H233183   5.012   0.247   5.154 -0.2101  0.5328 -0.1206
 3898TIP3   OH233184   3.604   5.636  13.438  0.1761 -0.4909  0.5483
 3898TIP3    H133185   3.635   5.605  13.352 -0.0536  0.5117  0.0940
 3898TIP3    H233186   3.684   5.655  13.487  0.3025 -0.3137  0.2750
 3899TIP3   OH233187   4.047   2.231   3.857 -0.2119  0.1981 -0.1047
 3899TIP3    H133188   3.981   2.161   3.858 -0.5422  0.5073 -0.0013
 3899TIP3    H233189   4.079   2.236   3.947 -0.6697  0.6280  0.0374
 3900TIP3   OH233190   4.503   1.774   3.324  0.6627  0.4810  0.1041
 3900TIP3    H133191   4.541   1.862   3.320 -0.9221  1.2164  0.5975
 3900TIP3    H233192   4.519   1.745   3.414  1.0452  0.3268 -0.0128
 3901TIP3   OH233193   0.225   6.769  17.247 -0.0836 -0.1225  0.5233
 3901TIP3    H133194   0.266   6.765  17.160  0.3398 -1.8522  0.7691
 3901TIP3    H233195   0.164   6.695  17.247  1.2910 -1.3149  2.3376
 3902TIP3   OH233196   4.987   4.803   4.834 -0.1230  0.1108 -0.2257
 3902TIP3    H133197   4.941   4.768   4.758  0.5653  0.8638 -0.9893
 3902TIP3    H233198   4.917   4.836   4.891 -0.5128  2.0664 -1.7797
 3903TIP3   OH233199   6.794   4.764  11.931 -0.0781  0.3477  0.6880
 3903TIP3    H133200   6.736   4.721  11.868  0.3583 -0.4019  0.7998
 3903TIP3    H233201   6.882   4.736  11.907  0.1832  0.8993  0.9754
 3904TIP3   OH233202   0.834   4.161   5.147  0.0822 -0.1388 -0.2366
 3904TIP3    H133203   0.913   4.145   5.199  0.2274 -1.8170 -0.9280
 3904TIP3    H233204   0.864   4.211   5.071  0.0803  1.2033  0.6288
 3905TIP3   OH233205   2.420   5.660   0.460 -0.2870  0.3016 -0.0171
 3905TIP3    H133206   2.419   5.580   0.511  0.8256  0.9304  1.0206
 3905TIP3    H233207   2.401   5.632   0.370  2.4179 -1.4466 -0.1129
 3906TIP3   OH233208   5.511   4.134   3.210  0.1950  0.4217  0.3300
 3906TIP3    H133209   5.550   4.112   3.126  2.2208 -0.3913  1.4439
 3906TIP3    H233210   5.470   4.053   3.240 -0.6775  0.7548  0.0542
 3907TIP3   OH233211   2.834   5.199  16.500  0.2175  0.0561 -0.1247
 3907TIP3    H133212   2.917   5.209  16.453  1.0351 -0.8554  1.0775
 3907TIP3    H233213   2.827   5.279  16.553  0.6265 -0.1261  0.2101
 3908TIP3   OH233214   6.698   5.128   3.941 -0.4141 -0.5060 -0.3209
 3908TIP3    H133215   6.604   5.111   3.927 -1.1090  2.8251 -0.1506
 3908TIP3    H233216   6.735   5.131   3.852  0.0253 -3.9188 -0.3400
 3909TIP3   OH233217   3.104   6.015  17.056  0.3886 -0.0848  0.4870
 3909TIP3    H133218   3.105   5.929  17.013  0.7976 -0.4786  1.2676
 3909TIP3    H233219   3.132   5.997  17.145  0.1947  0.8280  0.7355
 3910TIP3   OH233220   0.697   4.214   2.764  0.1844 -0.1552  0.0628
 3910TIP3    H133221   0.655   4.197   2.849 -0.1956 -0.6538 -0.2261
 3910TIP3    H233222   0.755   4.289   2.781  0.0218 -0.1768  0.7342
 3911TIP3   OH233223   4.118   0.134  14.884  0.3429  0.2300  0.1735
 3911TIP3    H133224   4.191   0.195  14.886  1.5086 -1.0909 -1.3065
 3911TIP3    H233225   4.056   0.169  14.948  0.3461  3.6995 -1.6408
 3912TIP3   OH233226   5.405   0.108  14.283  0.8593  0.4114  0.6765
 3912TIP3    H133227   5.317   0.078  14.261  1.4622 -0.8118 -0.0836
 3912TIP3    H233228   5.397   0.204  14.287 -0.3636  0.3496 -0.0416
 3913TIP3   OH233229   6.231   0.029   4.755 -0.1467  0.5811  0.0966
 3913TIP3    H133230   6.266   0.118   4.748  0.8379  0.3874  2.1009
 3913TIP3    H233231   6.142   0.042   4.788 -0.3830  0.8749 -0.6532
 3914TIP3   OH233232   2.930   5.428   1.036  0.6123 -0.1652 -0.2489
 3914TIP3    H133233   3.012   5.400   0.996  0.1855  0.8147 -1.8807
 3914TIP3    H233234   2.863   5.376   0.992  0.3103 -0.5250  0.6392
 3915TIP3   OH233235   4.312   0.644   5.479 -0.4458 -0.3517  0.5812
 3915TIP3    H133236   4.383   0.677   5.423 -1.0859  1.3615  0.7333
 3915TIP3    H233237   4.357   0.615   5.558  0.2549 -0.8830  0.0070
 3916TIP3   OH233238   1.067   0.158   3.856 -0.0935  0.2230  0.3953
 3916TIP3    H133239   1.091   0.165   3.948  0.4698 -1.8131  0.4271
 3916TIP3    H233240   1.150   0.161   3.808 -0.2421 -0.5111  0.0822
 3917TIP3   OH233241   2.013   5.794   2.603 -0.1859 -0.0394 -0.0093
 3917TIP3    H133242   1.953   5.843   2.547  0.4294  1.7369  0.8622
 3917TIP3    H233243   1.965   5.714   2.626 -1.5584  0.5771 -0.6800
 3918TIP3   OH233244   5.279   5.253   3.549 -0.2411  1.3799 -0.1677
 3918TIP3    H133245   5.366   5.221   3.571 -1.2402 -0.9889  0.4764
 3918TIP3    H233246   5.258   5.316   3.617 -0.2794 -0.3813  1.4922
 3919TIP3   OH233247   5.109   6.817   5.719  0.1065 -0.4569 -0.0777
 3919TIP3    H133248   5.161   6.739   5.699  0.0895 -1.0859  2.1390
 3919TIP3    H233249   5.020   6.783   5.733 -0.5498  0.3787 -2.1451
 3920TIP3   OH233250   1.361   3.041  15.751  0.0683  0.2838  0.0707
 3920TIP3    H133251   1.442   3.092  15.759  0.7188 -1.0208  1.9132
 3920TIP3    H233252   1.384   2.953  15.780 -1.6301 -0.5231 -0.9081
 3921TIP3   OH233253   0.533   3.574   1.081  0.1983  0.0632 -0.0705
 3921TIP3    H133254   0.481   3.530   1.014 -0.4612 -0.8087  1.0022
 3921TIP3    H233255   0.602   3.619   1.032 -0.1157 -0.7879 -1.3082
 3922TIP3   OH233256   0.922   1.667  11.129  0.4018 -0.5058 -0.2678
 3922TIP3    H133257   0.902   1.679  11.036 -1.4296  1.1657  0.3232
 3922TIP3    H233258   0.935   1.755  11.163  0.0805 -1.0491  1.2839
 3923TIP3   OH233259   1.600   0.378   1.663 -0.6068  0.4296  0.2948
 3923TIP3    H133260   1.654   0.312   1.707  0.5039  1.3353  0.3254
 3923TIP3    H233261   1.540   0.327   1.609 -1.1623 -0.6602  1.8965
 3924TIP3   OH233262   1.883   0.301   0.359 -0.0525 -0.3757  1.0026
 3924TIP3    H133263   1.947   0.371   0.369 -2.0937  1.5183  1.3111
 3924TIP3    H233264   1.903   0.239   0.429 -0.2770  1.5800  2.8319
 3925TIP3   OH233265   0.411   3.548  10.923  0.4146 -0.6508  0.9020
 3925TIP3    H133266   0.381   3.605  10.852  1.2962 -1.2135  0.0714
 3925TIP3    H233267   0.465   3.605  10.978  0.2773 -0.3841  0.7645
 3926TIP3   OH233268   2.613   2.815   3.129 -0.1868  0.1856 -0.1303
 3926TIP3    H133269   2.654   2.802   3.044 -0.0781  1.7194 -0.3244
 3926TIP3    H233270   2.612   2.910   3.141 -1.7722  0.0645  0.8137
 3927TIP3   OH233271   4.760   3.479  11.221  0.4571  0.0535  0.1090
 3927TIP3    H133272   4.784   3.568  11.249  1.1409  0.2488 -1.0808
 3927TIP3    H233273   4.729   3.490  11.131 -2.3617 -0.4699  0.9683
 3928TIP3   OH233274   4.202   6.656  16.508 -0.1920 -0.3727 -0.2684
 3928TIP3    H133275   4.174   6.648  16.599 -1.7542 -0.6506 -0.7529
 3928TIP3    H233276   4.153   6.731  16.475  0.5635 -0.1165 -0.8222
 3929TIP3   OH233277   2.057   6.011  13.802  1.0650 -0.6028  1.0507
 3929TIP3    H133278   2.044   5.925  13.763  0.7799 -0.1137  0.0427
 3929TIP3    H233279   1.990   6.019  13.869 -0.8202 -0.0051 -0.8485
 3930TIP3   OH233280   6.500   5.647   5.243 -0.0332  1.0070  0.0610
 3930TIP3    H133281   6.518   5.738   5.267  4.0363  0.2756  0.0773
 3930TIP3    H233282   6.532   5.596   5.317 -0.0147 -0.5888 -1.0233
 3931TIP3   OH233283   3.698   6.544   6.090  0.1720  0.5758 -0.6726
 3931TIP3    H133284   3.775   6.499   6.125 -1.4396 -1.8933 -0.1312
 3931TIP3    H233285   3.709   6.635   6.117  0.0241 -0.8306  4.5446
 3932TIP3   OH233286   5.107   1.555   3.586 -0.4275  0.0128 -0.2152
 3932TIP3    H133287   5.030   1.562   3.642  0.0429 -1.2936  0.6210
 3932TIP3    H233288   5.070   1.546   3.497 -1.1915  1.0896 -0.0132
 3933TIP3   OH233289   2.797   4.435  14.118 -0.0195 -0.6785  0.0345
 3933TIP3    H133290   2.880   4.388  14.132  0.9002  0.5447 -1.1323
 3933TIP3    H233291   2.800   4.507  14.181 -0.4702 -0.9909  0.4077
 3934TIP3   OH233292   3.523   2.928  15.690  0.0139  0.4135  0.6295
 3934TIP3    H133293   3.577   2.851  15.677 -1.2739 -0.2453 -0.9793
 3934TIP3    H233294   3.514   2.936  15.785 -0.3956 -1.8208  0.7974
 3935TIP3   OH233295   0.605   6.230   0.015 -0.2428  0.1651  0.1545
 3935TIP3    H133296   0.520   6.194  -0.010 -0.4446  0.2447  0.7176
 3935TIP3    H233297   0.654   6.154   0.046  0.1428  0.0023 -0.8394
 3936TIP3   OH233298   4.157   1.654  11.498  0.1217 -0.2810  0.1593
 3936TIP3    H133299   4.193   1.567  11.517  1.5545  0.3019  0.1142
 3936TIP3    H233300   4.213   1.715  11.546  0.1895  0.7475 -1.1931
 3937TIP3   OH233301   3.780   1.198  11.721 -0.1762  0.0320 -0.1958
 3937TIP3    H133302   3.825   1.280  11.741  3.7919 -2.2967  0.8956
 3937TIP3    H233303   3.777   1.195  11.625  1.3983  0.5994 -0.2794
 3938TIP3   OH233304   4.572   3.136  14.974  0.4200  0.4078  0.3191
 3938TIP3    H133305   4.615   3.137  15.059  3.4216 -0.3909 -1.1096
 3938TIP3    H233306   4.594   3.050  14.938 -0.6609  0.8043 -1.3259
 3939TIP3   OH233307   3.474   4.735  14.423 -0.1753  0.1835 -0.0248
 3939TIP3    H133308   3.422   4.796  14.476 -0.2502 -0.5571  0.7679
 3939TIP3    H233309   3.470   4.771  14.334 -1.5886  0.4287  0.1210
 3940TIP3   OH233310   4.089   1.616  13.347 -0.1882  0.0732 -0.3143
 3940TIP3    H133311   4.007   1.588  13.306 -0.4247  0.3093  0.0012
 3940TIP3    H233312   4.063   1.659  13.428  0.3240 -0.9358  0.3931
 3941TIP3   OH233313   2.027   1.377   0.628 -0.2021 -0.0801  0.2173
 3941TIP3    H133314   1.995   1.325   0.555 -0.6450 -1.9488  1.6967
 3941TIP3    H233315   1.958   1.442   0.642 -2.1927 -2.3888  1.6458
 3942TIP3   OH233316   3.244   1.247   5.501  0.1506 -0.1801  0.3809
 3942TIP3    H133317   3.330   1.235   5.460 -0.2319  0.5448 -0.6438
 3942TIP3    H233318   3.263   1.248   5.595  1.3650  0.6737  0.1443
 3943TIP3   OH233319   2.641   3.626   3.451 -0.0497 -0.1193  0.3352
 3943TIP3    H133320   2.690   3.602   3.373  1.2526  0.0247  1.0841
 3943TIP3    H233321   2.638   3.722   3.449 -1.6876 -0.1709 -0.5239
 3944TIP3   OH233322   0.683   2.950  15.996 -0.5016  0.2364  0.2978
 3944TIP3    H133323   0.735   2.941  15.917 -2.6144  0.4206 -1.1587
 3944TIP3    H233324   0.743   2.988  16.060  1.4748 -0.7416 -0.9380
 3945TIP3   OH233325   4.058   2.705  12.663 -0.0166 -1.0565 -0.0490
 3945TIP3    H133326   4.132   2.706  12.602 -0.3467  1.2415 -0.4413
 3945TIP3    H233327   4.093   2.744  12.743 -0.5849 -0.6783  0.0164
 3946TIP3   OH233328   5.316   1.685   6.233 -0.8541 -0.0730 -0.7958
 3946TIP3    H133329   5.293   1.593   6.243 -0.0571 -0.4199 -2.0288
 3946TIP3    H233330   5.372   1.704   6.308 -0.2906 -0.8379 -1.0151
 3947TIP3   OH233331   1.231   3.671   4.078 -0.0758 -0.0787 -0.3688
 3947TIP3    H133332   1.175   3.596   4.100 -1.1404 -0.0382 -2.7680
 3947TIP3    H233333   1.171   3.745   4.075  0.3118  0.2043 -1.6115
 3948TIP3   OH233334   3.259   2.326  14.292 -0.3457 -0.0226 -0.4656
 3948TIP3    H133335   3.170   2.296  14.275 -0.1577 -1.2815  0.7542
 3948TIP3    H233336   3.265   2.333  14.387  1.1928 -1.0242 -0.4753
 3949TIP3   OH233337   4.860   3.432  12.254 -0.1412 -0.5355  0.9849
 3949TIP3    H133338   4.865   3.348  12.300  0.6624  0.4133  2.6751
 3949TIP3    H233339   4.938   3.434  12.199  0.4601 -0.3887  1.8399
 3950TIP3   OH233340   4.841   0.929   0.725  0.3479  0.6555 -0.4046
 3950TIP3    H133341   4.894   0.919   0.646 -0.6357 -2.1675 -0.7634
 3950TIP3    H233342   4.763   0.876   0.709 -1.2658  2.4238  1.2746
 3951TIP3   OH233343   3.664   4.885  16.515  0.2513  0.4766  0.7658
 3951TIP3    H133344   3.696   4.852  16.431  0.5034 -0.4825  1.2246
 3951TIP3    H233345   3.718   4.962  16.533  0.2304  0.6533  0.0705
 3952TIP3   OH233346   3.415   5.152  17.036  0.2725 -0.6584  0.2267
 3952TIP3    H133347   3.369   5.235  17.025  0.3612 -0.5056  0.9983
 3952TIP3    H233348   3.350   5.086  17.011  0.8229 -0.2968 -2.3234
 3953TIP3   OH233349   5.977   2.166   5.378  0.4792  0.3419  0.3531
 3953TIP3    H133350   6.058   2.127   5.410 -0.7906 -1.4521  1.5155
 3953TIP3    H233351   5.940   2.212   5.453  0.2151  0.7719 -0.0371
 3954TIP3   OH233352   3.149   5.522   2.988  0.0417 -0.0171 -0.1701
 3954TIP3    H133353   3.070   5.562   2.951  1.2828  1.6906 -1.0221
 3954TIP3    H233354   3.117   5.469   3.061 -1.9767  0.0472 -0.9779
 3955TIP3   OH233355   5.206   1.372  13.973 -0.0673 -0.1418  1.1146
 3955TIP3    H133356   5.241   1.298  13.923  0.3913  0.9487 -0.2029
 3955TIP3    H233357   5.132   1.404  13.921  1.2238  1.8307  0.4204
 3956TIP3   OH233358   1.269   4.592   6.462  0.2277  0.5639  0.2381
 3956TIP3    H133359   1.353   4.553   6.436 -0.4492 -0.2984 -0.6910
 3956TIP3    H233360   1.257   4.665   6.402 -0.6807 -0.5966 -1.0247
 3957TIP3   OH233361   5.081   4.854  16.618  0.7766 -0.8778 -0.5487
 3957TIP3    H133362   5.132   4.928  16.584 -0.5111  0.5964  0.6063
 3957TIP3    H233363   5.070   4.874  16.711 -0.5880 -1.9259 -0.4731
 3958TIP3   OH233364   3.976   5.411   0.424  0.0325 -0.1281 -0.0154
 3958TIP3    H133365   4.012   5.492   0.459  0.8439 -0.7806  0.6658
 3958TIP3    H233366   4.024   5.396   0.343 -1.1401  0.8425 -0.9062
 3959TIP3   OH233367   0.175   4.389  15.240 -0.4592  0.3936 -0.3380
 3959TIP3    H133368   0.251   4.421  15.190 -1.3264  0.8874 -1.3495
 3959TIP3    H233369   0.108   4.456  15.227 -1.2838 -0.3461  0.0544
 3960TIP3   OH233370   0.567   2.514  11.252 -0.1979  0.5065 -0.9666
 3960TIP3    H133371   0.517   2.593  11.272  2.1090  1.9199 -0.6362
 3960TIP3    H233372   0.652   2.545  11.222  0.2337 -1.8320 -2.3407
 3961TIP3   OH233373   2.838   6.368   4.913  0.1169  0.4922 -0.3677
 3961TIP3    H133374   2.923   6.353   4.955  0.8067 -1.9793 -2.5223
 3961TIP3    H233375   2.853   6.351   4.820 -2.7883 -0.2965 -0.7682
 3962TIP3   OH233376   6.749   2.734  11.243 -0.3593  0.0004 -0.0450
 3962TIP3    H133377   6.681   2.667  11.240 -0.9266  0.6022 -0.9220
 3962TIP3    H233378   6.707   2.813  11.209  0.1995  0.9126  1.3367
 3963TIP3   OH233379   2.925   5.415  15.622 -0.2956 -0.3341  0.0143
 3963TIP3    H133380   2.975   5.447  15.548 -1.5389  1.4281 -0.0908
 3963TIP3    H233381   2.839   5.395  15.586 -0.4305 -0.9728  0.6797
 3964TIP3   OH233382   2.324   4.646  13.338 -0.0656 -0.4545  0.1882
 3964TIP3    H133383   2.383   4.581  13.374  0.6967  0.0457 -0.1485
 3964TIP3    H233384   2.357   4.730  13.370 -0.1138 -0.1072 -0.6499
 3965TIP3   OH233385   3.462   4.771  15.413 -0.1183 -0.2884  0.1716
 3965TIP3    H133386   3.446   4.680  15.439 -0.4031 -1.0831 -2.6508
 3965TIP3    H233387   3.550   4.769  15.374 -1.2453  0.0295 -2.4888
 3966TIP3   OH233388   3.279   0.945  12.407 -0.3004  0.0090 -0.3956
 3966TIP3    H133389   3.259   0.975  12.318  0.2920  0.6642 -0.3079
 3966TIP3    H233390   3.233   1.006  12.464  0.2823  0.2946 -0.2299
 3967TIP3   OH233391   5.867   5.015  12.695 -0.1345 -0.7496  0.0574
 3967TIP3    H133392   5.957   5.038  12.715 -0.5690  0.9175  0.1923
 3967TIP3    H233393   5.860   4.922  12.716  1.1120 -0.5134  1.5978
 3968TIP3   OH233394   5.712   6.391   2.687  0.5495 -0.0819  0.4856
 3968TIP3    H133395   5.758   6.397   2.604  1.3982 -1.3393  0.8525
 3968TIP3    H233396   5.726   6.475   2.729  1.2822  0.0602 -0.0407
 3969TIP3   OH233397   2.565   3.582  13.601  0.3448 -0.4833 -0.1277
 3969TIP3    H133398   2.656   3.610  13.615  0.4637 -1.9203  2.2134
 3969TIP3    H233399   2.522   3.658  13.561  2.6756  0.0314 -1.7816
 3970TIP3   OH233400   1.189   1.505  14.797  0.1671 -0.3620  0.1581
 3970TIP3    H133401   1.222   1.451  14.868 -0.5658  0.3932  1.0851
 3970TIP3    H233402   1.248   1.488  14.724 -1.8807 -4.8780 -0.6166
 3971TIP3   OH233403   2.509   6.068  10.825  0.0534 -0.3489 -0.9563
 3971TIP3    H133404   2.467   5.993  10.868 -2.7395  2.0978  0.7319
 3971TIP3    H233405   2.488   6.058  10.733 -1.1718 -1.1168 -0.6079
 3972TIP3   OH233406   3.266   0.752   2.681 -0.0084 -0.0790 -0.2385
 3972TIP3    H133407   3.232   0.712   2.601  1.2074  0.8896 -1.2620
 3972TIP3    H233408   3.193   0.804   2.714 -1.4634 -2.7250  0.8747
 3973TIP3   OH233409   1.859   5.595   2.722  0.2414 -0.2021  0.1957
 3973TIP3    H133410   1.776   5.562   2.687 -1.2524  1.3820  2.1876
 3973TIP3    H233411   1.899   5.518   2.763 -1.0437 -0.5911  0.7445
 3974TIP3   OH233412   1.374   5.845   3.475  0.7404 -0.0136 -0.1126
 3974TIP3    H133413   1.330   5.892   3.545  1.4829 -2.4691  2.0756
 3974TIP3    H233414   1.440   5.905   3.442  0.7673  0.9577  1.6821
 3975TIP3   OH233415   1.697   2.113  17.093 -0.0802  0.4126  0.2861
 3975TIP3    H133416   1.773   2.065  17.059 -0.3529 -0.4928  0.9281
 3975TIP3    H233417   1.679   2.179  17.026  1.8665  1.2774  0.5635
 3976TIP3   OH233418   5.826   2.327  11.136 -0.7557  0.6458 -0.3166
 3976TIP3    H133419   5.912   2.324  11.178 -1.4230  1.1260  1.1151
 3976TIP3    H233420   5.845   2.334  11.043  0.7565 -1.4249 -0.2028
 3977TIP3   OH233421   3.637   4.907   3.350 -0.2281  0.1463  0.2296
 3977TIP3    H133422   3.604   4.876   3.434 -1.2124 -1.0090 -0.5571
 3977TIP3    H233423   3.558   4.925   3.298  0.3271 -1.8194 -1.3899
 3978TIP3   OH233424   5.071   2.018  10.966 -0.5577  0.6393  0.3267
 3978TIP3    H133425   5.062   2.011  11.061 -1.0504  0.6195  0.2833
 3978TIP3    H233426   5.085   2.111  10.950  1.7952  0.3473  0.5873
 3979TIP3   OH233427   5.513   2.609   3.228 -0.6036 -0.1679 -0.4556
 3979TIP3    H133428   5.489   2.681   3.286  1.3073  0.5353 -0.4956
 3979TIP3    H233429   5.481   2.636   3.142  1.9250  1.6725 -0.8928
 3980TIP3   OH233430   2.441   1.295  14.977  0.4139  0.7277 -0.6655
 3980TIP3    H133431   2.374   1.252  14.924  0.0473 -0.0572  0.4061
 3980TIP3    H233432   2.426   1.388  14.965 -1.7906  0.5752  0.6794
 3981TIP3   OH233433   5.597   1.223  12.417 -0.3994  0.1548 -0.2103
 3981TIP3    H133434   5.668   1.230  12.354  0.1902 -2.9623  0.0664
 3981TIP3    H233435   5.638   1.244  12.502  0.6149 -3.1034  0.1692
 3982TIP3   OH233436   0.283   4.847   2.220  0.0125  0.1206  0.7084
 3982TIP3    H133437   0.289   4.752   2.212 -2.5368 -0.4147  3.8277
 3982TIP3    H233438   0.241   4.876   2.139 -0.8606 -1.6666  0.4918
 3983TIP3   OH233439   3.808   1.168  12.662  0.2239  0.2379  0.1369
 3983TIP3    H133440   3.841   1.226  12.593  1.0528 -0.9949 -0.5209
 3983TIP3    H233441   3.771   1.094  12.614  0.7735 -0.6105  1.0145
 3984TIP3   OH233442   3.026   6.437  13.282 -0.0404 -0.7028  0.2349
 3984TIP3    H133443   3.113   6.411  13.251 -0.2835  0.7803 -1.7947
 3984TIP3    H233444   3.041   6.519  13.329 -0.4692  0.1812 -1.1330
 3985TIP3   OH233445   5.088   6.196  12.075  0.1704  0.5763  0.1353
 3985TIP3    H133446   5.089   6.142  11.996  0.7056 -0.4131  0.8093
 3985TIP3    H233447   4.996   6.220  12.086 -0.0508 -0.0929 -0.2287
 3986TIP3   OH233448   4.496   0.741  14.325 -0.9653  0.4256 -0.2884
 3986TIP3    H133449   4.432   0.764  14.392 -0.0594 -1.6294  1.2994
 3986TIP3    H233450   4.510   0.647  14.335  0.1077  0.2955 -2.5616
 3987TIP3   OH233451   1.256   4.181  12.493 -0.2561  0.6504 -0.3080
 3987TIP3    H133452   1.256   4.266  12.450 -1.6124  1.2898  0.9248
 3987TIP3    H233453   1.200   4.192  12.570 -0.0810 -1.2222  0.1268
 3988TIP3   OH233454   3.700   4.065   4.301  0.1264 -0.3003 -0.2384
 3988TIP3    H133455   3.772   4.117   4.336 -0.4076  0.1937  0.1366
 3988TIP3    H233456   3.640   4.129   4.263 -1.1663 -0.5148  1.3589
 3989TIP3   OH233457   3.342   2.894  13.467 -0.3669  0.4551  0.0914
 3989TIP3    H133458   3.274   2.960  13.453  1.4347  2.0337 -1.4499
 3989TIP3    H233459   3.414   2.942  13.508  0.0392 -1.0916  1.2216
 3990TIP3   OH233460   1.026   1.156   1.033 -0.4587 -0.1712 -0.0867
 3990TIP3    H133461   0.991   1.203   1.109  1.0710  0.1616  0.4448
 3990TIP3    H233462   1.029   1.065   1.061  0.1277 -0.0455  0.2807
 3991TIP3   OH233463   1.252   3.184   0.415 -0.2069  0.2973 -0.2927
 3991TIP3    H133464   1.303   3.104   0.427 -0.7196 -0.0184 -0.1986
 3991TIP3    H233465   1.300   3.234   0.349  2.1210  1.6033  2.3092
 3992TIP3   OH233466   0.587   5.870   3.502 -0.6902 -0.0874  0.2537
 3992TIP3    H133467   0.629   5.940   3.552  0.8058 -1.3403  0.7925
 3992TIP3    H233468   0.500   5.861   3.540 -1.1229  1.9078 -0.2417
 3993TIP3   OH233469   0.718   4.818   1.116 -0.3047  0.4127 -0.2343
 3993TIP3    H133470   0.769   4.893   1.147 -0.2311  0.5549 -0.7093
 3993TIP3    H233471   0.667   4.851   1.043  0.9574 -0.4053 -1.5073
 3994TIP3   OH233472   5.473   2.124   4.338  0.1660 -0.0957 -0.1233
 3994TIP3    H133473   5.516   2.148   4.256  0.3701 -1.5878 -0.4803
 3994TIP3    H233474   5.506   2.187   4.402  0.7119  0.5148 -0.9966
 3995TIP3   OH233475   3.572   1.172  16.982  0.0461  0.2635  0.2940
 3995TIP3    H133476   3.573   1.078  17.000  0.4951  0.1386 -0.3627
 3995TIP3    H233477   3.499   1.206  17.033 -2.0843 -0.9107 -1.9099
 3996TIP3   OH233478   3.362   2.396   0.225 -0.0890  0.4116  0.1373
 3996TIP3    H133479   3.324   2.458   0.288  0.7880  0.9628  0.1189
 3996TIP3    H233480   3.302   2.399   0.150 -0.2083  1.0257  0.2516
 3997TIP3   OH233481   4.704   1.158  13.062  0.5484  0.2737 -0.8688
 3997TIP3    H133482   4.634   1.193  13.116  0.5838  0.1822 -0.7618
 3997TIP3    H233483   4.738   1.084  13.112  0.1904 -0.1795 -1.2860
 3998TIP3   OH233484   1.548   1.996  15.874 -0.2730  0.0108  0.1179
 3998TIP3    H133485   1.502   1.913  15.863 -0.9720  0.5502 -1.0687
 3998TIP3    H233486   1.529   2.045  15.794 -1.1953  1.9495  1.4791
 3999TIP3   OH233487   3.285   2.286  11.406  0.6351 -0.2872 -0.1004
 3999TIP3    H133488   3.242   2.266  11.489  1.0047 -0.9873 -0.0727
 3999TIP3    H233489   3.318   2.376  11.417 -0.5671  0.1516 -0.0304
 4000TIP3   OH233490   0.427   4.263   2.643  0.1651  0.9829 -0.5679
 4000TIP3    H133491   0.502   4.320   2.624  1.1020 -0.3837 -0.9916
 4000TIP3    H233492   0.447   4.181   2.598 -0.7282 -0.0081  0.8154
 4001TIP3   OH233493   4.559   4.852   3.077  0.2615 -0.0714  0.0696
 4001TIP3    H133494   4.486   4.907   3.105  0.0350  0.4452 -1.4879
 4001TIP3    H233495   4.519   4.766   3.062  0.2334 -0.1394  0.5281
 4002TIP3   OH233496   5.779   4.239   5.714  0.3581 -0.8480 -0.0223
 4002TIP3    H133497   5.700   4.189   5.733 -0.5366 -0.0266 -1.5477
 4002TIP3    H233498   5.850   4.175   5.723 -0.4588 -1.5873  1.3755
 4003TIP3   OH233499   5.793   2.542   3.380 -0.5131 -0.5455  0.3542
 4003TIP3    H133500   5.701   2.553   3.359 -0.7368 -0.4293  1.3323
 4003TIP3    H233501   5.803   2.587   3.464  0.7676  0.7928 -0.4944
 4004TIP3   OH233502   5.330   3.442   2.825  0.3866  0.2124  0.4156
 4004TIP3    H133503   5.344   3.536   2.823 -3.1712  0.7776 -0.0935
 4004TIP3    H233504   5.332   3.419   2.918 -2.2819  1.3864  0.7905
 4005TIP3   OH233505   2.602   3.423   0.890  0.3332 -0.4041 -0.2300
 4005TIP3    H133506   2.616   3.517   0.888 -0.7509 -0.2649 -2.0148
 4005TIP3    H233507   2.556   3.407   0.972 -0.2119  0.7174 -0.3204
 4006TIP3   OH233508   4.170   1.985  10.980  0.0576 -0.6165 -0.2460
 4006TIP3    H133509   4.192   1.891  10.983 -1.4600 -0.9676  0.4711
 4006TIP3    H233510   4.083   1.990  11.020  0.7165  1.2818  1.0285
 4007TIP3   OH233511   6.090   4.772   5.204 -0.6195 -0.0343  0.2746
 4007TIP3    H133512   6.168   4.827   5.211 -2.5737  3.0868 -1.5024
 4007TIP3    H233513   6.036   4.797   5.279 -1.1078 -0.1794 -0.0274
 4008TIP3   OH233514   0.894   2.005   5.147  0.0741 -0.1007 -0.5256
 4008TIP3    H133515   0.810   2.001   5.101  0.3235  0.6283 -1.0504
 4008TIP3    H233516   0.913   1.914   5.171 -0.5233 -0.3557 -1.0158
 4009TIP3   OH233517   5.961   4.314   2.512  0.5347  0.3386  0.6122
 4009TIP3    H133518   5.981   4.306   2.605  0.5541  1.1614  0.6829
 4009TIP3    H233519   5.867   4.299   2.506  0.2234  1.9836  0.9998
 4010TIP3   OH233520   2.884   1.048  11.274  0.2138  0.1834 -0.1179
 4010TIP3    H133521   2.800   1.035  11.318  0.9793 -0.1851  1.2421
 4010TIP3    H233522   2.863   1.106  11.200 -1.1233  0.5690  0.5499
 4011TIP3   OH233523   6.186   4.844  11.600  0.0148 -0.6058 -0.4678
 4011TIP3    H133524   6.126   4.794  11.544 -1.1015 -0.2911  0.4263
 4011TIP3    H233525   6.129   4.900  11.652  1.0145 -1.0580  1.1571
 4012TIP3   OH233526   6.445   6.489   2.185 -0.3667  0.9987  0.3433
 4012TIP3    H133527   6.471   6.570   2.229 -2.8358  1.9201  0.2148
 4012TIP3    H233528   6.398   6.518   2.107  0.9422 -0.5985 -1.0768
 4013TIP3   OH233529   2.406   2.784   5.011 -0.0593  0.3470 -0.0363
 4013TIP3    H133530   2.398   2.696   4.973 -1.5917  0.1311  0.7366
 4013TIP3    H233531   2.328   2.794   5.065  0.4733  1.9095  0.4800
 4014TIP3   OH233532   3.684   2.681  14.086 -0.2737  0.3687 -0.4856
 4014TIP3    H133533   3.658   2.599  14.044 -0.7901  0.0067  0.5300
 4014TIP3    H233534   3.731   2.729  14.018  0.8519 -1.1709 -0.8313
 4015TIP3   OH233535   6.446   5.149   2.596 -0.6092  0.0161 -0.4985
 4015TIP3    H133536   6.491   5.068   2.571 -0.2511  0.3711 -1.0159
 4015TIP3    H233537   6.354   5.124   2.607 -0.7107 -0.2274 -1.8169
 4016TIP3   OH233538   1.368   6.016  15.779  0.5172  0.3470 -0.4151
 4016TIP3    H133539   1.326   6.037  15.695 -1.1553 -0.7512  0.1260
 4016TIP3    H233540   1.412   6.097  15.804 -1.8034  1.7446 -0.7154
 4017TIP3   OH233541   0.875   3.114   6.191 -0.1477  0.3523 -0.4077
 4017TIP3    H133542   0.790   3.090   6.228  0.2992  0.2346  0.5602
 4017TIP3    H233543   0.916   3.169   6.258  0.4866  0.5158 -0.9209
 4018TIP3   OH233544   5.473   3.069  10.618  0.4306  0.1227 -0.0107
 4018TIP3    H133545   5.422   2.989  10.602 -0.1632  0.2420  1.2452
 4018TIP3    H233546   5.435   3.133  10.559 -0.1870 -0.0797  0.1589
 4019TIP3   OH233547   1.587   2.503  15.823 -0.0003  0.6684 -0.2982
 4019TIP3    H133548   1.579   2.552  15.904 -0.5982 -0.5212  0.3766
 4019TIP3    H233549   1.511   2.444  15.823  0.3206  0.2349 -1.4273
 4020TIP3   OH233550   5.922   5.078  11.458 -0.5076  0.6085 -0.3010
 4020TIP3    H133551   5.939   5.063  11.551 -0.7483  1.6178 -0.0963
 4020TIP3    H233552   6.005   5.055  11.415 -1.1656 -2.3260 -0.1171
 4021TIP3   OH233553   2.960   3.454   4.669  0.1669 -0.4330  0.1417
 4021TIP3    H133554   3.053   3.456   4.694  0.0165  1.3149  0.5858
 4021TIP3    H233555   2.958   3.491   4.581 -0.0927 -0.7660  0.0040
 4022TIP3   OH233556   3.275   1.144   1.024 -0.7098  0.3491 -0.4452
 4022TIP3    H133557   3.342   1.197   0.982 -1.4182  1.4759 -0.1757
 4022TIP3    H233558   3.247   1.196   1.099 -1.1192 -0.5924  0.0568
 4023TIP3   OH233559   4.811   4.972  12.299  0.3847 -0.0384  0.0505
 4023TIP3    H133560   4.776   4.909  12.237  0.6963 -1.1536  0.9864
 4023TIP3    H233561   4.906   4.962  12.291  0.4242 -0.3312  0.8353
 4024TIP3   OH233562   4.838   0.606  15.290  0.1044  0.7011  0.4444
 4024TIP3    H133563   4.756   0.594  15.337  1.3280  0.4292  2.5582
 4024TIP3    H233564   4.845   0.700  15.277 -0.1045  0.8017  1.0502
 4025TIP3   OH233565   4.651   3.862   0.830 -0.6087  0.2648  0.5362
 4025TIP3    H133566   4.601   3.800   0.884  0.8478 -0.8919  0.6161
 4025TIP3    H233567   4.743   3.841   0.850 -0.0488  0.1302 -2.0474
 4026TIP3   OH233568   6.491   0.991  17.099 -0.6259 -0.1472  0.0668
 4026TIP3    H133569   6.466   0.899  17.104  0.3139 -0.3292  2.4357
 4026TIP3    H233570   6.563   0.993  17.036  0.1501 -1.2335  0.9088
 4027TIP3   OH233571   3.661   4.345  13.735  0.3198  0.1100  0.3537
 4027TIP3    H133572   3.590   4.382  13.683 -0.4647 -0.1944  1.1891
 4027TIP3    H233573   3.639   4.366  13.826  1.4226  0.2208  0.6043
 4028TIP3   OH233574   6.777   5.527   0.161 -0.5911 -0.1081 -0.3267
 4028TIP3    H133575   6.833   5.586   0.110 -0.1429 -0.6205 -0.4338
 4028TIP3    H233576   6.707   5.583   0.194  1.2289  1.0224  1.7204
 4029TIP3   OH233577   2.188   2.292  16.556  0.2438  0.0769  0.1007
 4029TIP3    H133578   2.176   2.225  16.623 -2.1926 -0.0513 -0.4354
 4029TIP3    H233579   2.185   2.245  16.473  2.5901  0.3308 -0.1694
 4030TIP3   OH233580   0.849   4.726   0.148  0.1756 -0.3038 -0.2712
 4030TIP3    H133581   0.813   4.696   0.232  2.0305  0.7446  0.9256
 4030TIP3    H233582   0.775   4.768   0.104 -1.6238 -3.5635 -0.5362
 4031TIP3   OH233583   4.768   5.450  16.530  0.1740  0.5789 -0.3316
 4031TIP3    H133584   4.775   5.355  16.544 -2.6839 -0.7889 -6.2402
 4031TIP3    H233585   4.673   5.466  16.529  0.6282  3.5125  0.4056
 4032TIP3   OH233586   5.453   0.181  16.288 -0.2229 -0.7300  0.4202
 4032TIP3    H133587   5.398   0.240  16.340 -0.9298  0.1738 -1.3136
 4032TIP3    H233588   5.428   0.094  16.316 -0.0404 -0.2472  2.1473
 4033TIP3   OH233589   4.879   1.826   5.777 -0.6114  0.1627 -0.7324
 4033TIP3    H133590   4.922   1.742   5.797  0.0597  1.0083  1.5945
 4033TIP3    H233591   4.798   1.824   5.827 -0.5003  0.9763 -0.5104
 4034TIP3   OH233592   3.480   0.373  11.457  0.2113 -0.1002  0.7049
 4034TIP3    H133593   3.454   0.457  11.493 -0.7385  0.3982 -1.0559
 4034TIP3    H233594   3.576   0.373  11.460  0.1835  0.6593  1.5467
 4035TIP3   OH233595   3.141   0.584   2.177  0.2201  0.2690 -0.7214
 4035TIP3    H133596   3.149   0.564   2.083 -0.9447  0.6572 -0.9157
 4035TIP3    H233597   3.139   0.680   2.181  0.9261  0.2610 -0.2408
 4036TIP3   OH233598   4.334   3.279   1.114  0.7086 -0.4219 -0.1928
 4036TIP3    H133599   4.247   3.259   1.148 -0.7091  0.3561 -3.1129
 4036TIP3    H233600   4.379   3.323   1.185 -1.1509 -1.1972  1.5037
 4037TIP3   OH233601   0.823   5.951  12.447 -0.1074 -0.1872 -0.0505
 4037TIP3    H133602   0.738   5.921  12.479  0.8967 -1.9535  1.0350
 4037TIP3    H233603   0.861   5.997  12.522  0.8692 -1.4605  0.2464
 4038TIP3   OH233604   4.581   2.638  15.036  0.1990 -0.5008 -0.0503
 4038TIP3    H133605   4.619   2.579  15.101  2.7839  1.3739  0.2118
 4038TIP3    H233606   4.630   2.620  14.956  0.7866  1.0302 -0.0542
 4039TIP3   OH233607   5.636   4.136  11.301 -0.3438  0.5051 -0.4449
 4039TIP3    H133608   5.597   4.115  11.386 -0.7548 -1.2420 -1.0375
 4039TIP3    H233609   5.730   4.130  11.315 -0.4310 -0.5191 -0.2925
 4040TIP3   OH233610   0.147   4.175  13.102 -0.4651 -0.2125  0.1584
 4040TIP3    H133611   0.056   4.156  13.081  0.3355 -1.8386 -2.0655
 4040TIP3    H233612   0.179   4.094  13.141  0.3327 -0.0567 -0.1626
 4041TIP3   OH233613   5.618   0.656  14.692  0.5241 -0.0384  0.6235
 4041TIP3    H133614   5.581   0.730  14.740  0.0837 -0.8774  1.6020
 4041TIP3    H233615   5.551   0.632  14.628  0.5609  0.2483  0.4800
 4042TIP3   OH233616   2.348   3.854   3.196  0.5385 -0.1002  0.4682
 4042TIP3    H133617   2.334   3.902   3.278  0.9462 -0.7590  0.9228
 4042TIP3    H233618   2.323   3.917   3.127 -1.1736 -0.0371  1.1276
 4043TIP3   OH233619   3.190   2.309   3.772  0.0994 -0.0472  0.5805
 4043TIP3    H133620   3.231   2.372   3.713 -0.6649  0.5094  0.6470
 4043TIP3    H233621   3.136   2.362   3.830 -0.2322 -0.7292  0.8970
 4044TIP3   OH233622   2.484   6.172   3.388 -0.6590 -0.1277  0.0281
 4044TIP3    H133623   2.531   6.138   3.464 -0.3285 -0.2262 -0.2177
 4044TIP3    H233624   2.490   6.267   3.396 -1.0799 -0.1329  0.4059
 4045TIP3   OH233625   3.963   0.028  12.049 -0.2235  0.2951  0.3867
 4045TIP3    H133626   4.015  -0.038  12.095 -0.9901 -0.9178 -0.4445
 4045TIP3    H233627   3.873  -0.005  12.054 -0.9151  2.2786  1.6535
 4046TIP3   OH233628   2.296   4.946  16.866 -0.1963 -0.3782  0.4994
 4046TIP3    H133629   2.336   4.863  16.844  0.1217  0.0125 -0.4125
 4046TIP3    H233630   2.359   4.989  16.924  0.7054  0.2393 -0.9369
 4047TIP3   OH233631   5.024   1.395  16.681 -0.2286 -0.3739  0.3118
 4047TIP3    H133632   4.986   1.318  16.722  2.3969 -0.9163  1.8484
 4047TIP3    H233633   4.966   1.415  16.608 -1.3330 -3.3547  0.3302
 4048TIP3   OH233634   4.428   3.283  10.870  0.3117  0.4548  0.0899
 4048TIP3    H133635   4.400   3.297  10.780 -0.6048 -0.9009  0.1351
 4048TIP3    H233636   4.485   3.206  10.866 -0.6540 -0.3202  0.8066
 4049TIP3   OH233637   2.245   5.015   4.130  0.5702 -0.7173  0.3138
 4049TIP3    H133638   2.224   4.930   4.091  0.9098 -0.1732 -1.0785
 4049TIP3    H233639   2.297   5.059   4.064  1.8479 -0.0781  1.7135
 4050TIP3   OH233640   1.503   0.118   3.935 -0.2780  0.5641 -0.0660
 4050TIP3    H133641   1.432   0.103   3.997  0.5430 -1.3313  0.4700
 4050TIP3    H233642   1.467   0.090   3.851  0.0439 -1.0787  0.3250
 4051TIP3   OH233643   1.164   1.504   6.165  0.1651  0.4096  0.4646
 4051TIP3    H133644   1.074   1.508   6.133 -0.5989  1.4268  2.6121
 4051TIP3    H233645   1.206   1.581   6.128  0.2995 -0.2951 -0.8905
 4052TIP3   OH233646   6.782   0.929   4.160 -0.3645 -0.1529  0.4084
 4052TIP3    H133647   6.836   0.889   4.092 -1.4227  1.1829 -1.2520
 4052TIP3    H233648   6.815   1.019   4.167 -1.7703  0.4025  0.0178
 4053TIP3   OH233649   1.224   5.196  16.598 -0.0966  0.1117 -0.3505
 4053TIP3    H133650   1.156   5.236  16.545 -0.3171  1.4534  0.9169
 4053TIP3    H233651   1.266   5.269  16.643  0.2799 -0.9653  1.0846
 4054TIP3   OH233652   2.231   5.719   2.414 -0.0312  1.2081 -0.1551
 4054TIP3    H133653   2.281   5.641   2.391  0.1080  1.1790  0.2418
 4054TIP3    H233654   2.149   5.710   2.366  0.4860  1.4289 -1.0937
 4055TIP3   OH233655   5.469   1.556   5.890 -0.2994 -0.9626 -0.0963
 4055TIP3    H133656   5.515   1.492   5.944  0.8737  0.7866  0.9960
 4055TIP3    H233657   5.537   1.616   5.860 -1.5651  0.4501 -0.1641
 4056TIP3   OH233658   4.331   3.868  12.286 -0.2826 -0.5330  0.0891
 4056TIP3    H133659   4.365   3.856  12.197  1.6644 -0.7785  0.8274
 4056TIP3    H233660   4.255   3.810  12.290  0.0368 -1.0737 -1.1945
 4057TIP3   OH233661   0.321   3.720   5.497 -0.4425 -0.4704  0.1201
 4057TIP3    H133662   0.364   3.770   5.567  1.6349 -0.9420 -0.7884
 4057TIP3    H233663   0.231   3.755   5.495  0.4938  2.0991  0.6002
 4058TIP3   OH233664   1.768   3.731   4.693  0.1812 -0.4058 -0.1384
 4058TIP3    H133665   1.842   3.777   4.653  1.2026 -0.8806  1.1777
 4058TIP3    H233666   1.732   3.794   4.755  0.9913 -1.0050  0.9703
 4059TIP3   OH233667   0.121   0.903   1.892 -0.1445 -0.3739 -0.1149
 4059TIP3    H133668   0.176   0.907   1.814  0.7002 -2.0873  0.3608
 4059TIP3    H233669   0.171   0.948   1.960 -0.1516 -0.3028 -0.1575
 4060TIP3   OH233670   5.440   6.145   1.809  0.0187  0.8052  0.1339
 4060TIP3    H133671   5.416   6.197   1.885  0.2799  1.2188 -0.0642
 4060TIP3    H233672   5.518   6.187   1.774 -0.2792  0.8091 -0.5513
 4061TIP3   OH233673   2.861   3.436   6.317  0.2628 -0.1179  0.4810
 4061TIP3    H133674   2.850   3.524   6.353 -2.2849 -1.1305  2.3157
 4061TIP3    H233675   2.821   3.441   6.230  0.2264  0.5458  0.5283
 4062TIP3   OH233676   3.204   4.726   2.735 -0.3926  0.1286 -0.4760
 4062TIP3    H133677   3.153   4.805   2.751 -0.2624  0.2622 -0.7276
 4062TIP3    H233678   3.282   4.756   2.688  0.3888  0.0627  0.7394
 4063TIP3   OH233679   2.162   3.210  13.615 -0.6225  0.1862 -0.2913
 4063TIP3    H133680   2.146   3.237  13.705 -0.9596 -0.1076 -0.2621
 4063TIP3    H233681   2.234   3.266  13.585 -1.7053  1.5084 -0.4261
 4064TIP3   OH233682   3.442   2.678  13.739 -0.7172 -0.1593 -0.2074
 4064TIP3    H133683   3.490   2.609  13.784  2.8131  2.8121  0.7976
 4064TIP3    H233684   3.463   2.666  13.647  0.0699 -0.2856 -0.0129
 4065TIP3   OH233685   3.623   5.929  11.509  0.6159 -0.0178  0.3490
 4065TIP3    H133686   3.539   5.970  11.489 -0.3094 -1.6228  0.8766
 4065TIP3    H233687   3.677   5.945  11.431 -0.5058  0.1422 -0.3991
 4066TIP3   OH233688   1.667   5.549  13.055  0.2576 -0.4441  0.4792
 4066TIP3    H133689   1.732   5.591  12.999 -0.1885  0.3646  0.5712
 4066TIP3    H233690   1.606   5.619  13.078 -0.7100 -1.2198  0.3069
 4067TIP3   OH233691   5.724   1.447   3.712  0.3448  0.3292 -0.2935
 4067TIP3    H133692   5.666   1.483   3.645 -0.8076 -1.2837 -0.2150
 4067TIP3    H233693   5.803   1.420   3.665  0.0126  0.2737 -0.8164
 4068TIP3   OH233694   3.676   3.064   2.465  0.0390  0.6543 -0.0159
 4068TIP3    H133695   3.730   3.073   2.543  0.3678  1.0044 -0.2799
 4068TIP3    H233696   3.739   3.062   2.393 -0.1541 -1.4033 -0.1595
 4069TIP3   OH233697   3.430   1.045   0.635 -0.1947  0.3201 -0.4238
 4069TIP3    H133698   3.432   1.135   0.667 -0.6543  0.2971 -0.3220
 4069TIP3    H233699   3.497   1.043   0.566  0.1040  0.6292 -0.1472
 4070TIP3   OH233700   6.496   1.210  13.183 -0.1401  0.3025  0.1550
 4070TIP3    H133701   6.452   1.209  13.098  0.0940  0.3339  0.0320
 4070TIP3    H233702   6.570   1.150  13.173  0.9501  1.6873 -0.2396
 4071TIP3   OH233703   5.199   5.448  12.587  0.5932  0.3852 -0.0471
 4071TIP3    H133704   5.256   5.373  12.602  0.8133  0.3803 -0.8646
 4071TIP3    H233705   5.247   5.523  12.623  0.3350  0.1335  0.8465
 4072TIP3   OH233706   5.521   0.935  17.272  0.0820  0.0709 -0.1904
 4072TIP3    H133707   5.596   0.978  17.315 -0.0093  1.6472 -1.5654
 4072TIP3    H233708   5.517   0.848  17.313  1.0125  0.9279  1.7950
 4073TIP3   OH233709   4.019   1.775   5.851 -0.0762  0.0129 -0.1235
 4073TIP3    H133710   3.950   1.810   5.794 -0.0737 -0.3449 -0.3413
 4073TIP3    H233711   3.971   1.735   5.923 -0.1235 -1.1599 -0.7998
 4074TIP3   OH233712   4.000   1.884  14.162 -0.2704  0.4188 -0.1779
 4074TIP3    H133713   3.940   1.891  14.088  0.6253  0.4396 -0.9108
 4074TIP3    H233714   3.943   1.879  14.239 -1.2994 -2.1638 -1.0535
 4075TIP3   OH233715   1.149   6.094   4.977  0.5294 -0.9875 -0.0685
 4075TIP3    H133716   1.079   6.033   5.001  0.6251 -1.1509 -0.2051
 4075TIP3    H233717   1.205   6.044   4.918  0.1806 -0.5218 -0.8073
 4076TIP3   OH233718   6.650   4.803  11.366 -0.1362  0.0678  0.1369
 4076TIP3    H133719   6.673   4.846  11.449  1.1766  1.9966 -1.2004
 4076TIP3    H233720   6.598   4.867  11.319  0.7193 -0.2845 -1.3284
 4077TIP3   OH233721   0.539   4.757   4.166 -0.6047  0.2252 -0.3068
 4077TIP3    H133722   0.609   4.822   4.161 -0.5679  0.3065  1.0619
 4077TIP3    H233723   0.530   4.724   4.077  1.9025 -0.5472 -0.3035
 4078TIP3   OH233724   1.195   2.519   0.116  0.9529 -0.4910 -0.4939
 4078TIP3    H133725   1.235   2.449   0.168  0.1060 -0.4263  0.2525
 4078TIP3    H233726   1.244   2.598   0.140 -1.2648  0.0880  2.4063
 4079TIP3   OH233727   5.310   3.326  11.598 -0.0733 -0.7211 -0.0409
 4079TIP3    H133728   5.349   3.268  11.532 -2.7405 -1.6858 -0.8189
 4079TIP3    H233729   5.282   3.267  11.668 -1.9509 -0.2930 -0.4120
 4080TIP3   OH233730   0.229   6.579   0.209 -0.0864  0.5189  0.3230
 4080TIP3    H133731   0.245   6.672   0.192 -0.2072  0.1633 -1.8289
 4080TIP3    H233732   0.203   6.543   0.124 -1.0525 -1.2766  1.3500
 4081TIP3   OH233733   4.866   0.581   4.304 -0.2563 -0.0009  0.2877
 4081TIP3    H133734   4.778   0.560   4.334 -0.5888  1.3990  0.3025
 4081TIP3    H233735   4.894   0.503   4.255 -0.8659 -1.0950  1.6410
 4082TIP3   OH233736   6.348   4.591   5.790 -0.1761 -0.4406 -0.1915
 4082TIP3    H133737   6.334   4.651   5.717  0.4313 -0.8545 -0.6594
 4082TIP3    H233738   6.328   4.504   5.753 -0.5782 -0.5752  0.3396
 4083TIP3   OH233739   4.028   5.590  13.448 -0.1808 -0.7956 -0.8265
 4083TIP3    H133740   3.954   5.555  13.498 -0.3551 -0.5058 -0.8755
 4083TIP3    H233741   4.068   5.654  13.507  0.2349 -1.2002 -0.6718
 4084TIP3   OH233742   0.778   0.390  15.632  0.2787 -0.2595  0.1271
 4084TIP3    H133743   0.850   0.451  15.617 -0.0336  0.0567 -0.1147
 4084TIP3    H233744   0.731   0.427  15.706 -0.0156 -0.1022 -0.1338
 4085TIP3   OH233745   1.467   1.293  15.884  0.6286  0.4612  0.0337
 4085TIP3    H133746   1.477   1.358  15.815  0.2458  1.1244  0.5926
 4085TIP3    H233747   1.488   1.209  15.842  3.6700  1.2005 -0.0623
 4086TIP3   OH233748   5.172   1.915  15.623  0.5921  0.3422 -0.4957
 4086TIP3    H133749   5.139   1.828  15.601  0.6058  0.1451  0.2506
 4086TIP3    H233750   5.265   1.902  15.640  0.0132 -0.0859  2.6843
 4087TIP3   OH233751   4.426   3.811   0.470 -0.2700  0.1284 -0.3845
 4087TIP3    H133752   4.452   3.832   0.381  2.0513 -1.8338 -0.2290
 4087TIP3    H233753   4.461   3.723   0.485 -1.7828 -0.1122  2.0016
 4088TIP3   OH233754   1.315   2.631   3.118 -0.7163  0.0890  0.1702
 4088TIP3    H133755   1.409   2.640   3.100 -0.8978  0.1829 -0.7690
 4088TIP3    H233756   1.294   2.541   3.092 -1.3619  0.8084 -1.8801
 4089TIP3   OH233757   1.705   3.919   2.891  0.2289  0.0736  0.0182
 4089TIP3    H133758   1.796   3.891   2.881 -0.1521 -1.4236  0.5146
 4089TIP3    H233759   1.707   3.985   2.959  0.6251 -1.8229  1.8979
 4090TIP3   OH233760   4.697   3.460   4.609 -0.4523 -0.2533 -0.8221
 4090TIP3    H133761   4.681   3.369   4.631  0.8335 -0.5799 -1.2459
 4090TIP3    H233762   4.789   3.464   4.585 -0.1411  1.4206  0.5474
 4091TIP3   OH233763   0.934   1.302   6.675  0.2036  0.2627  0.2866
 4091TIP3    H133764   0.996   1.371   6.650 -1.6590  1.4801 -1.0822
 4091TIP3    H233765   0.851   1.347   6.686 -1.3226 -1.9148 -1.7755
 4092TIP3   OH233766   5.703   5.203   2.554 -0.7740  0.6927  0.4368
 4092TIP3    H133767   5.627   5.261   2.546 -0.0357  1.9410  2.2383
 4092TIP3    H233768   5.674   5.133   2.612 -1.1376  0.1408 -0.4019
 4093TIP3   OH233769   1.908   0.412   3.991 -0.6411  0.0636  0.2347
 4093TIP3    H133770   1.973   0.383   4.055 -0.7612  0.0719  0.3605
 4093TIP3    H233771   1.824   0.400   4.035 -0.7840 -0.7598 -0.2398
 4094TIP3   OH233772   0.751   2.812  17.127 -0.3326  0.1591 -0.2394
 4094TIP3    H133773   0.719   2.741  17.183  0.2288  0.5394  0.5781
 4094TIP3    H233774   0.752   2.775  17.039  0.9523 -1.1900  0.3301
 4095TIP3   OH233775   0.428   2.818  11.272  0.1499  0.1920 -0.2186
 4095TIP3    H133776   0.350   2.873  11.275 -0.9184 -1.2997 -0.5159
 4095TIP3    H233777   0.422   2.764  11.351  0.8947  0.0742 -0.2389
 4096TIP3   OH233778   1.153   1.045   3.853  0.4013 -0.0142  0.2954
 4096TIP3    H133779   1.077   1.065   3.798  0.1099  1.1359  1.0828
 4096TIP3    H233780   1.188   0.963   3.817 -1.9869 -1.2821  0.7210
 4097TIP3   OH233781   2.162   4.132   6.150  0.6081  0.4831  0.6258
 4097TIP3    H133782   2.248   4.142   6.110 -0.3086  2.4974 -0.9152
 4097TIP3    H233783   2.131   4.221   6.166 -1.8135 -0.1427 -0.2436
 4098TIP3   OH233784   2.752   3.690  12.528 -0.4911 -0.2926 -0.2305
 4098TIP3    H133785   2.803   3.763  12.564 -1.4685 -0.3005  1.2280
 4098TIP3    H233786   2.814   3.618  12.521 -0.2592 -0.2708  1.4259
 4099TIP3   OH233787   3.652   3.921   5.113  0.4666 -0.2864 -0.2567
 4099TIP3    H133788   3.632   3.926   5.019 -0.7860  2.2146  0.1031
 4099TIP3    H233789   3.711   3.994   5.128  0.6927 -0.7122  0.9253
 4100TIP3   OH233790   2.499   0.656  17.152  0.5338 -0.2751 -0.0965
 4100TIP3    H133791   2.404   0.667  17.157  0.3302 -1.5051 -1.1312
 4100TIP3    H233792   2.515   0.621  17.065  2.1056  1.3911 -0.5167
 4101TIP3   OH233793   0.019   4.894   2.653  0.1202  0.1574  0.0254
 4101TIP3    H133794   0.017   4.924   2.562 -0.2366  0.3311  0.0872
 4101TIP3    H233795   0.111   4.901   2.679  0.5873 -2.0672 -1.0186
 4102TIP3   OH233796   4.434   5.412   0.124  0.2782  0.2925  0.1545
 4102TIP3    H133797   4.422   5.383   0.033  0.4574  1.0050 -0.1043
 4102TIP3    H233798   4.408   5.337   0.177 -1.1033  0.3182 -0.4652
 4103TIP3   OH233799   2.851   0.653  12.810  0.0230  0.3771  0.0420
 4103TIP3    H133800   2.908   0.727  12.790 -1.8515  2.1348  0.9072
 4103TIP3    H233801   2.892   0.578  12.768  1.3792  2.1329 -1.8592
 4104TIP3   OH233802   6.461   5.051   3.611 -0.0160  0.5134  0.8365
 4104TIP3    H133803   6.543   5.017   3.574 -0.6785 -2.6526  2.1290
 4104TIP3    H233804   6.393   4.996   3.573 -1.2888  1.3659  1.8495
 4105TIP3   OH233805   0.499   5.054  15.816 -0.0239 -0.3415 -0.3562
 4105TIP3    H133806   0.484   5.148  15.810  0.3396 -0.3276 -1.0857
 4105TIP3    H233807   0.590   5.042  15.788 -0.2679 -0.9817 -0.9082
 4106TIP3   OH233808   3.945   5.635  15.787  0.0011  0.3067 -0.1541
 4106TIP3    H133809   3.981   5.674  15.867  0.8049 -2.2076  0.7544
 4106TIP3    H233810   4.018   5.633  15.726 -0.2969  1.0932 -0.5467
 4107TIP3   OH233811   5.928   1.896   2.432  0.1608 -0.4060  0.0040
 4107TIP3    H133812   5.903   1.948   2.509 -0.4606  1.3846 -1.3704
 4107TIP3    H233813   5.879   1.815   2.441 -0.0057 -0.1585  1.4399
 4108TIP3   OH233814   3.727   1.431   1.288  0.0964  0.1896  0.3314
 4108TIP3    H133815   3.785   1.395   1.354  0.0705 -0.7023 -0.1189
 4108TIP3    H233816   3.773   1.507   1.253  0.5035  0.1288  0.7372
 4109TIP3   OH233817   0.554   2.790  12.496  0.0399  0.1078  0.4622
 4109TIP3    H133818   0.648   2.803  12.504 -0.1027  0.6043  1.4568
 4109TIP3    H233819   0.517   2.837  12.571 -0.9609 -0.5426  0.3888
 4110TIP3   OH233820   5.015   6.530  16.139 -0.4186 -0.2630 -0.5415
 4110TIP3    H133821   4.981   6.471  16.206 -1.6407  1.6210  0.5386
 4110TIP3    H233822   5.026   6.614  16.183  1.0841  0.4096 -2.1008
 4111TIP3   OH233823   3.947   1.965   1.648  0.2811  0.0626  0.5369
 4111TIP3    H133824   3.869   1.982   1.595  0.9270 -1.4770 -0.9415
 4111TIP3    H233825   3.957   1.870   1.647  2.9341  0.2991 -0.4304
 4112TIP3   OH233826   4.087   3.131  10.960  0.0084  0.6129 -0.0771
 4112TIP3    H133827   4.069   3.037  10.961  1.3515  0.3458 -0.1653
 4112TIP3    H233828   4.007   3.170  10.924 -0.5269 -0.4953 -0.1235
 4113TIP3   OH233829   2.849   4.085   4.045  0.2147 -0.1677 -0.0245
 4113TIP3    H133830   2.786   4.095   3.974  1.5140 -2.1824 -1.5345
 4113TIP3    H233831   2.795   4.070   4.123 -1.2190 -2.2642 -1.3510
 4114TIP3   OH233832   4.492   5.532   5.061  0.4691 -0.0004  0.3704
 4114TIP3    H133833   4.443   5.499   5.137 -1.5245  0.5336 -0.6469
 4114TIP3    H233834   4.582   5.502   5.076 -0.0959 -0.7887  2.4225
 4115TIP3   OH233835   4.256   2.047  12.806  0.0633 -0.5174  0.0326
 4115TIP3    H133836   4.204   2.095  12.871  1.3919  0.3009  0.5120
 4115TIP3    H233837   4.309   1.986  12.858 -0.5436 -1.4929 -0.4690
 4116TIP3   OH233838   4.119   0.404   4.505  0.0448 -0.1375 -0.1426
 4116TIP3    H133839   4.133   0.314   4.536  0.2690 -0.1211 -0.1944
 4116TIP3    H233840   4.066   0.394   4.426  1.9378 -0.3715 -1.4080
 4117TIP3   OH233841   5.089   5.858  13.582  0.6157 -0.5430  0.2253
 4117TIP3    H133842   5.023   5.794  13.608 -0.0025  0.0689  0.2002
 4117TIP3    H233843   5.153   5.857  13.652  0.3662 -0.8584  0.4492
 4118TIP3   OH233844   6.712   0.511  11.963 -0.0579  0.2680  0.1293
 4118TIP3    H133845   6.643   0.568  11.929 -1.8398 -1.4303  0.7876
 4118TIP3    H233846   6.780   0.514  11.896 -0.9149  1.7003 -0.7170
 4119TIP3   OH233847   2.691   0.773  14.714 -0.4706 -0.1781 -0.3291
 4119TIP3    H133848   2.742   0.703  14.671  0.9929  1.2776 -1.0359
 4119TIP3    H233849   2.676   0.741  14.802  2.5342 -0.2850  0.2107
 4120TIP3   OH233850   3.600   0.907   1.589 -0.3492  0.1124 -0.3950
 4120TIP3    H133851   3.633   0.859   1.513 -0.3699  1.2288 -1.1102
 4120TIP3    H233852   3.525   0.955   1.556 -1.2190 -0.5076  0.6679
 4121TIP3   OH233853   4.136   5.641  11.223 -0.7793  0.2926 -0.0398
 4121TIP3    H133854   4.058   5.586  11.222  0.7311 -1.9033 -2.7117
 4121TIP3    H233855   4.164   5.642  11.315 -1.4919 -2.4813  0.2421
 4122TIP3   OH233856   5.330   4.904  13.501 -0.0026 -0.0981 -0.0501
 4122TIP3    H133857   5.302   4.815  13.520 -2.1925  0.2061 -1.7671
 4122TIP3    H233858   5.361   4.901  13.411  0.1995  0.8308 -0.0172
 4123TIP3   OH233859   2.110   3.997  11.712 -0.4013  0.0787  0.0721
 4123TIP3    H133860   2.082   3.927  11.770 -0.5953  0.0848 -0.0130
 4123TIP3    H233861   2.073   3.975  11.627 -1.2722  0.7869  0.2648
 4124TIP3   OH233862   6.499   1.241  12.447 -0.1440 -0.6322 -0.1304
 4124TIP3    H133863   6.498   1.255  12.541 -0.1567 -0.4103 -0.1636
 4124TIP3    H233864   6.519   1.148  12.437  0.0090 -0.6235  0.0884
 4125TIP3   OH233865   6.319   4.295   4.156 -0.0673 -0.2384 -0.1636
 4125TIP3    H133866   6.260   4.274   4.229 -0.0199  1.4393  0.3610
 4125TIP3    H233867   6.261   4.304   4.080 -0.3775  0.4380  0.1546
 4126TIP3   OH233868   4.214   4.225  13.035 -0.0774 -0.2677  0.1746
 4126TIP3    H133869   4.138   4.181  12.997 -1.0299 -0.6012  2.4126
 4126TIP3    H233870   4.183   4.313  13.055  0.5400  0.0369 -0.2043
 4127TIP3   OH233871   5.971   4.534   1.119 -0.4102  0.2436 -0.5214
 4127TIP3    H133872   5.976   4.547   1.214 -1.2470 -1.0796 -0.2897
 4127TIP3    H233873   5.913   4.604   1.089 -0.6128  0.3137  0.0249
 4128TIP3   OH233874   4.589   1.803  15.859  0.0195 -0.7706  0.1051
 4128TIP3    H133875   4.674   1.848  15.859 -0.6795  0.5914 -1.7808
 4128TIP3    H233876   4.573   1.783  15.952  0.9150  1.7472  0.8412
 4129TIP3   OH233877   3.574   2.046  14.227 -1.2261  0.7389  0.5813
 4129TIP3    H133878   3.648   1.996  14.194 -0.0247  1.2259  2.4844
 4129TIP3    H233879   3.523   1.983  14.278 -0.9589  0.9119  1.0617
 4130TIP3   OH233880   2.402   4.500   1.457 -0.0719  0.0628  0.4197
 4130TIP3    H133881   2.308   4.508   1.438 -0.2688 -1.0970  0.8639
 4130TIP3    H233882   2.423   4.409   1.434  1.1032  0.5342 -0.3819
 4131TIP3   OH233883   0.055   5.182   1.998  0.3022 -0.0570 -0.0518
 4131TIP3    H133884  -0.007   5.112   2.013 -0.9333  1.0994  0.2911
 4131TIP3    H233885   0.076   5.215   2.085  1.0154 -0.1126 -0.1990
 4132TIP3   OH233886   3.009   3.463   2.136  0.0788 -0.1717 -0.1868
 4132TIP3    H133887   3.066   3.396   2.097 -1.1536 -1.4621  0.1992
 4132TIP3    H233888   3.036   3.544   2.094  1.5091 -0.9289 -0.7691
 4133TIP3   OH233889   6.067   2.902   1.218  0.0192  0.3820  0.1797
 4133TIP3    H133890   6.157   2.926   1.240 -0.0931  0.5650  0.4471
 4133TIP3    H233891   6.037   2.851   1.293  1.1871 -3.0588 -1.5806
 4134TIP3   OH233892   2.048   3.582   4.783  0.2048 -0.2019 -0.5517
 4134TIP3    H133893   2.011   3.614   4.866 -0.4489  0.2141 -0.9913
 4134TIP3    H233894   2.068   3.662   4.734 -0.6079 -0.4453 -1.3032
 4135TIP3   OH233895   0.346   4.145   0.568  0.5621 -0.2915 -0.3912
 4135TIP3    H133896   0.308   4.064   0.533  1.0189 -1.2792  1.3242
 4135TIP3    H233897   0.325   4.142   0.662 -0.0500  1.9545 -0.4421
 4136TIP3   OH233898   6.093   0.040   4.135  0.8039 -0.3880  0.1273
 4136TIP3    H133899   6.024   0.096   4.099  0.9035 -1.0664 -1.1391
 4136TIP3    H233900   6.067  -0.049   4.109  1.8913 -0.6947  0.0926
 4137TIP3   OH233901   3.796   5.399   4.766  0.4917  0.0678 -0.4141
 4137TIP3    H133902   3.742   5.456   4.710 -0.2531  0.7408  0.9406
 4137TIP3    H233903   3.885   5.409   4.732 -0.1380 -0.6031 -2.3223
 4138TIP3   OH233904   4.745   6.490   2.930 -0.3416  0.0543 -0.4605
 4138TIP3    H133905   4.790   6.551   2.873 -0.7462  1.9173  1.1704
 4138TIP3    H233906   4.654   6.520   2.931 -0.7362 -1.0916 -0.3176
 4139TIP3   OH233907   0.998   4.751  11.779 -0.1121 -0.2654  0.0178
 4139TIP3    H133908   0.995   4.814  11.851 -1.7759 -0.0826 -0.1877
 4139TIP3    H233909   0.912   4.708  11.781  1.1649 -2.8973  0.4771
 4140TIP3   OH233910   2.624   5.033  16.321 -0.1417 -0.5476  0.3225
 4140TIP3    H133911   2.677   4.954  16.331  1.7890  0.7887  0.9493
 4140TIP3    H233912   2.623   5.073  16.408  0.4357  1.0531 -0.3919
 4141TIP3   OH233913   3.822   6.064   2.507  0.5022  0.1104 -0.1385
 4141TIP3    H133914   3.792   5.976   2.530 -0.2107  0.0924 -1.1096
 4141TIP3    H233915   3.870   6.094   2.585  0.9188 -1.2049  0.1189
 4142TIP3   OH233916   2.019   0.375   6.090  0.2310  0.8204 -0.0447
 4142TIP3    H133917   2.093   0.361   6.150 -0.6752  2.8700  1.6265
 4142TIP3    H233918   2.011   0.293   6.043  3.0419  0.2512  0.3440
 4143TIP3   OH233919   1.098   0.859   6.147 -0.3808 -0.4744  0.0383
 4143TIP3    H133920   1.017   0.822   6.181 -1.1362  0.2407 -0.9350
 4143TIP3    H233921   1.078   0.880   6.055 -0.0905  2.5913  0.6257
 4144TIP3   OH233922   0.684   0.130   4.932  0.3420  0.3437 -0.2910
 4144TIP3    H133923   0.771   0.142   4.969  0.0665 -2.4833  1.4912
 4144TIP3    H233924   0.667   0.036   4.941 -3.4876  1.0249  0.8850
 4145TIP3   OH233925   4.798   0.515  15.933  0.4197 -0.6436  0.1308
 4145TIP3    H133926   4.881   0.477  15.902  0.3747 -0.7519  0.1451
 4145TIP3    H233927   4.767   0.567  15.859  0.6608 -0.3455  0.2370
 4146TIP3   OH233928   2.675   3.090  14.182 -0.3604 -0.5682  0.6413
 4146TIP3    H133929   2.743   3.156  14.197 -0.7718 -0.5009  2.2847
 4146TIP3    H233930   2.593   3.138  14.187 -0.5611 -0.1110 -4.0666
 4147TIP3   OH233931   5.789   1.941  12.981  0.0719  0.2487 -0.4743
 4147TIP3    H133932   5.823   1.892  13.056  1.1633  0.4913 -0.8073
 4147TIP3    H233933   5.717   1.993  13.018 -0.8219 -1.2436 -0.0285
 4148TIP3   OH233934   2.096   0.103   1.359 -0.3180  0.4390 -0.1388
 4148TIP3    H133935   2.105   0.125   1.267 -0.7982  0.0215 -0.2863
 4148TIP3    H233936   2.184   0.112   1.395 -0.1863  0.8701 -0.5764
 4149TIP3   OH233937   4.659   4.542   1.334 -0.1025 -0.0050 -0.0897
 4149TIP3    H133938   4.596   4.475   1.357  0.8066 -0.1697  2.0747
 4149TIP3    H233939   4.737   4.521   1.385  0.2731  2.5557  0.5001
 4150TIP3   OH233940   5.443   2.108   1.611  0.0782 -0.4586 -0.1567
 4150TIP3    H133941   5.467   2.063   1.531  3.2526 -1.0387  1.0413
 4150TIP3    H233942   5.423   2.038   1.673 -0.6377 -0.0620  0.0623
 4151TIP3   OH233943   4.912   1.172   5.704 -0.1180 -0.1411 -0.3346
 4151TIP3    H133944   4.900   1.175   5.799  1.1782 -1.4419 -0.1100
 4151TIP3    H233945   4.914   1.263   5.677  0.0738  0.2532  0.9693
 4152TIP3   OH233946   2.862   4.190  15.711 -0.4001 -0.1990 -0.8086
 4152TIP3    H133947   2.942   4.216  15.666  0.0426  1.4427  0.8497
 4152TIP3    H233948   2.889   4.171  15.801 -1.6116 -1.1941 -0.6334
 4153TIP3   OH233949   4.691   1.243  12.499 -0.5074  0.4005 -0.2796
 4153TIP3    H133950   4.681   1.155  12.536  1.9289  0.4239  0.5398
 4153TIP3    H233951   4.758   1.232  12.431  0.2983  1.7483  0.2859
 4154TIP3   OH233952   1.145   3.480  12.269  0.1907  0.5383 -0.0467
 4154TIP3    H133953   1.218   3.447  12.321 -0.6633 -1.3759 -0.0251
 4154TIP3    H233954   1.144   3.575  12.285  0.4333  0.0965  2.7672
 4155TIP3   OH233955   3.143   5.963   3.280 -0.5251 -0.0936 -0.3929
 4155TIP3    H133956   3.115   5.891   3.336 -0.1494 -0.4842 -0.7127
 4155TIP3    H233957   3.225   5.934   3.242  0.6430  1.2964  1.0055
 4156TIP3   OH233958   5.348   0.689   0.690 -0.4735  0.7174  0.4801
 4156TIP3    H133959   5.387   0.704   0.776  1.6012 -2.3176  0.1640
 4156TIP3    H233960   5.313   0.600   0.695 -0.9494  0.7667 -1.5827
 4157TIP3   OH233961   2.215   2.008  12.376  0.2209 -0.5324  0.3709
 4157TIP3    H133962   2.173   2.091  12.351 -0.4909 -0.2508  2.4114
 4157TIP3    H233963   2.157   1.940  12.340 -0.4247 -0.1415  0.6671
 4158TIP3   OH233964   0.479   2.099   6.229 -0.1854 -0.0110 -0.2232
 4158TIP3    H133965   0.518   2.011   6.229 -0.2235 -0.0261  0.0219
 4158TIP3    H233966   0.539   2.152   6.281 -0.5932 -0.0759  0.3116
 4159TIP3   OH233967   6.337   0.494   5.225  0.7249  0.0860 -0.3686
 4159TIP3    H133968   6.325   0.550   5.148 -0.6468 -2.4810 -2.0945
 4159TIP3    H233969   6.251   0.455   5.240  1.5922 -1.4114  0.9220
 4160TIP3   OH233970   4.222   2.681   1.694 -0.2516 -0.0322 -0.4176
 4160TIP3    H133971   4.274   2.647   1.621  1.7050 -0.3794  1.0999
 4160TIP3    H233972   4.244   2.623   1.768 -1.9017  0.5472  0.5534
 4161TIP3   OH233973   0.199   1.003   2.316  0.2296  0.0532  0.0192
 4161TIP3    H133974   0.234   1.041   2.236 -1.7471 -0.0963 -0.9611
 4161TIP3    H233975   0.275   0.970   2.363  1.5158  1.0731 -1.3048
 4162TIP3   OH233976   0.940   5.174   5.951 -0.0139 -0.4698 -0.4064
 4162TIP3    H133977   0.856   5.207   5.920  0.1547 -0.3221 -0.7061
 4162TIP3    H233978   1.005   5.213   5.892  0.2116 -1.0701 -0.5566
 4163TIP3   OH233979   2.249   0.454  16.338  0.0178  0.5403  0.6454
 4163TIP3    H133980   2.173   0.431  16.392 -0.7973 -0.5554 -0.9365
 4163TIP3    H233981   2.313   0.385  16.355 -0.0615  0.4477  0.5701
 4164TIP3   OH233982   4.545   1.735  16.625 -0.0192 -0.4901  0.2948
 4164TIP3    H133983   4.527   1.641  16.625 -0.1630 -0.4619  1.2297
 4164TIP3    H233984   4.477   1.773  16.570  0.1367 -0.9487 -0.2194
 4165TIP3   OH233985   2.492   0.415  14.958  0.0829 -0.0006  0.0062
 4165TIP3    H133986   2.546   0.340  14.932 -0.0498 -0.1039  0.0261
 4165TIP3    H233987   2.407   0.376  14.980 -0.9434  0.4979 -2.8920
 4166TIP3   OH233988   5.325   4.287  15.698  0.1244  0.0941 -0.0722
 4166TIP3    H133989   5.255   4.345  15.728 -0.3408 -0.8474  0.7360
 4166TIP3    H233990   5.283   4.200  15.695  1.3077 -0.5137  0.6245
 4167TIP3   OH233991   6.120   1.072  11.733  0.7429  0.0918 -0.2939
 4167TIP3    H133992   6.101   1.002  11.671 -0.1591 -0.5444  0.6854
 4167TIP3    H233993   6.211   1.059  11.757 -0.2368 -2.5859  2.1545
 4168TIP3   OH233994   5.956   3.576   5.710 -1.1619 -0.1031  0.4327
 4168TIP3    H133995   5.911   3.565   5.793 -1.4008 -1.9974  0.0779
 4168TIP3    H233996   5.887   3.601   5.648 -1.3569 -0.8014  0.3628
 4169TIP3   OH233997   6.120   2.205   2.918 -0.4019 -0.2339  0.4426
 4169TIP3    H133998   6.166   2.122   2.906 -1.1183 -0.7337  1.0851
 4169TIP3    H233999   6.042   2.182   2.968 -0.4005  0.8894  0.9908
 4170TIP3   OH234000   2.106   0.453  14.363 -0.1088 -0.1876 -0.2587
 4170TIP3    H134001   2.117   0.520  14.295  1.0764 -0.2441 -0.1255
 4170TIP3    H234002   2.013   0.458  14.386  0.2643  2.4878  0.8398
 4171TIP3   OH234003   1.518   3.153   5.174 -0.1821 -0.4815 -0.5901
 4171TIP3    H134004   1.505   3.088   5.104 -0.0425 -1.9307  0.7058
 4171TIP3    H234005   1.602   3.129   5.213 -0.0457  0.6032 -0.2207
 4172TIP3   OH234006   5.139   5.448   5.463  0.3121  0.0821 -1.1536
 4172TIP3    H134007   5.086   5.458   5.384  0.6810 -0.0399 -1.4192
 4172TIP3    H234008   5.182   5.363   5.452 -1.4969 -1.0486  0.2974
 4173TIP3   OH234009   3.908   5.020   4.722 -0.0185 -0.3939 -0.1839
 4173TIP3    H134010   3.933   4.929   4.739 -0.5306 -0.9269 -2.1800
 4173TIP3    H234011   3.991   5.066   4.715  0.2459 -0.6624  0.9384
 4174TIP3   OH234012   5.738   4.410  16.403  0.1067  0.0268  0.1538
 4174TIP3    H134013   5.797   4.426  16.329  0.1389 -0.6616  0.0333
 4174TIP3    H234014   5.660   4.461  16.382 -1.1769 -2.6981 -1.9228
 4175TIP3   OH234015   2.118   2.454   3.287 -0.1436  0.1046  0.4738
 4175TIP3    H134016   2.134   2.364   3.259 -1.8566  0.0321 -0.3155
 4175TIP3    H234017   2.148   2.507   3.214 -1.0883  0.0809  0.0674
 4176TIP3   OH234018   0.885   0.822  14.961 -0.5658  0.0510 -0.4262
 4176TIP3    H134019   0.804   0.774  14.945 -0.1977 -0.1141 -1.7961
 4176TIP3    H234020   0.911   0.856  14.876 -0.0765  1.5179  0.2915
 4177TIP3   OH234021   4.513   2.443   0.708 -0.2939 -0.4172 -0.3457
 4177TIP3    H134022   4.469   2.470   0.628 -1.7555 -0.8447  0.2938
 4177TIP3    H234023   4.464   2.367   0.739  0.7589 -0.7708  0.5082
 4178TIP3   OH234024   5.876   3.577  11.330 -0.1571 -0.4227 -0.1007
 4178TIP3    H134025   5.805   3.564  11.393 -0.4544 -0.5646 -0.4657
 4178TIP3    H234026   5.834   3.618  11.255  0.1503 -0.4997 -0.3164
 4179TIP3   OH234027   1.377   1.610   3.935  0.4514  0.1257  0.3877
 4179TIP3    H134028   1.309   1.677   3.942  0.0605 -0.1657 -0.4891
 4179TIP3    H234029   1.329   1.527   3.940  1.1092 -0.1443  3.3365
 4180TIP3   OH234030   3.528   2.170  11.477 -0.0942 -0.1597 -0.3295
 4180TIP3    H134031   3.588   2.183  11.403  1.1930 -1.0568  0.5360
 4180TIP3    H234032   3.444   2.149  11.436  0.4294  0.0244 -1.5438
 4181TIP3   OH234033   4.169   1.282  15.710  0.2669 -0.0056  0.3067
 4181TIP3    H134034   4.146   1.252  15.799  0.6592  0.3339  0.5226
 4181TIP3    H234035   4.100   1.344  15.688 -2.7195 -3.7780 -1.6240
 4182TIP3   OH234036   1.969   5.182  12.409  0.3234  0.4155  0.4291
 4182TIP3    H134037   2.022   5.148  12.338 -2.0127  2.5069 -2.4141
 4182TIP3    H234038   2.028   5.242  12.456  1.6045 -0.2373 -0.3092
 4183TIP3   OH234039   6.805   5.620   1.144 -0.1745 -0.5411  0.6614
 4183TIP3    H134040   6.876   5.685   1.145 -0.7224  0.0694  0.2086
 4183TIP3    H234041   6.842   5.546   1.095 -1.1551  1.3235 -3.0985
 4184TIP3   OH234042   2.555   1.615  14.437  0.4280  0.4163 -0.0436
 4184TIP3    H134043   2.630   1.663  14.473  0.9580 -0.1201 -0.4076
 4184TIP3    H234044   2.525   1.560  14.509 -0.2226  1.3364  0.3936
 4185TIP3   OH234045   5.018   5.156   3.050 -0.1639 -0.3577 -0.1188
 4185TIP3    H134046   4.956   5.149   2.978  0.4766 -1.7172 -0.5510
 4185TIP3    H234047   5.101   5.180   3.009  0.6176 -2.8532 -0.0542
 4186TIP3   OH234048   6.666   3.027  15.301 -0.3187  0.8107 -0.3098
 4186TIP3    H134049   6.617   2.945  15.303 -0.4369  0.8827 -0.2986
 4186TIP3    H234050   6.757   3.000  15.314 -0.4111  0.7241  0.1750
 4187TIP3   OH234051   5.375   2.045   4.794 -0.1306  0.5724  0.0725
 4187TIP3    H134052   5.409   1.992   4.722 -0.0528  1.1060 -0.2855
 4187TIP3    H234053   5.397   1.995   4.873 -0.2038 -0.0068 -0.2725
 4188TIP3   OH234054   4.183   1.606  12.916  0.3427 -0.2240  0.1773
 4188TIP3    H134055   4.253   1.575  12.859  0.7429  0.8724  0.0621
 4188TIP3    H234056   4.139   1.674  12.866  0.9038  0.9791  1.2886
 4189TIP3   OH234057   5.745   5.020  12.459  0.1543  0.4066 -0.0086
 4189TIP3    H134058   5.709   4.932  12.448 -0.7685  0.8946 -1.0177
 4189TIP3    H234059   5.776   5.022  12.549  1.4845 -1.4259 -0.4053
 4190TIP3   OH234060   1.055   3.093   4.037  0.2160 -0.0118  0.7150
 4190TIP3    H134061   1.068   3.033   4.111 -0.3397  1.2230  1.8227
 4190TIP3    H234062   1.138   3.089   3.989  0.9917  0.0254  2.0257
 4191TIP3   OH234063   6.069   5.165  14.442 -0.7740  0.0208  0.3490
 4191TIP3    H134064   5.997   5.120  14.396 -1.7804  1.3516  0.5964
 4191TIP3    H234065   6.100   5.101  14.506 -0.7140 -1.1178 -0.7817
 4192TIP3   OH234066   5.999   4.458  17.123 -0.6008  0.3121  0.4076
 4192TIP3    H134067   6.010   4.497  17.036  2.1802 -0.2947  0.4387
 4192TIP3    H234068   5.966   4.370  17.106  0.2374  0.0859 -0.0632
 4193TIP3   OH234069   5.528   2.158  16.056 -0.4300 -0.1561  0.3617
 4193TIP3    H134070   5.460   2.130  16.117 -0.0149 -0.0228  0.8899
 4193TIP3    H234071   5.603   2.103  16.078  0.0460  0.6066  0.6732
 4194TIP3   OH234072   1.346   2.467  17.127 -0.3902  0.1501  0.0207
 4194TIP3    H134073   1.336   2.408  17.202  0.3997  2.6742  2.2081
 4194TIP3    H234074   1.299   2.546  17.153 -1.8489  0.3443 -3.0587
 4195TIP3   OH234075   3.003   5.048   1.343  0.9032 -0.7525  0.0521
 4195TIP3    H134076   3.094   5.074   1.362  1.0368 -1.6839  0.7781
 4195TIP3    H234077   2.952   5.089   1.413  1.2067 -2.9494  1.6502
 4196TIP3   OH234078   2.247   3.290  13.267  0.4643  0.1528  0.1878
 4196TIP3    H134079   2.250   3.378  13.231  0.6979 -0.0910 -0.4003
 4196TIP3    H234080   2.250   3.233  13.191  0.5295 -0.3670  0.5744
 4197TIP3   OH234081   6.803   5.573   4.647  0.2585 -0.1226  0.3388
 4197TIP3    H134082   6.834   5.576   4.557  0.8228 -1.0265  0.4974
 4197TIP3    H234083   6.823   5.660   4.682 -3.0521  1.4003 -1.3801
 4198TIP3   OH234084   3.210   3.461  12.572 -0.3797 -0.4505 -0.1398
 4198TIP3    H134085   3.179   3.419  12.653 -1.6279  2.6114  1.0725
 4198TIP3    H234086   3.136   3.454  12.512  0.0294 -1.4614 -0.5318
 4199TIP3   OH234087   0.642   1.963  15.369 -0.5095 -0.5948 -0.8906
 4199TIP3    H134088   0.720   2.019  15.370  0.4491 -1.8287 -2.8115
 4199TIP3    H234089   0.630   1.942  15.276 -2.8706 -0.8030 -0.5658
 4200TIP3   OH234090   2.969   4.956  14.814 -0.0701  0.6477  0.1666
 4200TIP3    H134091   2.908   4.976  14.886 -0.2742  0.1827  0.1251
 4200TIP3    H234092   2.970   4.861  14.810  2.0388  0.6048  1.3310
 4201TIP3   OH234093   5.173   3.033   3.810 -0.1991 -0.2452  0.6934
 4201TIP3    H134094   5.262   3.064   3.799 -0.8983  1.7938  0.6185
 4201TIP3    H234095   5.181   2.953   3.862  1.5205  0.9143  2.2399
 4202TIP3   OH234096   1.862   2.397   4.949  0.2684 -0.4660 -0.2589
 4202TIP3    H134097   1.947   2.421   4.987  0.3715  0.1395 -0.8690
 4202TIP3    H234098   1.884   2.328   4.886  0.6116  1.2299 -2.0363
 4203TIP3   OH234099   5.608   5.724  13.850 -0.5267 -0.0682 -0.7498
 4203TIP3    H134100   5.534   5.675  13.884 -2.2957  1.4137 -2.2833
 4203TIP3    H234101   5.598   5.812  13.888  1.4237 -0.3045  0.3652
 4204TIP3   OH234102   3.513   1.697   0.472 -0.3928 -0.3415  0.4477
 4204TIP3    H134103   3.430   1.707   0.425  0.1676  2.0756 -0.1241
 4204TIP3    H234104   3.503   1.753   0.549 -0.0318 -1.6326  1.4485
 4205TIP3   OH234105   3.304   3.035   0.581  0.4387  0.4141  0.2539
 4205TIP3    H134106   3.358   3.082   0.645  0.5000  0.1191  0.4172
 4205TIP3    H234107   3.224   3.012   0.629  1.3235 -1.5898  0.8229
 4206TIP3   OH234108   4.093   6.490  14.176 -0.2646  0.1952 -0.0325
 4206TIP3    H134109   4.090   6.448  14.090  0.6860  1.6729 -0.8003
 4206TIP3    H234110   4.126   6.422  14.235  0.6271 -0.3329 -1.1394
 4207TIP3   OH234111   1.638   0.692   3.174 -0.0449  0.8694  0.1892
 4207TIP3    H134112   1.615   0.732   3.258  0.4002  0.7536  0.3646
 4207TIP3    H234113   1.701   0.624   3.196 -2.1830 -1.1891  0.1151
 4208TIP3   OH234114   0.548   0.163  15.057 -0.3229 -0.4362 -0.1065
 4208TIP3    H134115   0.492   0.192  15.129 -0.0495  2.2582 -0.9341
 4208TIP3    H234116   0.635   0.154  15.096 -0.3252  0.3006  0.0761
 4209TIP3   OH234117   3.530   5.025   3.733 -0.4429 -0.1445 -0.2123
 4209TIP3    H134118   3.516   4.930   3.728 -1.2481 -0.0135 -0.5527
 4209TIP3    H234119   3.611   5.040   3.684 -1.7696 -0.3428 -2.5335
 4210TIP3   OH234120   0.108   3.382  10.303  0.4639  0.0220 -0.3490
 4210TIP3    H134121   0.075   3.471  10.292 -1.0979  0.0418  3.6840
 4210TIP3    H234122   0.066   3.332  10.233 -1.9410  1.6615 -0.1327
 4211TIP3   OH234123   5.119   6.567   1.050 -0.0451  0.7336  0.0124
 4211TIP3    H134124   5.154   6.486   1.011  0.1975  0.6631  0.3672
 4211TIP3    H234125   5.027   6.568   1.025 -0.5332 -0.6630  1.6415
 4212TIP3   OH234126   1.425   3.385  14.492  0.9688 -0.0694 -0.3256
 4212TIP3    H134127   1.395   3.470  14.526 -0.4568  0.1920 -2.2043
 4212TIP3    H234128   1.458   3.404  14.405  1.1905 -1.3693 -0.5336
 4213TIP3   OH234129   1.696   6.078  11.225  0.4282 -0.1859 -0.0356
 4213TIP3    H134130   1.741   6.111  11.303  0.8403 -0.5403 -0.1230
 4213TIP3    H234131   1.745   6.117  11.152  1.0932 -1.2282 -0.1440
 4214TIP3   OH234132   4.500   0.613   0.905  0.4178  0.2066 -0.4595
 4214TIP3    H134133   4.498   0.525   0.868 -0.7280 -0.5323  1.3106
 4214TIP3    H234134   4.423   0.656   0.869  0.8777  0.4389 -1.1794
 4215TIP3   OH234135   1.919   4.545  12.566  1.1327  0.3209  0.0484
 4215TIP3    H134136   1.978   4.530  12.639 -1.0857  3.2060  2.5522
 4215TIP3    H234137   1.954   4.623  12.522  1.1967 -0.0643 -0.5821
 4216TIP3   OH234138   5.604   3.102  11.991 -0.4695 -0.2437 -0.1072
 4216TIP3    H134139   5.662   3.028  11.975 -0.7872 -0.4357 -0.3839
 4216TIP3    H234140   5.553   3.076  12.068 -0.0770 -0.0074  0.2318
 4217TIP3   OH234141   5.445   6.197  13.109 -0.1603  0.3927  0.3856
 4217TIP3    H134142   5.499   6.183  13.031 -0.4773 -0.3703  0.3019
 4217TIP3    H234143   5.362   6.230  13.075 -0.1117  0.5694  0.4387
 4218TIP3   OH234144   3.652   0.291  14.494 -0.2370  0.3807 -0.3502
 4218TIP3    H134145   3.568   0.249  14.479 -0.9935  1.7840 -0.1939
 4218TIP3    H234146   3.711   0.252  14.429 -0.8965 -0.8969 -0.1850
 4219TIP3   OH234147   2.406   3.196   2.613  0.1733  0.4352 -0.0893
 4219TIP3    H134148   2.417   3.124   2.676  0.0183  1.3155  0.9509
 4219TIP3    H234149   2.488   3.244   2.617  0.4003  0.1490 -1.0258
 4220TIP3   OH234150   0.402   2.959   0.570  0.2058 -0.1995  0.2829
 4220TIP3    H134151   0.455   2.921   0.640 -0.2232  0.9602  1.2409
 4220TIP3    H234152   0.452   2.939   0.490  1.5348 -0.1129  1.0651
 4221TIP3   OH234153   6.531   4.938   3.134 -0.7037 -0.4855  0.1738
 4221TIP3    H134154   6.482   5.019   3.123 -0.2617 -0.3064 -0.4624
 4221TIP3    H234155   6.476   4.884   3.191 -0.6625  0.5485  1.2240
 4222TIP3   OH234156   2.938   3.618  11.719  0.5774  0.7861 -0.1355
 4222TIP3    H134157   3.031   3.632  11.699  0.0696  1.6454 -2.0271
 4222TIP3    H234158   2.930   3.523  11.729  1.2604  0.4873 -2.1604
 4223TIP3   OH234159   5.531   0.458   5.677  0.0906 -0.7024 -0.0939
 4223TIP3    H134160   5.502   0.369   5.694 -0.8837 -0.2869  0.4376
 4223TIP3    H234161   5.626   0.454   5.686 -0.0904 -1.3072  1.7715
 4224TIP3   OH234162   0.077   3.557   6.019 -0.4246  0.0467 -0.3313
 4224TIP3    H134163   0.129   3.622   6.067 -1.7737  0.3476  0.7227
 4224TIP3    H234164   0.094   3.578   5.927  0.0779  1.1542 -0.0011
 4225TIP3   OH234165   0.069   5.772   0.092 -0.2921 -0.6461 -0.3959
 4225TIP3    H134166   0.038   5.788   0.002 -1.6367 -0.9025  0.0079
 4225TIP3    H234167   0.029   5.842   0.143  1.7728  0.4537 -0.2417
 4226TIP3   OH234168   2.263   6.475  16.540  0.1271  0.9024 -0.0745
 4226TIP3    H134169   2.208   6.438  16.609  0.4501 -1.3570 -0.9851
 4226TIP3    H234170   2.204   6.530  16.489 -1.2444 -1.1997 -0.8192
 4227TIP3   OH234171   4.735   4.978  13.800  0.0836  0.1249  0.2639
 4227TIP3    H134172   4.664   5.003  13.740 -1.0796  0.8041  1.8775
 4227TIP3    H234173   4.704   4.898  13.843 -0.4679  1.3030  2.1493
 4228TIP3   OH234174   2.076   0.903  13.874 -0.6652  0.1182  0.0325
 4228TIP3    H134175   1.994   0.953  13.879 -1.0873 -0.6114  0.4303
 4228TIP3    H234176   2.048   0.813  13.857  0.1269  0.1616 -1.6409
 4229TIP3   OH234177   5.710   0.224  13.392  0.1271 -0.1760 -0.7722
 4229TIP3    H134178   5.755   0.308  13.382  0.3030 -0.3246 -1.2118
 4229TIP3    H234179   5.708   0.187  13.304 -0.6492 -0.2778 -0.7157
 4230TIP3   OH234180   2.986   1.152   4.089 -0.2309  0.4632  0.1121
 4230TIP3    H134181   3.034   1.227   4.126  2.3915 -0.2285 -1.7152
 4230TIP3    H234182   3.051   1.081   4.089 -1.7408 -0.9356 -1.0665
 4231TIP3   OH234183   5.691   2.204   0.610  0.3338  0.1101  0.3943
 4231TIP3    H134184   5.764   2.146   0.587 -0.0599 -0.0815 -0.3745
 4231TIP3    H234185   5.615   2.146   0.613 -0.1959  0.7016 -1.0933
 4232TIP3   OH234186   1.982   2.298  11.926  0.1252 -0.6272 -0.6156
 4232TIP3    H134187   2.053   2.256  11.976  2.2059  2.2099 -1.0844
 4232TIP3    H234188   2.019   2.313  11.840 -0.8484  1.3986 -0.7000
 4233TIP3   OH234189   2.471   1.085  15.715 -0.2604  0.6256  0.1798
 4233TIP3    H134190   2.537   1.148  15.745 -0.6020  0.9948  0.1589
 4233TIP3    H234191   2.498   1.062  15.626 -1.0548  2.0005 -0.4217
 4234TIP3   OH234192   5.453   5.987   4.629  0.2321 -0.6699  0.6888
 4234TIP3    H134193   5.438   6.075   4.592 -0.0111 -0.6692  0.7894
 4234TIP3    H234194   5.468   6.002   4.722  3.0196 -0.4367  0.2743
 4235TIP3   OH234195   1.657   1.858   5.831  0.2548 -0.0082  0.3439
 4235TIP3    H134196   1.734   1.913   5.845  0.3368  0.1517 -0.6822
 4235TIP3    H234197   1.675   1.812   5.749 -0.0957 -1.0856  0.8626
 4236TIP3   OH234198   6.352   6.420   0.664 -0.4876  0.1542 -0.1499
 4236TIP3    H134199   6.322   6.393   0.751  1.0056  2.1385  1.0200
 4236TIP3    H234200   6.380   6.339   0.622 -0.3509 -0.7236  1.5927
 4237TIP3   OH234201   4.259   5.650  11.504 -0.2812  0.6163  0.4778
 4237TIP3    H134202   4.335   5.707  11.518  0.3950 -0.1007 -0.2515
 4237TIP3    H234203   4.215   5.649  11.589  0.1440  1.5768  0.7295
 4238TIP3   OH234204   5.488   6.333  11.298  0.5248  0.2610 -0.3182
 4238TIP3    H134205   5.419   6.294  11.243  0.7952  0.2167 -0.6289
 4238TIP3    H234206   5.495   6.423  11.266  0.2036  0.4390  0.1079
 4239TIP3   OH234207   1.640   4.679   0.683 -0.5351 -0.4712  0.4649
 4239TIP3    H134208   1.560   4.647   0.723 -1.0016  0.5017  0.3351
 4239TIP3    H234209   1.624   4.674   0.589  0.0322 -1.4409  0.4110
 4240TIP3   OH234210   2.840   4.810  16.806  0.3916  0.2544  0.1063
 4240TIP3    H134211   2.751   4.795  16.777  0.1808 -0.2099  0.9683
 4240TIP3    H234212   2.895   4.765  16.742 -0.0028  0.3712 -0.3119
 4241TIP3   OH234213   2.473   3.725   0.493 -0.3378 -0.0146 -0.5034
 4241TIP3    H134214   2.527   3.803   0.480 -1.9481  0.8043 -2.5061
 4241TIP3    H234215   2.383   3.758   0.499 -0.7999 -1.4894  1.2660
 4242TIP3   OH234216   1.656   6.188   1.290 -0.6090  0.4937  0.4017
 4242TIP3    H134217   1.616   6.115   1.243 -1.7639  0.8953  0.7339
 4242TIP3    H234218   1.732   6.211   1.238 -1.2045  0.1722 -0.6339
 4243TIP3   OH234219   0.379   2.753  12.944 -0.1531  0.5398 -0.4245
 4243TIP3    H134220   0.403   2.725  12.856 -0.1557  2.5754 -1.0818
 4243TIP3    H234221   0.283   2.751  12.945 -0.1657  1.0455 -0.6422
 4244TIP3   OH234222   1.176   2.607  14.972 -0.1329  0.7296 -0.4588
 4244TIP3    H134223   1.126   2.684  14.946 -0.1525  0.4726 -1.2205
 4244TIP3    H234224   1.110   2.543  14.999 -0.1326  0.8764 -0.1059
 4245TIP3   OH234225   4.233   3.239   6.285  0.2185 -0.2364  0.0231
 4245TIP3    H134226   4.306   3.293   6.315 -2.3144  2.7267  1.0574
 4245TIP3    H234227   4.222   3.173   6.354  2.6264 -1.4840 -0.7211
 4246TIP3   OH234228   1.855   2.212  13.983 -0.4202 -0.2665 -0.3112
 4246TIP3    H134229   1.940   2.233  13.945 -0.8722 -0.2298 -1.3211
 4246TIP3    H234230   1.868   2.127  14.026  0.6779  0.7388  1.3891
 4247TIP3   OH234231   4.382   6.640   4.169 -0.1435 -0.5580  0.2142
 4247TIP3    H134232   4.321   6.568   4.157 -0.1955 -0.9394  2.4664
 4247TIP3    H234233   4.458   6.600   4.211 -0.1069  0.6489  1.3324
 4248TIP3   OH234234   0.545   0.688  17.041  0.2806  0.1291 -0.1408
 4248TIP3    H134235   0.620   0.744  17.023 -0.5514  1.1358 -0.5651
 4248TIP3    H234236   0.559   0.610  16.988  1.3459  0.0302  0.2755
 4249TIP3   OH234237   3.160   1.592   6.401  0.1931  0.4700 -0.2576
 4249TIP3    H134238   3.071   1.601   6.367  0.3592 -1.2348 -1.1789
 4249TIP3    H234239   3.208   1.664   6.359  0.1467 -0.9617 -2.8546
 4250TIP3   OH234240   5.768   1.935  15.390 -0.2216  0.2203 -0.1261
 4250TIP3    H134241   5.780   1.964  15.299 -1.6118 -0.1731 -0.4490
 4250TIP3    H234242   5.833   1.985  15.440  1.0035 -0.0375 -1.4181
 4251TIP3   OH234243   4.325   5.130  14.362  0.1015  0.3867 -0.1995
 4251TIP3    H134244   4.263   5.127  14.290 -0.5670 -0.2559  0.3896
 4251TIP3    H234245   4.274   5.160  14.437  1.0104  1.9917 -0.2043
 4252TIP3   OH234246   6.573   4.924   2.625  0.4403 -0.0079 -0.6280
 4252TIP3    H134247   6.659   4.885   2.642  0.1996 -0.3092 -0.0773
 4252TIP3    H234248   6.526   4.916   2.708 -0.1365  0.1114 -0.9364
 4253TIP3   OH234249   0.760   1.277  15.783  0.2826 -0.8994  0.0702
 4253TIP3    H134250   0.697   1.258  15.853 -1.5683 -0.9880 -1.5604
 4253TIP3    H234251   0.825   1.207  15.790 -0.6184 -1.6805  0.8730
 4254TIP3   OH234252   0.716   0.407   2.538 -0.0606 -0.4151 -0.2641
 4254TIP3    H134253   0.743   0.446   2.621  0.9894  0.1589 -0.8660
 4254TIP3    H234254   0.783   0.434   2.476 -1.3265 -0.0631 -1.5084
 4255TIP3   OH234255   3.960   2.225   1.355 -0.2326 -0.7343 -0.0353
 4255TIP3    H134256   3.974   2.254   1.445 -1.0910 -2.1073  0.5522
 4255TIP3    H234257   3.865   2.228   1.343  0.0066  1.5107 -1.6162
 4256TIP3   OH234258   3.354   4.075   6.388 -0.3492  0.1537  0.8793
 4256TIP3    H134259   3.423   4.019   6.422  1.4451  2.0261  0.4201
 4256TIP3    H234260   3.391   4.163   6.390 -1.9165  0.9197 -1.4526
 4257TIP3   OH234261   5.266   4.572  16.724  0.8687  0.0779  0.1542
 4257TIP3    H134262   5.304   4.496  16.680  1.7753  1.4237 -1.4167
 4257TIP3    H234263   5.316   4.578  16.806  1.4500 -0.4446 -0.1486
 4258TIP3   OH234264   1.917   5.668   5.395 -0.8191 -0.2210 -0.0639
 4258TIP3    H134265   1.883   5.640   5.480  0.8815 -0.4047  0.5827
 4258TIP3    H234266   2.002   5.708   5.416  1.1282 -3.1963 -2.0162
 4259TIP3   OH234267   3.476   3.420  12.610  0.0716 -0.1667  0.1206
 4259TIP3    H134268   3.484   3.417  12.705  0.0657 -1.6915  0.0782
 4259TIP3    H234269   3.385   3.445  12.595  0.2335  0.6864  0.5061
 4260TIP3   OH234270   5.096   6.665   4.856  0.3846  1.1926  0.8324
 4260TIP3    H134271   5.069   6.691   4.768 -0.9625  0.1124  0.9230
 4260TIP3    H234272   5.080   6.571   4.859  3.7573  0.5303  1.0324
 4261TIP3   OH234273   6.800   4.175  15.241 -0.1207 -0.1464 -0.4048
 4261TIP3    H134274   6.864   4.247  15.233 -0.0680 -0.3536 -1.9548
 4261TIP3    H234275   6.788   4.144  15.152 -1.8037 -0.6424 -0.0084
 4262TIP3   OH234276   6.328   6.170   5.781  0.2320 -0.4352  0.7835
 4262TIP3    H134277   6.418   6.174   5.749 -0.1789  1.2551 -0.1748
 4262TIP3    H234278   6.295   6.259   5.775 -2.0275 -1.3082 -0.3475
 4263TIP3   OH234279   2.944   2.445   3.596  0.2448  0.5160  0.3367
 4263TIP3    H134280   3.004   2.518   3.610 -0.5286  1.2216  0.0486
 4263TIP3    H234281   2.908   2.461   3.508  0.8574 -0.7847 -0.1517
 4264TIP3   OH234282   0.266   1.217   6.356  0.5055  0.0370  0.7865
 4264TIP3    H134283   0.306   1.241   6.273 -0.7532 -0.7006 -0.0475
 4264TIP3    H234284   0.337   1.178   6.407  1.6811  1.9883  0.7127
 4265TIP3   OH234285   3.920   3.760  16.894 -0.8305 -0.3605 -0.4786
 4265TIP3    H134286   3.965   3.694  16.842  1.1019  1.2423 -0.9096
 4265TIP3    H234287   3.964   3.842  16.873 -3.0055  1.0551  0.2318
 4266TIP3   OH234288   4.778   2.594   5.366  0.2923 -0.3112 -0.5081
 4266TIP3    H134289   4.838   2.602   5.440 -0.5996 -0.7504  0.2691
 4266TIP3    H234290   4.694   2.569   5.405 -1.2141  3.3076 -1.2933
 4267TIP3   OH234291   3.631   1.016   0.464 -0.1784 -0.1236  0.2179
 4267TIP3    H134292   3.663   1.097   0.423  1.3990 -2.1735 -2.8799
 4267TIP3    H234293   3.623   0.955   0.391 -0.9313 -2.8919  2.5374
 4268TIP3   OH234294   6.008   5.877  14.704  0.3900 -0.5408  0.1563
 4268TIP3    H134295   6.033   5.797  14.658 -0.2509 -0.8437  0.3290
 4268TIP3    H234296   6.048   5.947  14.654 -0.8818 -0.8198 -1.2723
 4269TIP3   OH234297   5.605   2.007   3.175 -0.4472 -0.5751 -0.5201
 4269TIP3    H134298   5.630   2.010   3.083 -0.0621  0.5075 -0.3838
 4269TIP3    H234299   5.509   2.013   3.174 -0.3433  1.1843 -0.7765
 4270TIP3   OH234300   4.631   3.286   2.530  0.5400  0.4133  0.8106
 4270TIP3    H134301   4.708   3.299   2.475  0.7067  2.5267  1.4931
 4270TIP3    H234302   4.558   3.317   2.477  0.3498 -0.2064  0.7137
 4271TIP3   OH234303   3.731   2.963  15.914  0.3634  0.8842  0.0010
 4271TIP3    H134304   3.647   2.937  15.952  0.6388 -1.0872 -0.6597
 4271TIP3    H234305   3.796   2.937  15.980  0.5664  0.8879 -0.1985
 4272TIP3   OH234306   5.241   1.919   1.463 -0.7798 -0.1267 -0.2808
 4272TIP3    H134307   5.260   1.883   1.549 -1.1055  1.2942  0.4014
 4272TIP3    H234308   5.282   1.858   1.402  1.8913  0.3433  0.9677
 4273TIP3   OH234309   6.630   3.274  16.528 -0.3134  0.1763 -0.2751
 4273TIP3    H134310   6.701   3.280  16.465 -1.1517 -0.3531 -1.2831
 4273TIP3    H234311   6.671   3.292  16.613  0.8422  0.7425 -0.9503
 4274TIP3   OH234312   3.792   6.342  15.066 -0.0154 -0.1781  0.0358
 4274TIP3    H134313   3.871   6.345  15.120  0.9735 -2.1461 -1.2490
 4274TIP3    H234314   3.807   6.407  14.998 -0.5106  1.0661  1.0945
 4275TIP3   OH234315   4.436   6.328   0.642  0.2738 -0.1490 -0.5850
 4275TIP3    H134316   4.420   6.241   0.607  1.0064 -0.3840 -0.3456
 4275TIP3    H234317   4.503   6.365   0.584 -0.9609  0.7491 -1.4706
 4276TIP3   OH234318   1.541   4.436  16.197 -0.2185  0.4434  0.0882
 4276TIP3    H134319   1.596   4.390  16.260 -0.0916 -0.4212 -0.6460
 4276TIP3    H234320   1.553   4.388  16.115 -1.7668  0.4872 -0.1726
 4277TIP3   OH234321   0.688   1.589   2.308  0.6386 -0.1552 -0.2121
 4277TIP3    H134322   0.764   1.646   2.325  0.2261 -0.0256  1.2654
 4277TIP3    H234323   0.612   1.645   2.323  0.2345 -0.1345 -2.2403
 4278TIP3   OH234324   6.411   3.430  11.855  0.2272 -0.1389  0.1527
 4278TIP3    H134325   6.505   3.431  11.838  0.3568  1.1707  0.8714
 4278TIP3    H234326   6.372   3.439  11.768  0.7926  0.5980 -0.0347
 4279TIP3   OH234327   2.592   1.001  16.123 -0.1205  0.3830 -0.1498
 4279TIP3    H134328   2.510   1.045  16.099 -0.0649  1.3406  1.3190
 4279TIP3    H234329   2.564   0.918  16.162 -0.2178 -1.0557 -3.1560
 4280TIP3   OH234330   3.254   4.685  15.266  0.5956 -0.0291 -0.2570
 4280TIP3    H134331   3.295   4.660  15.349 -1.7995  1.2259  1.3612
 4280TIP3    H234332   3.289   4.773  15.248  0.3396  0.1183 -0.0415
 4281TIP3   OH234333   0.658   0.046  16.188 -0.0809 -0.1263  0.1151
 4281TIP3    H134334   0.612   0.016  16.110 -2.0007  0.2853  1.0645
 4281TIP3    H234335   0.699  -0.034  16.223  0.7797 -0.3102 -1.2841
 4282TIP3   OH234336   0.641   5.248   0.526  0.4888 -0.3412 -0.8257
 4282TIP3    H134337   0.553   5.215   0.505  0.8832 -0.5550 -2.1841
 4282TIP3    H234338   0.655   5.222   0.617 -1.1574  0.3497 -0.3484
 4283TIP3   OH234339   1.436   5.512   0.371  0.5842 -0.3278 -0.1399
 4283TIP3    H134340   1.401   5.434   0.329  1.2806 -0.8744  0.2962
 4283TIP3    H234341   1.524   5.522   0.335 -0.3834  1.6941 -2.0983
 4284TIP3   OH234342   4.260   5.383  15.841  0.0063  0.0054 -0.2352
 4284TIP3    H134343   4.326   5.317  15.815  0.4585  0.1251  0.6023
 4284TIP3    H234344   4.310   5.449  15.888 -0.3606  1.2455 -1.5655
 4285TIP3   OH234345   3.005   2.837  15.839 -0.1024 -0.4723  0.4878
 4285TIP3    H134346   2.923   2.851  15.790 -0.7475 -1.7893  1.1670
 4285TIP3    H234347   3.045   2.924  15.843 -1.3146  0.1345 -0.1255
 4286TIP3   OH234348   5.630   3.359   1.292  0.0592  0.6400  0.0838
 4286TIP3    H134349   5.563   3.413   1.335  2.7537  2.6182  1.9622
 4286TIP3    H234350   5.641   3.284   1.349  0.3666  0.9680  0.4578
 4287TIP3   OH234351   5.423   3.069  11.194  0.0184  0.3454  0.5779
 4287TIP3    H134352   5.500   3.016  11.177  0.6581  0.9482  1.5304
 4287TIP3    H234353   5.414   3.125  11.117  0.4840  0.2043  0.4249
 4288TIP3   OH234354   5.179   1.556   0.142  0.1331 -0.3596 -0.1424
 4288TIP3    H134355   5.271   1.562   0.119 -0.1945  0.9072 -1.2199
 4288TIP3    H234356   5.164   1.630   0.201 -0.6233  0.6457 -1.5613
 4289TIP3   OH234357   1.620   6.497   5.625 -0.3977 -0.2194 -0.2476
 4289TIP3    H134358   1.538   6.543   5.642 -0.5544 -0.6184  0.1046
 4289TIP3    H234359   1.671   6.508   5.705 -0.1532 -0.0647 -0.4247
 4290TIP3   OH234360   6.736   3.016   0.160 -0.1078  0.5832  0.3874
 4290TIP3    H134361   6.668   2.959   0.124  0.4042  0.6221 -0.6791
 4290TIP3    H234362   6.775   3.058   0.083  3.4627 -2.0529  0.6606
 4291TIP3   OH234363   3.314   0.481  12.214 -0.3172  0.5050 -0.0292
 4291TIP3    H134364   3.252   0.542  12.253  0.8570  2.0144 -0.4379
 4291TIP3    H234365   3.314   0.503  12.121 -0.8612 -1.0155 -0.3873
 4292TIP3   OH234366   4.318   1.430  11.493  0.1941 -0.9572 -0.4151
 4292TIP3    H134367   4.322   1.345  11.537 -2.0034 -1.3912 -1.0264
 4292TIP3    H234368   4.343   1.411  11.403  1.9241 -0.5418 -0.0464
 4293TIP3   OH234369   3.476   5.100  13.173 -0.5120  0.2536 -0.1353
 4293TIP3    H134370   3.567   5.078  13.155 -0.5010  0.1241  0.0842
 4293TIP3    H234371   3.478   5.191  13.202 -0.5451  0.5112 -0.9238
 4294TIP3   OH234372   0.338   3.061  15.193 -0.4435  0.0882  0.5578
 4294TIP3    H134373   0.359   3.154  15.203 -0.6691  0.1061  0.8736
 4294TIP3    H234374   0.398   3.030  15.126  0.2673  0.2502  1.1169
 4295TIP3   OH234375   3.149   3.468  16.660  0.0236  0.1861  0.0137
 4295TIP3    H134376   3.182   3.417  16.734  0.8107  1.1713  0.3586
 4295TIP3    H234377   3.069   3.423  16.633  1.7598 -2.3925 -0.9980
 4296TIP3   OH234378   2.664   4.003  16.069 -0.1378  0.4678 -0.0807
 4296TIP3    H134379   2.644   4.066  16.000  2.8860  0.0552 -1.4248
 4296TIP3    H234380   2.708   4.056  16.136 -1.3941  0.5194  0.7291
 4297TIP3   OH234381   3.713   5.967   4.297  0.1612 -0.9083 -0.3146
 4297TIP3    H134382   3.631   5.985   4.341  0.4619  4.2384 -1.4795
 4297TIP3    H234383   3.693   5.898   4.234 -2.7409 -1.1121  0.7946
 4298TIP3   OH234384   6.705   5.132  16.899  0.0814  0.4896  0.3802
 4298TIP3    H134385   6.685   5.076  16.825 -0.2412 -0.7767  1.4142
 4298TIP3    H234386   6.641   5.203  16.893  0.2319  0.5463 -0.6995
 4299TIP3   OH234387   0.349   5.169   2.703 -0.3902 -0.0745 -0.5343
 4299TIP3    H134388   0.367   5.086   2.747  1.7063  0.7058  0.1458
 4299TIP3    H234389   0.275   5.206   2.751 -0.3353 -0.8437  0.1443
 4300TIP3   OH234390   6.723   4.421   4.150  0.0672  0.4681  0.5818
 4300TIP3    H134391   6.810   4.417   4.109 -0.8809  2.4754 -1.7419
 4300TIP3    H234392   6.662   4.403   4.079 -1.4660 -1.0181  2.2202
 4301TIP3   OH234393   4.388   2.156  14.797 -0.1874  0.3590  0.0880
 4301TIP3    H134394   4.349   2.239  14.825  0.0199  0.5360 -0.1435
 4301TIP3    H234395   4.426   2.176  14.712 -1.9408 -0.5146 -0.9210
 4302TIP3   OH234396   4.775   5.722   1.778 -0.2448 -0.7993 -0.2231
 4302TIP3    H134397   4.725   5.780   1.835 -1.0248  0.5187 -2.1867
 4302TIP3    H234398   4.847   5.691   1.833 -0.5524  0.9968  1.2571
 4303TIP3   OH234399   1.315   0.131   3.713 -0.0041  0.2412 -0.0999
 4303TIP3    H134400   1.338   0.050   3.668 -1.8197 -0.0616 -0.5216
 4303TIP3    H234401   1.359   0.199   3.663  0.2271 -0.3362 -0.6921
 4304TIP3   OH234402   2.245   3.614   5.159  0.3703  0.0391  0.4651
 4304TIP3    H134403   2.305   3.646   5.227  0.1009 -0.2071  0.8259
 4304TIP3    H234404   2.300   3.601   5.082  0.9014 -0.7763  0.9701
 4305TIP3   OH234405   6.259   0.549   4.708  0.1446 -0.3693 -0.0553
 4305TIP3    H134406   6.280   0.643   4.708  1.4025 -0.6426  0.7233
 4305TIP3    H234407   6.186   0.540   4.769 -1.4144  0.3970 -1.7484
 4306TIP3   OH234408   1.481   2.672   1.795 -0.0699  0.4669 -0.2872
 4306TIP3    H134409   1.472   2.593   1.849  1.8893  0.0317 -0.5595
 4306TIP3    H234410   1.515   2.738   1.855  1.5630  0.1375 -0.8152
 4307TIP3   OH234411   2.838   6.146   1.565 -0.5933  0.0284 -0.3491
 4307TIP3    H134412   2.894   6.108   1.498 -0.5209  0.5375 -0.5783
 4307TIP3    H234413   2.844   6.085   1.639  2.3795  1.4636  0.6393
 4308TIP3   OH234414   3.647   2.908   4.256  0.2612 -0.0284 -0.1558
 4308TIP3    H134415   3.680   2.946   4.174 -2.8239 -0.6608 -1.7819
 4308TIP3    H234416   3.704   2.833   4.273 -1.8106 -2.7856 -4.3766
 4309TIP3   OH234417   2.290   0.874   2.073  0.1687  0.5255  0.3742
 4309TIP3    H134418   2.221   0.929   2.111 -0.7686 -0.5064  0.1730
 4309TIP3    H234419   2.370   0.904   2.117 -0.2444  2.3727 -0.0711
 4310TIP3   OH234420   4.410   3.206  12.001  0.8376 -0.0499 -0.1434
 4310TIP3    H134421   4.450   3.274  11.946 -0.3007  0.8587  0.1225
 4310TIP3    H234422   4.415   3.241  12.090  1.7087 -1.0414  0.1979
 4311TIP3   OH234423   1.369   4.887  12.641 -1.2005  0.4041 -0.0016
 4311TIP3    H134424   1.342   4.913  12.553 -3.9317  1.5153  1.1206
 4311TIP3    H234425   1.453   4.931  12.654  0.1501 -1.2323 -2.6897
 4312TIP3   OH234426   4.615   6.736   3.359  0.1436 -0.0070  0.0416
 4312TIP3    H134427   4.660   6.700   3.283  0.0266 -0.5603  0.2319
 4312TIP3    H234428   4.681   6.790   3.403  0.7013 -1.0358  0.4761
 4313TIP3   OH234429   1.809   2.116  13.482  0.0561  0.2075  0.2355
 4313TIP3    H134430   1.864   2.148  13.554  1.2013 -0.0567 -0.5125
 4313TIP3    H234431   1.862   2.128  13.404 -1.4531  1.1564 -0.6708
 4314TIP3   OH234432   5.419   6.315   0.293  0.0801  0.3775 -0.1635
 4314TIP3    H134433   5.498   6.321   0.239 -1.3766  0.6778 -2.3335
 4314TIP3    H234434   5.421   6.227   0.329  1.3504  0.3490 -0.2699
 4315TIP3   OH234435   4.311   0.218   3.401 -0.4448  0.5087  0.2899
 4315TIP3    H134436   4.369   0.292   3.382 -0.5862  0.4734 -0.2993
 4315TIP3    H234437   4.347   0.146   3.349 -0.6176  0.3028  0.4558
 4316TIP3   OH234438   0.608   4.420   4.679 -0.1749 -0.6596 -0.8728
 4316TIP3    H134439   0.626   4.511   4.705 -3.2198 -0.4444  0.7097
 4316TIP3    H234440   0.550   4.427   4.604 -0.4699 -1.2851 -0.7093
 4317TIP3   OH234441   4.630   4.555   2.399  0.0511  0.0873 -0.2983
 4317TIP3    H134442   4.655   4.542   2.490  0.3070 -2.0965 -0.6597
 4317TIP3    H234443   4.575   4.479   2.378 -1.3087  1.3626 -1.5065
 4318TIP3   OH234444   6.692   5.589   1.737  0.5738  0.0977  0.1300
 4318TIP3    H134445   6.763   5.550   1.686 -0.4316 -1.6383  0.0163
 4318TIP3    H234446   6.679   5.527   1.809 -2.3124 -0.7781 -1.0974
 4319TIP3   OH234447   5.734   3.268   1.777 -0.0621  0.1943 -0.3923
 4319TIP3    H134448   5.750   3.295   1.868  1.6410 -2.0757  0.0389
 4319TIP3    H234449   5.766   3.341   1.725  2.0925  0.1551  0.7976
 4320TIP3   OH234450   2.404   1.974  13.791  0.1698 -0.4003 -0.2496
 4320TIP3    H134451   2.397   1.928  13.875  0.0003  0.7437  0.3709
 4320TIP3    H234452   2.324   1.948  13.744 -0.4138  0.0223  0.4864
 4321TIP3   OH234453   2.706   3.558   3.729  0.6836 -0.6502  0.0930
 4321TIP3    H134454   2.707   3.554   3.633  1.0257 -0.5710  0.0930
 4321TIP3    H234455   2.769   3.492   3.757 -0.3669 -1.5788  0.3004
 4322TIP3   OH234456   3.033   1.514  16.527 -0.1698 -0.1263  0.2268
 4322TIP3    H134457   3.005   1.586  16.583 -1.7704 -1.2488  0.8862
 4322TIP3    H234458   2.955   1.490  16.477  0.6079 -0.7664 -0.7004
 4323TIP3   OH234459   0.218   3.215   0.443  0.6863  0.5170  0.0445
 4323TIP3    H134460   0.166   3.135   0.449 -2.1447  2.3621  1.1208
 4323TIP3    H234461   0.238   3.223   0.350  0.7325 -1.2700 -0.1213
 4324TIP3   OH234462   4.299   5.939  14.790  0.2273  0.3967 -0.2215
 4324TIP3    H134463   4.272   6.023  14.827 -0.4298  0.1852 -0.2094
 4324TIP3    H234464   4.219   5.904  14.750 -0.0238 -1.1710  1.5546
 4325TIP3   OH234465   0.123   5.128  16.533 -0.2158  0.8376 -0.0506
 4325TIP3    H134466   0.150   5.099  16.620 -1.0296 -0.3456 -0.1883
 4325TIP3    H234467   0.101   5.047  16.487 -1.5670  1.6088 -0.7538
 4326TIP3   OH234468   2.522   0.651   2.892 -0.4790  0.1187 -0.0710
 4326TIP3    H134469   2.476   0.701   2.825 -0.0658 -0.9988 -1.2207
 4326TIP3    H234470   2.604   0.700   2.906 -1.2789  1.2259  0.8065
 4327TIP3   OH234471   1.011   6.221   1.241  0.2080  0.6592  0.0247
 4327TIP3    H134472   0.973   6.244   1.326  0.3990 -0.7404  0.4967
 4327TIP3    H234473   1.103   6.204   1.259  0.0049 -0.7780 -0.2534
 4328TIP3   OH234474   2.555   6.120  11.354 -0.1148 -0.9688  0.1865
 4328TIP3    H134475   2.618   6.106  11.425  1.9260  0.3231 -1.3107
 4328TIP3    H234476   2.562   6.041  11.300  0.7593 -0.5092 -0.3751
 4329TIP3   OH234477   3.213   3.303   1.827  0.6034  0.0606  0.1666
 4329TIP3    H134478   3.222   3.254   1.745 -0.8580  0.1808 -0.0759
 4329TIP3    H234479   3.144   3.257   1.875  0.1622  1.0874  0.5282
 4330TIP3   OH234480   1.089   2.454   3.290  0.0249  0.1478 -0.2614
 4330TIP3    H134481   1.006   2.502   3.288  0.7460  1.4263  0.6092
 4330TIP3    H234482   1.125   2.465   3.202  0.1042  1.0619 -0.1192
 4331TIP3   OH234483   3.101   5.607  13.179 -0.1888  0.5511  0.5252
 4331TIP3    H134484   3.057   5.522  13.178 -0.3095  0.6074  0.9165
 4331TIP3    H234485   3.155   5.607  13.101  1.1451 -0.5813  1.4297
 4332TIP3   OH234486   4.146   2.520  16.465 -0.5416 -1.0808  0.3164
 4332TIP3    H134487   4.214   2.587  16.454 -0.5113 -0.9449  1.2684
 4332TIP3    H234488   4.178   2.445  16.415 -0.2789 -0.6000 -0.2511
 4333TIP3   OH234489   4.595   1.038  11.340  0.5858 -0.1875  0.2116
 4333TIP3    H134490   4.602   0.996  11.255  1.8327 -0.9598  0.6853
 4333TIP3    H234491   4.649   1.116  11.333  0.4709 -0.1086  0.2071
 4334TIP3   OH234492   1.214   0.454   0.391 -0.1971 -0.2850 -0.0590
 4334TIP3    H134493   1.187   0.539   0.426  0.5983 -0.0740  0.0482
 4334TIP3    H234494   1.199   0.393   0.463 -2.6679 -0.6005 -0.7753
 4335TIP3   OH234495   0.922   0.445  16.807  0.2376  0.0969  0.4568
 4335TIP3    H134496   0.971   0.432  16.726  1.2923 -0.9120  1.2372
 4335TIP3    H234497   0.942   0.536  16.832  0.7550  0.0745  0.1361
 4336TIP3   OH234498   5.795   1.559  13.254  0.2028  0.7883 -0.0079
 4336TIP3    H134499   5.814   1.554  13.160  0.5862  1.7413  0.0186
 4336TIP3    H234500   5.881   1.567  13.295  0.0350  0.3609  0.4299
 4337TIP3   OH234501   0.552   5.553  11.713  0.2017  0.6793 -0.0148
 4337TIP3    H134502   0.483   5.497  11.747  1.9676 -0.6832  1.4269
 4337TIP3    H234503   0.616   5.558  11.784  2.4253  0.4388 -1.9399
 4338TIP3   OH234504   5.940   3.705   0.613  0.2748  0.0725 -0.0042
 4338TIP3    H134505   6.007   3.689   0.546  1.3675  0.4684  0.9849
 4338TIP3    H234506   5.986   3.748   0.684 -1.1700  0.9710  0.4246
 4339TIP3   OH234507   5.350   0.432   0.816  0.6115  0.4200  0.4373
 4339TIP3    H134508   5.367   0.344   0.852  2.6549  0.1093 -1.1494
 4339TIP3    H234509   5.420   0.445   0.752 -0.2789  2.8088 -0.1023
 4340TIP3   OH234510   6.594   3.317  15.360 -0.0139  0.0517  0.2040
 4340TIP3    H134511   6.620   3.259  15.288  0.7409  0.3226  0.2512
 4340TIP3    H234512   6.536   3.264  15.414  0.6293 -0.6463  0.2219
 4341TIP3   OH234513   1.961   2.631  12.917 -0.7278  0.1313 -0.1141
 4341TIP3    H134514   2.053   2.621  12.895 -0.6677  2.5796 -1.1358
 4341TIP3    H234515   1.944   2.562  12.982  1.6206 -0.7741 -0.4199
 4342TIP3   OH234516   3.291   3.714   4.520  0.0615 -0.3486  0.0449
 4342TIP3    H134517   3.357   3.769   4.477 -0.2345 -0.2893 -0.3448
 4342TIP3    H234518   3.211   3.767   4.517  0.0891 -0.2568  0.8738
 4343TIP3   OH234519   2.264   6.390   2.783 -0.0624 -0.3090  0.6751
 4343TIP3    H134520   2.341   6.351   2.825 -1.1460 -2.4229  0.7501
 4343TIP3    H234521   2.281   6.382   2.689 -0.5025 -1.4535  0.6843
 4344TIP3   OH234522   1.565   3.088  14.469  0.0019  0.5430 -0.5743
 4344TIP3    H134523   1.543   3.174  14.505  0.4467  0.5985 -0.4181
 4344TIP3    H234524   1.610   3.044  14.541  0.4692  0.4734 -0.9052
 4345TIP3   OH234525   2.170   6.155   0.358 -0.1695 -0.3155  0.2017
 4345TIP3    H134526   2.249   6.130   0.406  0.8034  1.6199 -0.3601
 4345TIP3    H234527   2.138   6.072   0.321  2.5461 -0.8917 -1.0054
 4346TIP3   OH234528   4.797   2.581   2.345 -0.0444 -0.6273 -0.0374
 4346TIP3    H134529   4.778   2.547   2.258 -1.9010  2.4760 -0.9116
 4346TIP3    H234530   4.779   2.508   2.404  0.2921 -2.4556 -2.1581
 4347TIP3   OH234531   2.176   0.693  15.220 -0.3703  0.0485  0.4689
 4347TIP3    H134532   2.144   0.620  15.166  1.1819  0.0592 -0.5040
 4347TIP3    H234533   2.271   0.679  15.225  0.0941  2.5774 -0.6134
 4348TIP3   OH234534   4.031   6.427   0.189 -0.1116  0.0667  0.0863
 4348TIP3    H134535   3.952   6.464   0.229 -0.3774  1.3219 -1.5437
 4348TIP3    H234536   4.098   6.434   0.256 -1.1161  0.0088  1.1074
 4349TIP3   OH234537   2.893   4.767  15.643  0.1742 -0.5623 -0.9537
 4349TIP3    H134538   2.898   4.695  15.706  0.5835 -0.8526 -1.3169
 4349TIP3    H234539   2.867   4.725  15.561  0.4948 -0.3038 -1.1872
 4350TIP3   OH234540   3.895   6.620  16.495  0.1592 -0.6813  0.4216
 4350TIP3    H134541   3.938   6.579  16.570 -2.6371 -1.6462  1.5503
 4350TIP3    H234542   3.934   6.578  16.418  0.5177 -2.2232  1.4338
 4351TIP3   OH234543   3.376   1.272  11.467 -0.0465  0.1756  0.0187
 4351TIP3    H134544   3.438   1.200  11.471 -0.8157 -0.5344 -0.5916
 4351TIP3    H234545   3.299   1.240  11.514 -1.5308 -0.5856 -2.7800
 4352TIP3   OH234546   3.136   2.443   4.328 -0.2435  0.6058 -0.1308
 4352TIP3    H134547   3.072   2.492   4.379 -1.0683 -0.6229  0.0413
 4352TIP3    H234548   3.114   2.351   4.343  1.9196  0.1365  0.3864
 4353TIP3   OH234549   6.095   6.025  16.942 -0.2149 -0.2165  0.3387
 4353TIP3    H134550   6.113   5.954  16.881 -0.3098 -0.3514  0.4664
 4353TIP3    H234551   6.181   6.064  16.959 -0.2946  0.3093 -0.4757
 4354TIP3   OH234552   2.057   0.205   1.630  0.0408  0.1128  0.1154
 4354TIP3    H134553   2.085   0.290   1.595 -0.5502 -0.0784 -0.8522
 4354TIP3    H234554   2.072   0.144   1.558 -3.3502  0.0993 -0.6705
 4355TIP3   OH234555   3.925   1.342   0.202  0.8565 -0.1746 -0.1129
 4355TIP3    H134556   3.973   1.381   0.275  3.2026 -1.2818 -1.0270
 4355TIP3    H234557   3.988   1.284   0.159 -0.9792 -0.8481 -2.0107
 4356TIP3   OH234558   5.858   4.480  11.166 -0.3202 -0.1572  0.8804
 4356TIP3    H134559   5.892   4.448  11.249 -1.0595  0.8232  1.5605
 4356TIP3    H234560   5.861   4.575  11.173 -0.3801 -0.0669 -0.2170
 4357TIP3   OH234561   4.613   4.690  11.173  0.4089 -0.2519  0.1657
 4357TIP3    H134562   4.600   4.732  11.258  0.7863  0.2475 -0.0224
 4357TIP3    H234563   4.639   4.761  11.115 -0.8644 -0.4072 -0.6188
 4358TIP3   OH234564   2.769   2.292   0.859 -0.2630 -0.2948 -0.4234
 4358TIP3    H134565   2.769   2.260   0.769  0.3000  0.2160 -0.6098
 4358TIP3    H234566   2.713   2.230   0.907  0.0615 -1.0158 -0.9654
 4359TIP3   OH234567   1.030   4.627   1.542 -0.3255 -0.3302  0.5539
 4359TIP3    H134568   0.994   4.655   1.626  1.2878  2.1369  0.4805
 4359TIP3    H234569   1.094   4.560   1.565 -0.4251 -0.2000  1.2256
 4360TIP3   OH234570   0.714   1.775  16.366 -0.1907 -0.1791 -0.6841
 4360TIP3    H134571   0.773   1.755  16.293 -1.1444 -0.7173 -1.3054
 4360TIP3    H234572   0.689   1.866  16.352 -0.4049 -0.2953 -1.0384
 4361TIP3   OH234573   2.866   1.453   5.891  0.2192  0.4139 -0.0267
 4361TIP3    H134574   2.823   1.396   5.954  0.2494  0.7265  0.2836
 4361TIP3    H234575   2.936   1.495   5.942  0.6202  0.2215 -0.4221
 4362TIP3   OH234576   6.700   1.176  15.009 -0.3500 -0.1947  0.0390
 4362TIP3    H134577   6.621   1.122  15.017 -1.0364  0.9607  1.3977
 4362TIP3    H234578   6.681   1.255  15.061  2.3795 -0.6812  1.9038
 4363TIP3   OH234579   2.866   3.070  13.769 -0.3061 -0.4920  0.6146
 4363TIP3    H134580   2.800   3.031  13.825  0.1414 -1.5596  0.4054
 4363TIP3    H234581   2.864   3.164  13.791 -1.2946 -0.6493  1.1976
 4364TIP3   OH234582   0.386   5.172   4.162  0.4053  1.1688 -0.5189
 4364TIP3    H134583   0.305   5.140   4.201 -0.4773  1.3362 -2.1337
 4364TIP3    H234584   0.448   5.100   4.171  0.5664  1.6125  2.1317
 4365TIP3   OH234585   4.614   3.326  12.199  0.4453  0.2969 -0.3519
 4365TIP3    H134586   4.634   3.241  12.238  1.5095  2.1608  3.4535
 4365TIP3    H234587   4.695   3.377  12.209 -0.9181  2.5346 -0.3131
 4366TIP3   OH234588   2.919   5.727   0.405  0.2662 -0.4701  0.3961
 4366TIP3    H134589   2.829   5.754   0.387 -0.0867 -1.1970  1.0614
 4366TIP3    H234590   2.933   5.749   0.497  0.4738 -1.1487  0.5305
 4367TIP3   OH234591   4.581   2.245   0.395 -0.6004  0.5785  0.0325
 4367TIP3    H134592   4.582   2.341   0.394 -1.0877  0.5871  0.2972
 4367TIP3    H234593   4.659   2.221   0.446 -1.0773  0.8584  0.9041
 4368TIP3   OH234594   4.391   4.324   3.773 -0.0889  0.7276 -0.5133
 4368TIP3    H134595   4.467   4.268   3.788 -0.5913 -0.2255 -1.4246
 4368TIP3    H234596   4.428   4.411   3.755  0.7882  0.2780 -0.9276
 4369TIP3   OH234597   1.839   0.321  12.690 -0.1385 -0.3280  0.0457
 4369TIP3    H134598   1.901   0.363  12.749  2.3968 -2.6430 -0.9010
 4369TIP3    H234599   1.790   0.260  12.746  1.1713 -1.3706  0.0623
 4370TIP3   OH234600   6.606   0.454  12.211  0.5159 -0.0016 -0.5684
 4370TIP3    H134601   6.545   0.521  12.181 -0.4436  0.4363  2.2466
 4370TIP3    H234602   6.679   0.459  12.149 -0.8117  1.6936 -2.0466
 4371TIP3   OH234603   3.735   4.996   5.175  0.2634 -0.2002 -0.1269
 4371TIP3    H134604   3.681   5.048   5.235  1.0220 -0.5454  0.8525
 4371TIP3    H234605   3.756   5.057   5.104  1.6891  1.0448  1.3264
 4372TIP3   OH234606   0.649   4.980  13.912 -0.1437  0.0515  0.3997
 4372TIP3    H134607   0.605   5.065  13.901 -1.0688 -0.5347 -0.4934
 4372TIP3    H234608   0.740   5.002  13.932 -0.3133  1.2504 -0.1297
 4373TIP3   OH234609   6.095   2.605  14.284  0.1501 -0.1244  0.6336
 4373TIP3    H134610   6.145   2.648  14.353 -1.3244  1.0607  1.0087
 4373TIP3    H234611   6.071   2.520  14.321 -2.4117  1.3193  2.4462
 4374TIP3   OH234612   6.674   1.736   2.053  0.3534 -0.3137  0.0364
 4374TIP3    H134613   6.682   1.641   2.047  1.4507 -0.2226  0.0720
 4374TIP3    H234614   6.740   1.762   2.116  1.2574  0.6482 -1.2816
 4375TIP3   OH234615   3.483   0.921  11.515  0.2394 -0.7434 -0.4970
 4375TIP3    H134616   3.546   0.865  11.560  0.7084 -0.8410 -1.2884
 4375TIP3    H234617   3.399   0.900  11.557  0.3684 -2.2228 -0.9718
 4376TIP3   OH234618   2.179   0.118  15.505 -0.0999 -0.2022  0.1345
 4376TIP3    H134619   2.182   0.157  15.592  0.6504 -0.0727  0.0541
 4376TIP3    H234620   2.210   0.028  15.517 -0.3547 -0.3012  0.0606
 4377TIP3   OH234621   0.408   5.145  11.124 -0.1394  0.5520  0.4466
 4377TIP3    H134622   0.360   5.220  11.090  0.4386  1.0913  0.8170
 4377TIP3    H234623   0.392   5.076  11.059 -0.1826  1.1630 -0.2027
 4378TIP3   OH234624   0.881   1.904   2.182 -0.4804  0.0002  0.7163
 4378TIP3    H134625   0.908   1.815   2.163 -1.6107  0.1222 -1.7362
 4378TIP3    H234626   0.931   1.929   2.260  2.3141 -1.6314 -0.4641
 4379TIP3   OH234627   2.017   4.676   0.926  0.0819 -0.3884 -0.0454
 4379TIP3    H134628   2.008   4.765   0.960  1.0130 -0.3723  0.1831
 4379TIP3    H234629   1.958   4.624   0.981  0.3849 -0.1019  0.5633
 4380TIP3   OH234630   1.536   1.388  14.829  0.0490  0.1022 -0.1254
 4380TIP3    H134631   1.555   1.337  14.751  0.8554 -2.0110  1.4179
 4380TIP3    H234632   1.620   1.393  14.876 -0.5324  0.8982  0.8511
 4381TIP3   OH234633   3.236   3.099   5.207  0.3477  0.6774  0.0018
 4381TIP3    H134634   3.152   3.079   5.249  0.7379 -1.5106 -0.2447
 4381TIP3    H234635   3.225   3.069   5.116  2.0873 -1.4975  0.4823
 4382TIP3   OH234636   6.465   2.009   1.560 -0.1100  0.4687 -0.0535
 4382TIP3    H134637   6.486   2.060   1.638  0.8769  1.2802 -0.8441
 4382TIP3    H234638   6.548   1.971   1.533 -0.5089 -0.0788 -0.5321
 4383TIP3   OH234639   2.274   5.341   5.639  0.1704  0.5871  0.2284
 4383TIP3    H134640   2.280   5.396   5.717  1.6719 -2.0644  2.0589
 4383TIP3    H234641   2.364   5.331   5.609  0.3289 -3.0030  1.5659
 4384TIP3   OH234642   4.910   0.325   2.899  0.2484  0.4471  0.4388
 4384TIP3    H134643   4.876   0.393   2.842  0.7774 -0.1158 -0.5670
 4384TIP3    H234644   4.946   0.259   2.839  0.9746 -0.0664  1.4221
 4385TIP3   OH234645   4.465   3.719   5.319  0.1211 -0.0384  1.0794
 4385TIP3    H134646   4.518   3.759   5.389  2.3613 -1.4732  0.2344
 4385TIP3    H234647   4.402   3.787   5.297  2.1388  2.0772  1.5397
 4386TIP3   OH234648   6.397   3.242   0.878  0.3365  0.3999 -0.0430
 4386TIP3    H134649   6.410   3.165   0.821  1.1260  1.3795 -1.2222
 4386TIP3    H234650   6.327   3.291   0.835  1.8070  1.8015 -0.9277
 4387TIP3   OH234651   2.618   0.797   2.518 -0.5357  0.2113 -0.7147
 4387TIP3    H134652   2.577   0.797   2.605 -0.3084  2.4668 -0.5597
 4387TIP3    H234653   2.712   0.805   2.537 -0.5220  1.1730 -1.1491
 4388TIP3   OH234654   1.071   4.132   1.016  0.4379 -0.7311  0.2775
 4388TIP3    H134655   0.978   4.155   1.004  1.3620  2.9687 -0.5056
 4388TIP3    H234656   1.086   4.142   1.110  0.3131 -0.1139  0.2365
 4389TIP3   OH234657   0.933   6.179  15.812  0.2578 -0.3989  0.1766
 4389TIP3    H134658   0.843   6.208  15.796 -0.2644 -1.2394  1.4673
 4389TIP3    H234659   0.980   6.258  15.839 -0.8169 -0.4366  2.3255
 4390TIP3   OH234660   1.813   6.037   5.403 -0.6500  0.1750  0.4011
 4390TIP3    H134661   1.812   5.946   5.373  0.2534 -0.0348  0.9889
 4390TIP3    H234662   1.723   6.055   5.428 -0.8386 -0.5546  0.2541
 4391TIP3   OH234663   1.734   6.327  16.519  0.2970  0.4724 -0.2858
 4391TIP3    H134664   1.676   6.300  16.448  1.1035 -0.3626 -0.6390
 4391TIP3    H234665   1.819   6.289  16.496  0.7928  1.0159  0.6318
 4392TIP3   OH234666   0.138   5.084   4.676  0.4081 -0.0770 -0.2231
 4392TIP3    H134667   0.095   5.148   4.619 -3.8620 -0.5448  2.2391
 4392TIP3    H234668   0.083   5.006   4.670  1.4538 -1.0559  2.3739
 4393TIP3   OH234669   3.907   0.619  17.232  0.8155 -0.0172  0.5169
 4393TIP3    H134670   3.989   0.600  17.187 -0.1659  0.5896 -1.5934
 4393TIP3    H234671   3.899   0.714  17.230 -1.1636 -0.1686 -1.6572
 4394TIP3   OH234672   2.029   3.596  14.945  0.9926 -0.3037  0.4580
 4394TIP3    H134673   2.020   3.639  14.860  1.1051 -0.5196  0.3337
 4394TIP3    H234674   1.967   3.523  14.941 -0.4864  0.8785  1.3401
 4395TIP3   OH234675   6.219   3.283  13.101  0.7075  0.1222  0.1919
 4395TIP3    H134676   6.217   3.294  13.196 -1.0067  1.8677 -0.0090
 4395TIP3    H234677   6.137   3.322  13.071  1.8229  0.7697 -2.1289
 4396TIP3   OH234678   1.554   2.431   5.007 -0.2196 -0.1435  0.0613
 4396TIP3    H134679   1.523   2.340   5.005 -0.8715  0.0756 -0.0076
 4396TIP3    H234680   1.649   2.424   5.010 -0.2038 -0.8100 -1.7148
 4397TIP3   OH234681   2.076   4.246   1.048  0.0831 -0.2662  0.1416
 4397TIP3    H134682   1.980   4.242   1.050  0.0484  0.4881  0.6137
 4397TIP3    H234683   2.104   4.163   1.087 -0.3793 -0.5055 -0.0248
 4398TIP3   OH234684   3.986   1.460   2.625  0.5546 -0.2056  0.5035
 4398TIP3    H134685   3.983   1.486   2.717  0.7475  0.6331  0.2784
 4398TIP3    H234686   4.039   1.528   2.582 -0.6459  0.1576 -0.4677
 4399TIP3   OH234687   4.584   2.720  14.610 -0.0254  0.1229  0.1607
 4399TIP3    H134688   4.608   2.791  14.549  0.2938 -1.6823 -1.8787
 4399TIP3    H234689   4.489   2.713  14.602  0.1008 -0.6283 -0.7280
 4400TIP3   OH234690   5.811   4.456   3.755  0.3238 -0.6087  0.0018
 4400TIP3    H134691   5.817   4.547   3.784 -0.6251 -0.2321 -0.9210
 4400TIP3    H234692   5.832   4.404   3.833 -0.6222  0.3893  0.9547
 4401TIP3   OH234693   1.009   2.610  16.984  0.1448  0.0906 -0.2994
 4401TIP3    H134694   0.932   2.663  16.963 -0.8780 -0.4930  1.8064
 4401TIP3    H234695   0.972   2.526  17.013  1.6841 -1.3440 -2.3218
 4402TIP3   OH234696   2.557   5.820   4.258  0.1710 -0.3727  0.1366
 4402TIP3    H134697   2.572   5.888   4.323  0.3399  2.3732 -2.6850
 4402TIP3    H234698   2.636   5.822   4.202 -1.2005 -0.6847 -1.8745
 4403TIP3   OH234699   6.642   3.166  14.978 -0.2153  0.4633  1.1502
 4403TIP3    H134700   6.672   3.119  14.900 -0.1211  1.1518  0.7767
 4403TIP3    H234701   6.717   3.163  15.038 -0.0115  0.6538  0.9008
 4404TIP3   OH234702   3.896   4.124   5.019  0.5048 -0.3119 -0.6987
 4404TIP3    H134703   3.891   4.195   5.082 -1.2886 -1.0327 -0.0056
 4404TIP3    H234704   3.936   4.052   5.067  0.3706 -0.4428 -0.7823
 4405TIP3   OH234705   5.630   4.407   4.490  0.2608  0.2771  0.5075
 4405TIP3    H134706   5.544   4.400   4.531 -0.2664  1.1951 -0.4309
 4405TIP3    H234707   5.644   4.321   4.449  0.4517 -0.3773  1.9115
 4406TIP3   OH234708   1.273   5.787  13.399 -0.0428 -0.2416  0.0012
 4406TIP3    H134709   1.330   5.863  13.407  2.0908 -1.8642  0.5517
 4406TIP3    H234710   1.184   5.823  13.402  0.9254  2.2842 -0.5123
 4407TIP3   OH234711   4.317   6.469  15.723  0.1647 -0.1410 -0.5605
 4407TIP3    H134712   4.283   6.452  15.811  1.0303  2.6579  0.3762
 4407TIP3    H234713   4.412   6.467  15.733  0.2666 -1.2657 -1.7392
 4408TIP3   OH234714   1.350   5.630   3.015  0.0462  0.1684  0.4254
 4408TIP3    H134715   1.405   5.575   2.960  0.4178  1.3262 -0.3700
 4408TIP3    H234716   1.270   5.578   3.028  0.1347 -0.3084 -0.8288
 4409TIP3   OH234717   1.996   3.243  16.609  0.3253  0.3480  0.2680
 4409TIP3    H134718   1.989   3.192  16.690 -1.4372 -0.9614 -0.6667
 4409TIP3    H234719   1.960   3.329  16.632  0.1123  0.0805  0.9604
 4410TIP3   OH234720   2.909   4.601  16.353 -0.5648  0.8636  0.0299
 4410TIP3    H134721   2.951   4.615  16.438  1.3579  0.3184 -0.8044
 4410TIP3    H234722   2.845   4.531  16.369  1.9958 -1.4720  0.3783
 4411TIP3   OH234723   1.580   5.816  14.225 -0.3213  0.5284 -0.1836
 4411TIP3    H134724   1.615   5.904  14.211 -0.2912  0.5860  0.2704
 4411TIP3    H234725   1.489   5.830  14.250  0.4627  0.5722  2.7778
 4412TIP3   OH234726   2.781   6.122  10.884 -0.1154  0.0765 -0.9599
 4412TIP3    H134727   2.801   6.212  10.859  0.8560  0.0983 -0.1185
 4412TIP3    H234728   2.687   6.114  10.869 -0.6215  1.9078  1.0765
 4413TIP3   OH234729   5.979   0.567   5.395  0.5288  0.3491 -0.9764
 4413TIP3    H134730   6.004   0.590   5.485  1.4931  0.8801 -1.3716
 4413TIP3    H234731   5.883   0.571   5.395  0.4578 -0.8282  0.3418
 4414TIP3   OH234732   2.243   0.157   5.744 -0.1286 -0.1181 -0.2108
 4414TIP3    H134733   2.200   0.193   5.666 -1.2201  0.5635  0.6868
 4414TIP3    H234734   2.298   0.229   5.776  0.7314 -0.5786 -0.6603
 4415TIP3   OH234735   3.323   5.387  13.969  0.1476  0.3156  0.1683
 4415TIP3    H134736   3.281   5.473  13.962 -0.2728  0.0622 -0.3990
 4415TIP3    H234737   3.299   5.356  14.056  0.2121  0.7263  0.3352
 4416TIP3   OH234738   3.623   0.671   3.567 -0.3475 -0.1618  0.3353
 4416TIP3    H134739   3.572   0.636   3.494  1.7002  1.1770 -1.8168
 4416TIP3    H234740   3.590   0.760   3.579 -0.7900 -0.4322  1.1789
 4417TIP3   OH234741   4.461   4.495  13.188  0.0842 -0.3132  0.4519
 4417TIP3    H134742   4.371   4.516  13.162  0.1807 -0.0105  0.3589
 4417TIP3    H234743   4.494   4.576  13.226  0.9923  0.2008 -1.3706
 4418TIP3   OH234744   1.486   2.020  13.618  0.4880 -0.2001  0.0757
 4418TIP3    H134745   1.566   1.978  13.649 -0.0408 -1.2798 -0.0089
 4418TIP3    H234746   1.437   1.950  13.574 -1.1397  0.1267  1.3324
 4419TIP3   OH234747   5.193   0.734  13.698 -0.0769  0.3276  0.1461
 4419TIP3    H134748   5.231   0.646  13.706 -0.9483 -0.0763 -0.0993
 4419TIP3    H234749   5.145   0.747  13.780  0.1668  0.6385  0.2415
 4420TIP3   OH234750   6.081   2.518   5.291  0.0730 -0.3406  0.3091
 4420TIP3    H134751   6.085   2.517   5.387  2.4069  0.0941  0.2534
 4420TIP3    H234752   6.171   2.535   5.264 -0.8641  1.2627 -1.9398
 4421TIP3   OH234753   4.824   0.299  13.013 -0.0298 -0.1936 -0.5000
 4421TIP3    H134754   4.914   0.292  12.981 -0.2681 -0.7637 -1.0717
 4421TIP3    H234755   4.830   0.290  13.108  0.7445  1.9095 -0.3241
 4422TIP3   OH234756   4.349   4.943   4.425  0.2042 -0.1905 -0.5741
 4422TIP3    H134757   4.421   4.898   4.470  1.4935  0.0442 -2.3778
 4422TIP3    H234758   4.271   4.919   4.476  1.5527 -0.2767  1.5344
 4423TIP3   OH234759   0.900   6.041  14.791 -0.3290  0.4638  0.1814
 4423TIP3    H134760   0.951   6.075  14.864 -1.9527 -0.5245  1.8090
 4423TIP3    H234761   0.861   5.960  14.824 -1.0349 -0.0457 -1.8086
 4424TIP3   OH234762   2.017   1.276   6.154 -0.2384  0.1869 -0.2701
 4424TIP3    H134763   1.949   1.210   6.166  0.2022 -0.4888 -1.4541
 4424TIP3    H234764   2.088   1.229   6.110  1.3045  0.6840  1.6149
 4425TIP3   OH234765   5.194   2.375  15.021  0.2536 -0.0989 -0.1855
 4425TIP3    H134766   5.221   2.374  15.113 -1.0723 -2.1518  0.2341
 4425TIP3    H234767   5.196   2.283  14.995 -0.6642  0.3247 -1.8178
 4426TIP3   OH234768   4.552   4.173   4.830 -0.0238 -0.2924  0.0656
 4426TIP3    H134769   4.583   4.091   4.870  0.1512  0.5879  1.7571
 4426TIP3    H234770   4.625   4.202   4.775 -0.3844 -1.6716 -1.2023
 4427TIP3   OH234771   4.726   4.772  14.294 -0.5438  0.0318 -0.3028
 4427TIP3    H134772   4.712   4.798  14.385 -0.6873  0.0811 -0.3388
 4427TIP3    H234773   4.659   4.819  14.245  0.1000  0.6970 -0.5467
 4428TIP3   OH234774   5.615   5.488  17.088  0.4309 -0.8240 -0.1453
 4428TIP3    H134775   5.644   5.539  17.013  0.8611 -0.3569  0.3333
 4428TIP3    H234776   5.532   5.449  17.060  0.2803 -0.1538 -0.6434
 4429TIP3   OH234777   0.198   5.915  15.557  0.1126 -0.2795  0.0453
 4429TIP3    H134778   0.269   5.877  15.608 -1.2396 -1.4430  1.1221
 4429TIP3    H234779   0.152   5.840  15.519  0.9219  0.5375 -2.7236
 4430TIP3   OH234780   2.951   6.188   4.688  0.1066  0.1060  0.0688
 4430TIP3    H134781   3.005   6.233   4.623  0.6132 -0.8368 -0.1759
 4430TIP3    H234782   3.006   6.115   4.718 -0.5405 -0.0978  0.7668
 4431TIP3   OH234783   1.081   4.046   2.110  0.1663  0.3741  0.2825
 4431TIP3    H134784   1.153   3.990   2.082 -0.6293  0.3261 -1.7931
 4431TIP3    H234785   1.052   4.008   2.192  1.6659 -0.3801  0.4818
 4432TIP3   OH234786   4.888   2.286  11.314 -0.4923 -0.6158  0.0267
 4432TIP3    H134787   4.899   2.359  11.253  0.2882  0.4691  1.4094
 4432TIP3    H234788   4.872   2.328  11.399 -2.2904 -2.0967  0.4425
 4433TIP3   OH234789   2.839   3.638  11.058 -0.2507 -0.3292 -0.4363
 4433TIP3    H134790   2.881   3.563  11.016 -0.1427 -0.5887  0.1327
 4433TIP3    H234791   2.845   3.620  11.152 -0.9665 -0.0076 -0.3227
 4434TIP3   OH234792   2.399   1.774  16.505  0.2047 -0.6945 -0.1295
 4434TIP3    H134793   2.488   1.754  16.533 -0.0475 -0.4787  0.8348
 4434TIP3    H234794   2.354   1.803  16.585 -0.6936 -0.6818 -0.6294
 4435TIP3   OH234795   1.773   5.013   3.729 -0.4382 -0.9393  0.3245
 4435TIP3    H134796   1.691   5.032   3.684  0.3275  1.3263 -0.2160
 4435TIP3    H234797   1.773   5.071   3.805  1.1291 -0.0966 -0.2896
 4436TIP3   OH234798   3.441   1.087   3.953 -0.5151  0.6882 -1.2278
 4436TIP3    H134799   3.431   1.160   4.013  0.0316  0.1140 -0.4318
 4436TIP3    H234800   3.412   1.010   4.002  1.6005 -0.0512 -1.0604
 4437TIP3   OH234801   4.477   2.084   3.069 -0.2690  0.2097  0.1001
 4437TIP3    H134802   4.571   2.097   3.055  0.0703 -0.6522  1.4992
 4437TIP3    H234803   4.462   1.992   3.046 -0.6097  0.1071  0.7480
 4438TIP3   OH234804   3.255   1.802  13.217 -0.3788  0.4919 -0.0732
 4438TIP3    H134805   3.258   1.740  13.143  0.2166  0.2971  0.1095
 4438TIP3    H234806   3.304   1.758  13.287 -0.4243  0.9365  0.2417
 4439TIP3   OH234807   5.110   6.286  12.398  0.5934  0.1676  0.3994
 4439TIP3    H134808   5.098   6.310  12.306  2.6407 -1.0450 -0.2211
 4439TIP3    H234809   5.050   6.214  12.413 -0.2452  0.8194  0.2153
 4440TIP3   OH234810   2.711   3.807  12.797 -0.3605 -0.0582  1.0324
 4440TIP3    H134811   2.670   3.891  12.775  1.4361  0.6668  0.3686
 4440TIP3    H234812   2.669   3.744  12.737 -0.7358  0.6071  0.5869
 4441TIP3   OH234813   5.886   2.293   3.557  0.2026 -1.0377  0.6955
 4441TIP3    H134814   5.833   2.298   3.636  2.0471  1.7566  1.8632
 4441TIP3    H234815   5.843   2.353   3.495  0.9262 -0.1927  0.9959
 4442TIP3   OH234816   2.945   5.705   0.689  0.1423 -0.1676  0.0009
 4442TIP3    H134817   3.027   5.655   0.689  2.4251  3.3013  2.4258
 4442TIP3    H234818   2.912   5.695   0.778  0.1856  1.8804  0.2626
 4443TIP3   OH234819   1.955   1.350  12.241 -0.4342 -0.0172  0.0806
 4443TIP3    H134820   2.043   1.314  12.251  0.0842  1.6088  1.8554
 4443TIP3    H234821   1.950   1.379  12.150  1.4792  1.3754  0.3949
 4444TIP3   OH234822   1.236   5.282  11.544  0.1023  0.4167  0.5436
 4444TIP3    H134823   1.276   5.281  11.631 -2.4194 -2.1675  1.7626
 4444TIP3    H234824   1.143   5.300  11.560 -0.5280 -0.7653 -1.5160
 4445TIP3   OH234825   5.862   2.035   2.804  0.1775  0.1545  0.3376
 4445TIP3    H134826   5.844   2.113   2.856 -1.4155 -0.3088  0.5050
 4445TIP3    H234827   5.795   2.036   2.735  0.6223 -0.6513 -0.1147
 4446TIP3   OH234828   4.593   3.656  12.778 -0.1583  0.0567 -0.3693
 4446TIP3    H134829   4.686   3.661  12.757 -0.0449 -0.3720  0.0378
 4446TIP3    H234830   4.552   3.624  12.697  0.2232 -1.1270 -0.1002
 4447TIP3   OH234831   2.980   6.143   2.524  0.0554 -0.0394 -1.0752
 4447TIP3    H134832   2.908   6.151   2.462  0.8154 -2.8791 -2.4028
 4447TIP3    H234833   2.946   6.178   2.606 -2.0789  0.6982 -2.2512
 4448TIP3   OH234834   2.095   4.431  16.431  0.2508  0.2026  0.0754
 4448TIP3    H134835   2.126   4.390  16.350  1.9242  1.7725 -0.1180
 4448TIP3    H234836   2.004   4.453  16.414 -0.3456 -2.3364 -0.2316
 4449TIP3   OH234837   2.108   1.682  17.039 -0.4364  0.1750 -0.3066
 4449TIP3    H134838   2.082   1.625  16.967 -0.0930  0.0884 -0.3591
 4449TIP3    H234839   2.112   1.769  17.000 -2.3878  0.4727  0.0965
 4450TIP3   OH234840   0.004   3.222  15.479 -0.1923  0.5308  0.5441
 4450TIP3    H134841   0.056   3.173  15.416 -0.8041 -0.2348  0.6273
 4450TIP3    H234842  -0.069   3.257  15.428 -0.1768  0.7047  0.6396
 4451TIP3   OH234843   6.716   0.290  16.875  0.2322  0.1003 -0.3408
 4451TIP3    H134844   6.693   0.260  16.787  0.3944 -2.7603  0.5320
 4451TIP3    H234845   6.640   0.268  16.929  1.3570 -1.1023  0.8043
 4452TIP3   OH234846   2.746   3.550  15.002 -0.2636  0.0443 -0.9109
 4452TIP3    H134847   2.665   3.592  15.031 -1.2561 -2.1915 -0.2520
 4452TIP3    H234848   2.715   3.475  14.950  1.3951 -0.5332 -1.0743
 4453TIP3   OH234849   1.269   6.270   1.673 -0.0104  0.1434  0.4408
 4453TIP3    H134850   1.241   6.344   1.619  0.7084 -0.6837 -1.1010
 4453TIP3    H234851   1.345   6.235   1.627 -2.0535 -3.3502 -0.4690
 4454TIP3   OH234852   6.217   1.166  14.130  0.3124  0.1030  0.2421
 4454TIP3    H134853   6.129   1.204  14.130 -0.4354 -1.5864 -0.9873
 4454TIP3    H234854   6.206   1.080  14.090  2.1282 -1.0639  2.1292
 4455TIP3   OH234855   4.813   1.001  11.889  0.2786 -0.0609 -0.4984
 4455TIP3    H134856   4.824   0.923  11.835 -2.8020 -0.3388 -0.8316
 4455TIP3    H234857   4.745   0.977  11.953 -0.1895  2.0926 -0.1273
 4456TIP3   OH234858   2.087   2.197   4.493 -0.3439 -0.1670 -0.6748
 4456TIP3    H134859   2.046   2.232   4.414 -2.5003 -2.7807 -0.8008
 4456TIP3    H234860   2.145   2.128   4.461 -1.5658 -1.5397  0.0020
 4457TIP3   OH234861   0.978   6.486   1.332  0.3136  0.0095  0.6740
 4457TIP3    H134862   0.912   6.427   1.370  1.6931 -0.7547  1.9546
 4457TIP3    H234863   0.934   6.570   1.324 -2.2216 -1.5113 -2.6710
 4458TIP3   OH234864   2.840   4.526   5.831  0.5017 -0.4565 -0.0621
 4458TIP3    H134865   2.799   4.446   5.798  0.4669 -0.3234 -0.3450
 4458TIP3    H234866   2.828   4.522   5.926 -1.4671  0.2921 -0.2603
 4459TIP3   OH234867   2.681   2.584   6.372  0.9742 -0.2554 -0.1198
 4459TIP3    H134868   2.618   2.521   6.337  1.9114 -0.1195 -2.1245
 4459TIP3    H234869   2.763   2.536   6.376  0.9598 -0.1512  1.5810
 4460TIP3   OH234870   4.013   0.886  14.832 -1.0362 -0.0860 -0.0866
 4460TIP3    H134871   4.021   0.824  14.759 -2.1853 -1.5104  0.9661
 4460TIP3    H234872   3.937   0.940  14.809 -0.8691  0.0395 -0.3519
 4461TIP3   OH234873   6.639   5.901  12.831 -0.4386 -0.1245 -0.0172
 4461TIP3    H134874   6.594   5.889  12.748  0.5756  0.3967 -0.6593
 4461TIP3    H234875   6.730   5.877  12.812  0.1215  1.4885  0.5394
 4462TIP3   OH234876   4.773   6.564   2.623 -0.1271  0.6007 -0.0983
 4462TIP3    H134877   4.865   6.542   2.610 -0.7306 -1.3894 -1.0641
 4462TIP3    H234878   4.765   6.655   2.592  1.6295  1.0148  0.6240
 4463TIP3   OH234879   5.786   2.973   2.250  0.1714  0.5108  0.2487
 4463TIP3    H134880   5.710   2.931   2.290 -0.1971 -1.2226 -2.1202
 4463TIP3    H234881   5.848   2.901   2.236  0.2031  0.9914 -2.3757
 4464TIP3   OH234882   5.702   3.281   2.317  0.2831  0.3991  0.0010
 4464TIP3    H134883   5.656   3.220   2.260  0.5872  0.4602 -0.3111
 4464TIP3    H234884   5.774   3.231   2.355 -0.9683 -0.1484  1.7373
 4465TIP3   OH234885   2.522   4.140   2.051 -0.5246 -0.1818 -0.3471
 4465TIP3    H134886   2.461   4.078   2.091 -0.2283 -0.7191 -0.7145
 4465TIP3    H234887   2.502   4.224   2.093 -1.6135 -0.3181 -0.5812
 4466TIP3   OH234888   1.289   1.075   1.226  0.0467  0.1930  0.4902
 4466TIP3    H134889   1.265   1.163   1.256 -0.5949  0.1154  0.2191
 4466TIP3    H234890   1.339   1.038   1.298  0.3921  0.8141  0.5723
 4467TIP3   OH234891   4.812   6.250   3.036 -0.7382  0.0736 -0.2178
 4467TIP3    H134892   4.892   6.286   3.077 -0.9148 -1.5343  1.6238
 4467TIP3    H234893   4.782   6.320   2.978  0.7592  1.5955  0.7687
 4468TIP3   OH234894   5.764   4.719   4.347 -0.0433 -0.0435  0.4257
 4468TIP3    H134895   5.746   4.626   4.335  0.4334 -0.1466  0.5107
 4468TIP3    H234896   5.751   4.734   4.441  0.8761 -0.2401  0.5843
 4469TIP3   OH234897   4.431   1.365   3.644 -0.3174  0.8306 -0.1378
 4469TIP3    H134898   4.435   1.461   3.652 -0.0029  0.9737 -1.7704
 4469TIP3    H234899   4.473   1.347   3.560  1.0780 -0.8881  0.9097
 4470TIP3   OH234900   2.115   4.504  14.868  0.0284 -0.1321 -0.4226
 4470TIP3    H134901   2.154   4.419  14.884  0.7420  0.1302 -0.7667
 4470TIP3    H234902   2.026   4.497  14.905  0.1425 -0.9587 -0.3009
 4471TIP3   OH234903   0.378   2.590  17.179 -0.4956 -0.5408  0.2303
 4471TIP3    H134904   0.293   2.548  17.169 -0.0819 -1.7849  1.7665
 4471TIP3    H234905   0.433   2.549  17.112 -1.0692  0.1979 -0.7020
 4472TIP3   OH234906   2.443   2.604   6.101  0.1806 -0.3526  0.0509
 4472TIP3    H134907   2.356   2.567   6.120 -0.3144  0.6822 -0.1628
 4472TIP3    H234908   2.462   2.660   6.177 -0.2063  0.9558 -0.8027
 4473TIP3   OH234909   3.835   4.664  14.038 -0.4106  0.4175  0.4655
 4473TIP3    H134910   3.929   4.667  14.050 -0.2307  0.6866 -0.9834
 4473TIP3    H234911   3.801   4.736  14.093  0.0903 -0.4802  1.9969
 4474TIP3   OH234912   5.065   3.581   2.654 -0.3700 -0.5223 -0.3403
 4474TIP3    H134913   5.031   3.602   2.566 -1.1150  0.9145  0.2706
 4474TIP3    H234914   5.042   3.489   2.667  0.9634 -1.1480 -2.2021
 4475TIP3   OH234915   0.493   2.400  14.171 -0.0982 -0.2399 -0.2703
 4475TIP3    H134916   0.491   2.370  14.262  1.2475 -0.9449 -0.4481
 4475TIP3    H234917   0.418   2.458  14.163  1.2363  1.9164  2.0138
 4476TIP3   OH234918   0.420   5.475   5.033  0.1677  0.5286  0.1873
 4476TIP3    H134919   0.419   5.380   5.042 -1.3920  0.7805  3.3511
 4476TIP3    H234920   0.509   5.500   5.055  0.5063 -0.1470 -0.3809
 4477TIP3   OH234921   3.396   1.485  15.991  0.4422  0.0573  0.0286
 4477TIP3    H134922   3.374   1.429  16.066 -1.9177  0.0128 -0.6321
 4477TIP3    H234923   3.474   1.533  16.019  0.1865 -0.6742  2.1358
 4478TIP3   OH234924   0.938   5.024  12.355 -0.2160  0.9211 -1.0375
 4478TIP3    H134925   0.907   5.114  12.353  0.3013  1.1402  0.2751
 4478TIP3    H234926   0.913   4.992  12.442  0.4346  0.1106 -1.1400
 4479TIP3   OH234927   3.266   0.604  16.578  0.6338 -0.2435 -0.0185
 4479TIP3    H134928   3.173   0.625  16.573  0.9557  1.2657  0.1781
 4479TIP3    H234929   3.287   0.566  16.493  0.5092  2.2152 -1.1837
 4480TIP3   OH234930   5.023   3.244  16.779 -0.8057 -0.2449  0.0504
 4480TIP3    H134931   5.045   3.250  16.686  1.8451  1.1995  0.7222
 4480TIP3    H234932   5.018   3.150  16.796  2.2443 -0.6239 -0.8010
 4481TIP3   OH234933   4.890   4.383  13.223 -0.4633  0.4766 -0.0065
 4481TIP3    H134934   4.840   4.371  13.142  1.5292 -3.8515 -0.7633
 4481TIP3    H234935   4.865   4.308  13.278 -0.1756  2.1894  2.5529
 4482TIP3   OH234936   4.218   0.338  16.189 -0.5481 -0.3839  0.1040
 4482TIP3    H134937   4.240   0.334  16.282 -1.5619 -1.2409  0.3227
 4482TIP3    H234938   4.124   0.318  16.185 -0.6078  0.0372 -1.0649
 4483TIP3   OH234939   3.058   3.319   3.518 -0.0384  0.1656 -0.3935
 4483TIP3    H134940   3.065   3.413   3.538 -2.1386  0.2897 -0.1860
 4483TIP3    H234941   2.986   3.312   3.456 -0.7519 -1.4555  0.5872
 4484TIP3   OH234942   4.558   0.792   0.419  0.2357 -0.1964  0.1441
 4484TIP3    H134943   4.486   0.803   0.357 -1.0365 -1.3431  1.3943
 4484TIP3    H234944   4.615   0.867   0.401 -1.8733  1.4376 -0.0385
 4485TIP3   OH234945   0.789   3.039   3.146  0.4500 -0.0511 -0.1011
 4485TIP3    H134946   0.766   2.975   3.214 -1.2272  2.3885  1.6875
 4485TIP3    H234947   0.880   3.062   3.163  0.9597 -1.6594 -0.5505
 4486TIP3   OH234948   3.343   1.763  12.488 -0.0086 -0.1501 -0.4350
 4486TIP3    H134949   3.357   1.686  12.431  1.4609  0.1537 -0.5185
 4486TIP3    H234950   3.383   1.738  12.571  0.4086  0.4885 -0.4389
 4487TIP3   OH234951   1.396   2.397  12.309 -0.2458 -0.6042  0.6698
 4487TIP3    H134952   1.481   2.433  12.286  0.0905 -1.6409  0.2587
 4487TIP3    H234953   1.368   2.349  12.231 -1.7217  0.6639  0.3926
 4488TIP3   OH234954   3.759   1.839  16.587 -0.7842  0.5487 -0.1099
 4488TIP3    H134955   3.759   1.886  16.504 -2.2530  2.0912  0.7192
 4488TIP3    H234956   3.843   1.862  16.627 -0.9551  1.4806 -0.2721
 4489TIP3   OH234957   3.757   1.030   3.054 -0.1689 -0.1157  0.3517
 4489TIP3    H134958   3.798   1.047   2.970 -2.9692  2.0200 -0.6628
 4489TIP3    H234959   3.783   1.104   3.109  0.2469 -0.6247  0.8544
 4490TIP3   OH234960   2.610   1.831   5.021  0.3115  0.3310 -0.4457
 4490TIP3    H134961   2.694   1.875   5.030  0.9789 -0.6121 -2.0526
 4490TIP3    H234962   2.559   1.862   5.096  1.9437  1.2040  0.3187
 4491TIP3   OH234963   4.026   1.616   5.322 -0.1201  0.4880 -0.2249
 4491TIP3    H134964   4.093   1.565   5.366  1.3367  0.5897 -2.2387
 4491TIP3    H234965   4.058   1.706   5.327 -0.5839  0.6571 -0.3225
 4492TIP3   OH234966   1.167   2.822   5.733  0.2923 -0.1583 -0.0737
 4492TIP3    H134967   1.072   2.806   5.734  0.1662  0.6202  0.5625
 4492TIP3    H234968   1.186   2.844   5.642 -0.2384  0.2559 -0.0896
 4493TIP3   OH234969   2.674   4.720  14.955 -0.5239 -0.1901  0.9080
 4493TIP3    H134970   2.663   4.796  15.012  1.8819  0.1433  0.9631
 4493TIP3    H234971   2.723   4.657  15.009  1.8979  0.1708 -0.7989
 4494TIP3   OH234972   6.360   3.842  14.330 -0.3026  0.8955 -0.1602
 4494TIP3    H134973   6.343   3.914  14.269 -1.5424  1.6648  1.0490
 4494TIP3    H234974   6.274   3.822  14.368 -0.0739 -1.5977 -0.8500
 4495TIP3   OH234975   6.582   4.784  15.152  0.0290 -0.5869  0.2159
 4495TIP3    H134976   6.595   4.819  15.239  1.0431 -0.2367 -0.0768
 4495TIP3    H234977   6.488   4.795  15.135 -0.1533 -0.5966  1.2235
 4496TIP3   OH234978   6.187   0.778   2.608  0.0989  0.7235  0.2454
 4496TIP3    H134979   6.278   0.748   2.614 -0.1595  0.0154  0.6913
 4496TIP3    H234980   6.135   0.698   2.605 -0.6055  1.1194  1.5577
 4497TIP3   OH234981   6.710   4.293   2.626  0.1096  0.0607  0.7106
 4497TIP3    H134982   6.640   4.355   2.649 -0.8458 -1.0612  0.9090
 4497TIP3    H234983   6.765   4.289   2.704  0.6510  1.2843  0.3980
 4498TIP3   OH234984   0.052   1.269  12.626  0.1685  0.0870 -0.1877
 4498TIP3    H134985   0.143   1.257  12.650  0.0264 -0.9901 -0.1613
 4498TIP3    H234986   0.003   1.211  12.685 -0.3180 -1.2336 -1.8331
 4499TIP3   OH234987   2.112   0.470   5.552 -0.9609  0.2319  0.0131
 4499TIP3    H134988   2.128   0.458   5.646  2.1194 -0.2149 -0.5045
 4499TIP3    H234989   2.094   0.563   5.542  0.5307  0.6148  0.8231
 4500TIP3   OH234990   6.305   5.653  12.738 -0.7153 -0.1433  0.1467
 4500TIP3    H134991   6.233   5.704  12.775  0.7799  1.0443  1.4487
 4500TIP3    H234992   6.368   5.718  12.708  0.8150 -1.1893  1.0223
 4501TIP3   OH234993   5.954   2.855  15.133  0.6259 -0.2998  0.3025
 4501TIP3    H134994   5.929   2.875  15.223  0.1161 -0.0029  0.0984
 4501TIP3    H234995   5.934   2.935  15.084 -0.2677 -0.8874 -0.3056
 4502TIP3   OH234996   6.240   6.431   1.349 -0.7559  0.0946  0.3742
 4502TIP3    H134997   6.241   6.518   1.389 -1.5611  0.1483  0.2838
 4502TIP3    H234998   6.298   6.439   1.273 -0.8999  0.5744  0.3125
 4503TIP3   OH234999   5.208   4.911  14.756 -0.0125  0.2109  0.2607
 4503TIP3    H135000   5.284   4.923  14.700  0.2689 -2.2561  0.0692
 4503TIP3    H235001   5.243   4.915  14.845  0.0335  0.8958  0.2192
 4504TIP3   OH235002   4.805   2.976  14.740 -0.6400 -0.2181  0.6746
 4504TIP3    H135003   4.749   2.908  14.703 -0.0703 -1.0999  1.4262
 4504TIP3    H235004   4.763   3.058  14.714 -1.9424 -0.8634  0.6961
 4505TIP3   OH235005   2.542   0.968   5.560 -0.1859 -0.3065  0.1203
 4505TIP3    H135006   2.556   0.904   5.629 -1.0986 -1.6335 -0.8998
 4505TIP3    H235007   2.624   1.017   5.556  0.5747 -1.4808  0.8241
 4506TIP3   OH235008   4.996   6.679  15.890  0.3938 -0.2877  0.3650
 4506TIP3    H135009   4.902   6.682  15.909  0.1639  0.6138 -0.8186
 4506TIP3    H235010   5.030   6.611  15.948 -0.7595  0.3014  1.7821
 4507TIP3   OH235011   1.340   4.519   6.139 -0.6725 -0.1578 -0.2441
 4507TIP3    H135012   1.313   4.609   6.156 -0.9822  0.0862 -1.8951
 4507TIP3    H235013   1.414   4.527   6.079 -0.3772 -0.9860  0.0026
 4508TIP3   OH235014   3.730   2.936  14.223  0.2174  0.5952 -0.0924
 4508TIP3    H135015   3.732   2.845  14.193 -1.6897  0.4648  0.1141
 4508TIP3    H235016   3.753   2.931  14.315 -0.5669  0.2363  0.0876
 4509TIP3   OH235017   2.275   2.904  10.823  0.5070 -0.3383  0.3604
 4509TIP3    H135018   2.243   2.821  10.859 -1.5177  0.4964  0.5714
 4509TIP3    H235019   2.208   2.968  10.848  0.8859  0.9350 -1.7527
 4510TIP3   OH235020   2.786   5.283  13.002 -0.5890  0.2645 -0.3203
 4510TIP3    H135021   2.717   5.280  13.068 -2.3209  2.5529 -1.9558
 4510TIP3    H235022   2.843   5.209  13.024 -1.9499  0.0584  2.7877
 4511TIP3   OH235023   0.399   5.070   5.952  0.5932 -0.2062 -0.5964
 4511TIP3    H135024   0.335   5.056   6.021 -0.8375 -1.3289 -2.1340
 4511TIP3    H235025   0.362   5.141   5.899  0.5184 -1.0145 -1.6242
 4512TIP3   OH235026   2.178   0.355  15.362  0.3265  0.4867  0.3029
 4512TIP3    H135027   2.179   0.263  15.388  3.0112 -0.0232 -1.3085
 4512TIP3    H235028   2.125   0.356  15.282 -0.8617  0.5884  1.0883
 4513TIP3   OH235029   2.134   3.909   3.915 -0.4715 -0.1973  0.9208
 4513TIP3    H135030   2.127   4.004   3.910  0.8881 -0.0995  0.7375
 4513TIP3    H235031   2.160   3.892   4.006  1.0418 -0.2624  0.4963
 4514TIP3   OH235032   4.665   1.929  11.718 -0.3420 -0.1218 -0.8407
 4514TIP3    H135033   4.692   1.995  11.782  1.2144 -0.0833 -1.5151
 4514TIP3    H235034   4.597   1.972  11.667 -1.2646  0.0144  0.4730
 4515TIP3   OH235035   4.657   6.514   2.135  0.6415 -0.4360 -0.0718
 4515TIP3    H135036   4.724   6.569   2.176  0.2439 -0.8695  1.1757
 4515TIP3    H235037   4.674   6.426   2.168 -0.1929 -0.6474 -0.1871
 4516TIP3   OH235038   6.735   6.743   2.143 -0.3077  0.3357 -0.4415
 4516TIP3    H135039   6.641   6.752   2.160 -0.3966 -2.5198  1.0547
 4516TIP3    H235040   6.775   6.749   2.230  0.4195 -2.7183 -0.5024
 4517TIP3   OH235041   5.049   0.403  15.838  0.0444  0.0235  0.0892
 4517TIP3    H135042   5.125   0.378  15.891  1.0182  0.6143 -0.9881
 4517TIP3    H235043   5.065   0.494  15.815 -0.8368  0.0547 -0.4311
 4518TIP3   OH235044   5.233   4.136   0.640  0.1902  0.0189  0.1775
 4518TIP3    H135045   5.210   4.214   0.690  0.4137  0.3827 -0.2813
 4518TIP3    H235046   5.301   4.094   0.692 -0.8800 -0.6030  1.1097
 4519TIP3   OH235047   5.528   3.036  12.242 -0.3000 -0.2105 -0.1875
 4519TIP3    H135048   5.624   3.035  12.241 -0.2173  1.7213 -2.9420
 4519TIP3    H235049   5.504   2.975  12.311  2.9344  1.5755  2.7146
 4520TIP3   OH235050   2.859   6.818  17.275 -0.3683  0.2990  0.0865
 4520TIP3    H135051   2.821   6.906  17.268 -0.6678  0.2765  1.3770
 4520TIP3    H235052   2.784   6.761  17.291 -0.2279 -0.2687 -1.1998
 4521TIP3   OH235053   1.780   4.974  15.816  0.1846 -0.8555 -0.4873
 4521TIP3    H135054   1.753   5.041  15.879 -0.3090 -0.9909 -0.5525
 4521TIP3    H235055   1.844   5.017  15.760  1.5797 -1.0791  0.8861
 4522TIP3   OH235056   4.235   4.056  17.106 -0.1179 -0.0882 -0.1821
 4522TIP3    H135057   4.143   4.034  17.123  0.0344 -2.5610 -2.2687
 4522TIP3    H235058   4.231   4.122  17.037 -0.3677  1.4810  1.3063
 4523TIP3   OH235059   3.660   4.519  15.591 -0.0354  0.3943  0.8388
 4523TIP3    H135060   3.646   4.433  15.551 -1.2476  0.5281  0.9622
 4523TIP3    H235061   3.598   4.577  15.546 -0.0939  0.9354  1.6066
 4524TIP3   OH235062   1.022   5.932  15.730  0.0167  0.2672  0.0117
 4524TIP3    H135063   1.083   5.994  15.690 -0.7077  0.0888 -1.4029
 4524TIP3    H235064   0.957   5.987  15.774  0.3997  0.4766  0.3229
 4525TIP3   OH235065   6.248   0.362  13.092  0.5621 -0.2509 -0.2751
 4525TIP3    H135066   6.261   0.370  13.186  0.0101  1.5568 -0.3300
 4525TIP3    H235067   6.216   0.273  13.079 -0.7773 -0.0193  1.4063
 4526TIP3   OH235068   2.114   6.613   3.700  0.2599  0.9214 -0.4378
 4526TIP3    H135069   2.141   6.553   3.630  0.3868  0.0415  0.3443
 4526TIP3    H235070   2.035   6.573   3.736  1.5664 -0.0073  1.5551
 4527TIP3   OH235071   5.747   2.896   2.844 -0.6147  0.9002 -0.1304
 4527TIP3    H135072   5.828   2.845   2.839  0.3430  2.4699 -0.9933
 4527TIP3    H235073   5.687   2.851   2.784 -0.3403 -0.1796  0.3869
 4528TIP3   OH235074   4.156   3.078   1.440 -0.6553  0.1325  0.0833
 4528TIP3    H135075   4.244   3.112   1.425 -1.6923  2.5509 -0.7068
 4528TIP3    H235076   4.108   3.097   1.360 -2.0844 -0.5937  0.7380
 4529TIP3   OH235077   0.919   1.110   0.064  0.1679  0.5048 -0.8452
 4529TIP3    H135078   0.963   1.192   0.040  1.2849  0.0211 -0.4714
 4529TIP3    H235079   0.966   1.080   0.142 -0.7469 -0.0881 -0.5230
 4530TIP3   OH235080   3.590   4.372   0.120  0.0456  0.6177 -0.3247
 4530TIP3    H135081   3.509   4.327   0.095 -0.5876  1.4352  0.2477
 4530TIP3    H235082   3.566   4.464   0.124  0.7708  0.7659  0.7841
 4531TIP3   OH235083   2.096   1.592   0.017  0.5366 -0.4123  0.2484
 4531TIP3    H135084   2.038   1.658   0.056  1.1857  0.1091  0.3417
 4531TIP3    H235085   2.093   1.609  -0.077  2.6297  1.3661  0.4640
 4532TIP3   OH235086   5.394   2.687  16.581  0.5722  0.8369  0.0074
 4532TIP3    H135087   5.467   2.718  16.527  0.6083  0.4090 -0.1864
 4532TIP3    H235088   5.395   2.745  16.657  0.6844  1.2772 -0.3225
 4533TIP3   OH235089   2.258   6.608  14.745 -0.0596  0.5167 -0.2424
 4533TIP3    H135090   2.319   6.585  14.815  0.4917 -1.7751 -1.4181
 4533TIP3    H235091   2.295   6.687  14.706  0.7173  0.6558  0.7489
 4534TIP3   OH235092   5.782   3.948  15.026  0.0329  0.0341  0.5636
 4534TIP3    H135093   5.851   4.011  15.010  1.4158 -1.7174 -0.5122
 4534TIP3    H235094   5.713   3.970  14.963  1.3506 -0.7521 -1.1803
 4535TIP3   OH235095   1.037   1.702  14.933  0.4201 -0.1472  0.0478
 4535TIP3    H135096   1.104   1.757  14.975  0.4170 -0.8131  0.9502
 4535TIP3    H235097   1.086   1.643  14.876  0.7024 -1.3026  1.4625
 4536TIP3   OH235098   3.657   2.018   4.780  0.0607  0.2085  0.3480
 4536TIP3    H135099   3.709   2.048   4.854  1.2766  0.3090 -0.5180
 4536TIP3    H235100   3.670   2.085   4.713 -1.5562  0.4500  0.2731
 4537TIP3   OH235101   5.413   4.199  12.547 -0.4514 -0.4375  0.5790
 4537TIP3    H135102   5.494   4.167  12.507 -0.4534  1.4083 -1.0206
 4537TIP3    H235103   5.361   4.121  12.561 -0.2395 -1.2744 -2.7174
 4538TIP3   OH235104   4.900   1.926   2.676  0.5123  0.4738 -0.2493
 4538TIP3    H135105   4.966   1.880   2.727  0.9113 -0.2911 -1.4283
 4538TIP3    H235106   4.914   1.896   2.586 -2.8429 -1.4229 -0.2360
 4539TIP3   OH235107   2.435   3.798   0.948 -0.2087 -0.5536 -0.0657
 4539TIP3    H135108   2.519   3.761   0.920  0.6228 -0.1966  1.8510
 4539TIP3    H235109   2.395   3.831   0.868  1.3248 -1.0832 -1.0626
 4540TIP3   OH235110   2.413   2.850   0.936 -0.3849 -0.5489  0.5086
 4540TIP3    H135111   2.411   2.862   1.031  2.3842 -1.5674  0.7522
 4540TIP3    H235112   2.421   2.938   0.901 -2.2889 -0.0899  1.1413
 4541TIP3   OH235113   6.502   6.616   3.797  0.0750  0.0546  0.4405
 4541TIP3    H135114   6.486   6.523   3.786  0.1333  0.0652  0.2614
 4541TIP3    H235115   6.425   6.659   3.759  0.2123  0.0891  0.2053
 4542TIP3   OH235116   5.100   4.262  11.305 -0.4531  0.0146 -0.1256
 4542TIP3    H135117   5.145   4.207  11.242  1.1156  0.4242  0.6269
 4542TIP3    H235118   5.082   4.205  11.379  0.3636  0.2795  0.2810
 4543TIP3   OH235119   5.649   5.809   4.563 -0.1775  0.8320 -0.2256
 4543TIP3    H135120   5.711   5.874   4.532  0.9972 -0.2871 -0.2737
 4543TIP3    H235121   5.575   5.860   4.596  0.8873  2.1961  0.1085
 4544TIP3   OH235122   6.312   6.811  16.623  0.1614 -0.7813  0.1815
 4544TIP3    H135123   6.267   6.728  16.604  0.9053 -1.2824  0.6021
 4544TIP3    H235124   6.342   6.842  16.537  0.2863 -1.1851  0.0756
 4545TIP3   OH235125   1.773   6.675  15.904  0.0062  0.5467 -0.8750
 4545TIP3    H135126   1.700   6.650  15.961  0.4162  1.6565  0.1642
 4545TIP3    H235127   1.737   6.743  15.848  0.0313  0.5550 -0.8815
 4546TIP3   OH235128   6.192   6.300   2.691 -0.1130 -0.4877 -0.2684
 4546TIP3    H135129   6.182   6.375   2.634 -1.4558  0.6293  1.3792
 4546TIP3    H235130   6.198   6.225   2.632 -1.1965  0.6503 -1.8576
 4547TIP3   OH235131   2.059   4.972  11.434  0.3951  0.3805 -0.1293
 4547TIP3    H135132   2.058   5.014  11.520 -0.8370  0.3184 -0.1070
 4547TIP3    H235133   1.969   4.977  11.404  0.7409  0.0341 -1.2484
 4548TIP3   OH235134   2.728   4.096   2.616  0.2363 -0.2240 -0.2374
 4548TIP3    H135135   2.697   4.176   2.574  0.4554 -0.5773 -1.0882
 4548TIP3    H235136   2.824   4.101   2.609  0.2056 -1.2366 -1.5881
 4549TIP3   OH235137   6.211   6.208   5.020 -0.2444  0.2538  0.0253
 4549TIP3    H135138   6.219   6.208   4.925  0.1566  0.0951  0.0588
 4549TIP3    H235139   6.263   6.284   5.048 -0.5671  0.4474  0.1004
 4550TIP3   OH235140   3.310   2.281  15.066  0.1378  0.6413 -0.2759
 4550TIP3    H135141   3.377   2.319  15.009  0.2104 -0.0292 -0.6419
 4550TIP3    H235142   3.245   2.243  15.005  0.1532  0.0363  0.0797
 4551TIP3   OH235143   4.739   5.362   0.462 -0.2962 -0.0270  0.3743
 4551TIP3    H135144   4.669   5.411   0.505 -0.2727 -0.7093  1.2055
 4551TIP3    H235145   4.783   5.315   0.533 -0.1527 -1.0400 -0.3619
 4552TIP3   OH235146   2.531   0.024  10.291  0.2745 -0.9073 -0.4837
 4552TIP3    H135147   2.626   0.032  10.284  0.5463 -2.6614  0.7007
 4552TIP3    H235148   2.513  -0.066  10.264 -0.9535 -0.8139  0.0023
 4553TIP3   OH235149   0.812   2.063   6.107 -0.1086  0.5077 -0.2709
 4553TIP3    H135150   0.847   2.128   6.167 -1.6314  0.9277  0.1843
 4553TIP3    H235151   0.856   1.982   6.131  0.8319  1.0960  0.0178
 4554TIP3   OH235152   5.949   2.887  16.336 -0.3854  0.0112  0.7155
 4554TIP3    H135153   5.897   2.856  16.410  0.3092  1.1970  1.7281
 4554TIP3    H235154   6.012   2.947  16.375  0.5893 -0.0502 -0.7328
 4555TIP3   OH235155   4.294   4.381  16.058 -0.2634 -0.1011 -0.4715
 4555TIP3    H135156   4.330   4.308  16.008 -1.3353  0.5438 -2.2612
 4555TIP3    H235157   4.202   4.358  16.070 -0.3742  0.4887 -0.1658
 4556TIP3   OH235158   3.123   3.376   1.519 -0.0377  0.6099  0.6167
 4556TIP3    H135159   3.135   3.281   1.520 -2.1190  0.3294  2.2593
 4556TIP3    H235160   3.211   3.411   1.508  0.5130 -1.5191 -2.4947
 4557TIP3   OH235161   3.623   2.787   0.737  0.0342  0.0972 -0.4320
 4557TIP3    H135162   3.609   2.811   0.829 -1.7425  1.5907 -1.0468
 4557TIP3    H235163   3.699   2.839   0.710 -2.0621  3.0159 -0.9545
 4558TIP3   OH235164   4.121   6.711   0.113 -0.6024 -0.0418 -0.1092
 4558TIP3    H135165   4.143   6.637   0.170  0.7549  0.0005 -0.5513
 4558TIP3    H235166   4.037   6.742   0.146 -0.0571 -0.2903  1.6155
 4559TIP3   OH235167   4.552   0.423   5.533  0.4238 -0.1936 -0.3301
 4559TIP3    H135168   4.484   0.456   5.592 -0.0732 -1.6051 -0.0800
 4559TIP3    H235169   4.630   0.413   5.589  0.7388  1.0849 -0.5371
 4560TIP3   OH235170   5.654   6.455  14.168 -0.2296  0.1344 -0.3007
 4560TIP3    H135171   5.690   6.492  14.087  0.0252  0.5009 -0.0229
 4560TIP3    H235172   5.611   6.530  14.210  0.8570  0.2756  0.5901
 4561TIP3   OH235173   6.327   1.565   6.060  0.1237 -0.4721  0.8705
 4561TIP3    H135174   6.311   1.509   5.984 -0.9045  0.6341  0.2588
 4561TIP3    H235175   6.422   1.572   6.065  0.2114 -1.0643  0.0585
 4562TIP3   OH235176   2.175   1.056   5.443  0.9002  0.3247  0.4532
 4562TIP3    H135177   2.091   1.054   5.490  0.8718 -0.3401  0.3774
 4562TIP3    H235178   2.229   1.118   5.492  0.6614  0.0920  1.0123
 4563TIP3   OH235179   3.849   0.174   5.692 -0.2206  0.5041  0.2293
 4563TIP3    H135180   3.755   0.164   5.682  0.0335 -0.9976 -0.8457
 4563TIP3    H235181   3.879   0.209   5.608  0.5595 -2.0230 -0.5892
 4564TIP3   OH235182   4.637   1.186   5.007  0.0625  0.3534 -0.2598
 4564TIP3    H135183   4.583   1.145   5.075  1.2314  3.1327  2.4975
 4564TIP3    H235184   4.576   1.240   4.956 -0.4421  0.2224  0.2033
 4565TIP3   OH235185   0.243   1.064   2.985  0.3366 -0.3159  0.1017
 4565TIP3    H135186   0.228   1.132   3.050 -1.6283  0.8925 -1.5499
 4565TIP3    H235187   0.163   1.012   2.985 -1.4450  2.0996 -4.0402
 4566TIP3   OH235188   2.590   4.833  16.631 -0.0615 -0.0052 -0.4347
 4566TIP3    H135189   2.651   4.838  16.557 -1.3108 -0.2039 -1.4894
 4566TIP3    H235190   2.576   4.739  16.643  0.5779  0.0067  0.4288
 4567TIP3   OH235191   6.283   3.709   2.735 -0.2650 -0.2327 -0.5039
 4567TIP3    H135192   6.191   3.734   2.738 -0.6858 -1.6009 -1.5337
 4567TIP3    H235193   6.329   3.790   2.712 -1.3576  0.0937 -1.5785
 4568TIP3   OH235194   5.970   6.455   5.163  0.8591 -0.3665 -0.6730
 4568TIP3    H135195   6.022   6.528   5.197 -0.0279 -0.3375  0.6810
 4568TIP3    H235196   6.002   6.379   5.212  0.8293 -0.6425 -1.0879
 4569TIP3   OH235197   1.998   3.400   3.053  0.1909  0.0821  0.3005
 4569TIP3    H135198   2.064   3.354   3.000 -0.5771 -1.8544  0.9817
 4569TIP3    H235199   1.926   3.416   2.992 -0.5105 -1.7568  0.5934
 4570TIP3   OH235200   0.823   1.965   6.469 -0.2226 -0.7545  0.5442
 4570TIP3    H135201   0.831   1.923   6.382 -0.9911  0.1644  0.0283
 4570TIP3    H235202   0.763   1.908   6.517 -1.3839 -0.1842 -0.2062
 4571TIP3   OH235203   5.700   0.334  16.798  0.3736 -0.3605  0.2082
 4571TIP3    H135204   5.617   0.375  16.774  0.6502  0.7651  1.1373
 4571TIP3    H235205   5.736   0.302  16.715  0.1952  1.3815 -0.5669
 4572TIP3   OH235206   0.012   1.407   4.360 -0.1476  0.6409  0.0707
 4572TIP3    H135207   0.016   1.440   4.270 -1.0966  1.1784  0.2185
 4572TIP3    H235208  -0.081   1.405   4.381  0.0110 -0.4580  0.6898
 4573TIP3   OH235209   1.868   4.966  14.794  0.6153 -0.4552  0.8200
 4573TIP3    H135210   1.926   4.896  14.764  0.6888  0.5565 -1.5776
 4573TIP3    H235211   1.785   4.948  14.750  1.0656  1.7427 -1.0453
 4574TIP3   OH235212   6.148   5.924  11.887  0.2507 -0.2181 -0.0240
 4574TIP3    H135213   6.205   5.922  11.810  0.9842 -2.0698  0.5466
 4574TIP3    H235214   6.206   5.940  11.961 -0.1342 -0.7947  0.4113
 4575TIP3   OH235215   5.870   5.434   3.098 -0.2107 -0.0598 -0.7399
 4575TIP3    H135216   5.819   5.439   3.017  1.0500  1.2379 -1.4929
 4575TIP3    H235217   5.958   5.463   3.072  0.4102 -0.4233  0.9202
 4576TIP3   OH235218   6.811   0.836  11.519 -0.0816 -0.2562 -0.4322
 4576TIP3    H135219   6.749   0.776  11.477 -2.4562  0.6114  1.6895
 4576TIP3    H235220   6.849   0.785  11.591 -0.2467 -0.0179 -0.1712
 4577TIP3   OH235221   3.863   5.397   3.613  0.1415 -0.0498 -0.5686
 4577TIP3    H135222   3.938   5.415   3.556  0.1456 -2.4766 -1.3776
 4577TIP3    H235223   3.897   5.410   3.701  0.8514  1.2077 -1.0143
 4578TIP3   OH235224   5.877   2.819  11.732  0.2917  0.0853  0.3983
 4578TIP3    H135225   5.864   2.809  11.638 -1.1965  0.3432  0.5775
 4578TIP3    H235226   5.864   2.912  11.749 -0.0702 -0.0633  0.9628
 4579TIP3   OH235227   6.663   5.233  14.291 -0.2131  0.0982  0.0706
 4579TIP3    H135228   6.591   5.218  14.352 -0.5756  0.3836 -0.2834
 4579TIP3    H235229   6.712   5.306  14.329 -0.3573  0.1862  0.0850
 4580TIP3   OH235230   2.185   3.522   3.314 -0.1395 -0.0324  0.0861
 4580TIP3    H135231   2.106   3.467   3.314 -0.3249  0.2166  1.5440
 4580TIP3    H235232   2.254   3.465   3.348 -0.7826  1.2072  3.6906
 4581TIP3   OH235233   6.146   4.822   2.924 -0.6140  0.0908  0.3894
 4581TIP3    H135234   6.122   4.751   2.865  1.5947 -1.2805  1.0915
 4581TIP3    H235235   6.117   4.791   3.010  0.6017 -0.1082  0.7360
 4582TIP3   OH235236   3.615   0.255   0.270 -0.5008 -0.2268  0.4769
 4582TIP3    H135237   3.608   0.348   0.248  1.1837 -0.2705 -0.3116
 4582TIP3    H235238   3.708   0.242   0.291 -0.9558 -1.4694  1.7888
 4583TIP3   OH235239   3.950   0.251  15.060  0.7651 -0.9001  0.2190
 4583TIP3    H135240   3.898   0.332  15.061  0.8846 -0.8251  1.0838
 4583TIP3    H235241   4.033   0.275  15.101  0.0908 -1.9102  2.2610
 4584TIP3   OH235242   3.404   5.727   2.686  0.0975  0.3521  0.1820
 4584TIP3    H135243   3.408   5.681   2.770 -0.9007  0.4795  0.3053
 4584TIP3    H235244   3.407   5.820   2.709  1.1313  0.3685 -0.0065
 4585TIP3   OH235245   0.901   6.331   4.548 -0.1056 -0.0453  0.1500
 4585TIP3    H135246   0.886   6.237   4.562 -2.4457  0.3091  0.2649
 4585TIP3    H235247   0.965   6.335   4.477  1.3227 -1.7350  1.2912
 4586TIP3   OH235248   6.568   3.565  11.430 -0.4841 -0.4487  0.6434
 4586TIP3    H135249   6.657   3.549  11.399 -0.2179  0.1818  1.0718
 4586TIP3    H235250   6.517   3.579  11.350  0.2236  1.3135  0.4676
 4587TIP3   OH235251   4.587   4.706  16.418 -0.2207  0.1576 -0.3492
 4587TIP3    H135252   4.662   4.742  16.466 -0.1241  0.8388 -0.9945
 4587TIP3    H235253   4.601   4.736  16.328 -2.5997  2.4415 -0.0133
 4588TIP3   OH235254   3.902   4.295  13.055 -0.0672 -0.2511  0.2839
 4588TIP3    H135255   3.836   4.227  13.064 -1.3890  0.8494 -0.9349
 4588TIP3    H235256   3.898   4.321  12.963 -0.2087  2.0795  0.9225
 4589TIP3   OH235257   1.797   2.131   5.281 -0.1520  0.0464 -0.5969
 4589TIP3    H135258   1.871   2.192   5.276  0.1278 -0.4780 -4.0905
 4589TIP3    H235259   1.752   2.155   5.362  1.9381  2.5818 -0.1021
 4590TIP3   OH235260   2.539   6.183  12.114 -0.1849  0.4761  0.0181
 4590TIP3    H135261   2.532   6.204  12.020  1.9031 -1.1146 -0.5385
 4590TIP3    H235262   2.584   6.258  12.152 -1.3905  1.3079 -0.1558
 4591TIP3   OH235263   6.617   4.469  14.743  0.2897 -0.0386 -0.3207
 4591TIP3    H135264   6.606   4.390  14.691  0.1873 -0.1932 -0.0636
 4591TIP3    H235265   6.659   4.439  14.824 -0.6212  0.0254  0.1832
 4592TIP3   OH235266   3.913   2.558   6.076  0.2390 -0.2082 -0.3497
 4592TIP3    H135267   3.901   2.463   6.071 -1.3417 -0.1287  1.4253
 4592TIP3    H235268   3.834   2.594   6.035 -0.7370  0.3392  1.9839
 4593TIP3   OH235269   5.730   0.927   4.814  0.0864 -0.6013 -0.5474
 4593TIP3    H135270   5.671   0.926   4.738  0.6068 -0.7341 -0.9496
 4593TIP3    H235271   5.671   0.934   4.889 -0.5304 -1.8894 -0.8849
 4594TIP3   OH235272   1.860   5.273  11.504 -0.4628 -0.6119  0.2551
 4594TIP3    H135273   1.811   5.260  11.423  0.4467 -0.5526 -0.3180
 4594TIP3    H235274   1.814   5.343  11.549 -0.6075 -0.1922 -0.5284
 4595TIP3   OH235275   4.865   1.434   0.840  0.0963  0.6644  0.0929
 4595TIP3    H135276   4.923   1.359   0.853  0.2835  0.3841 -2.1753
 4595TIP3    H235277   4.860   1.476   0.926  2.3574 -0.2409  0.6946
 4596TIP3   OH235278   6.162   2.103  12.410  0.1436  0.4869  0.1578
 4596TIP3    H135279   6.227   2.147  12.464  2.3332 -0.9047 -1.2495
 4596TIP3    H235280   6.152   2.160  12.334 -1.2913  1.3541  0.9832
 4597TIP3   OH235281   0.952   4.775  16.106 -0.2420 -0.0057  0.6784
 4597TIP3    H135282   1.026   4.739  16.058 -1.9171 -1.8370 -0.6301
 4597TIP3    H235283   0.944   4.719  16.183  0.5507  1.0236  1.5148
 4598TIP3   OH235284   5.727   6.694  15.096  0.2669  0.2738 -0.3321
 4598TIP3    H135285   5.739   6.645  15.015  0.6813  0.0775 -0.1488
 4598TIP3    H235286   5.795   6.662  15.155 -0.5835 -0.2254  0.4017
 4599TIP3   OH235287   6.516   3.604  14.583 -0.0561 -0.1717  0.0733
 4599TIP3    H135288   6.509   3.697  14.603 -0.7373 -0.1488 -0.2754
 4599TIP3    H235289   6.507   3.599  14.487 -0.3943 -0.6306  0.1276
 4600TIP3   OH235290   0.551   3.371   3.633  0.0912  0.6483  0.2219
 4600TIP3    H135291   0.501   3.381   3.714  0.2971  0.8162  0.3275
 4600TIP3    H235292   0.638   3.405   3.654  0.5429 -0.5492  0.3222
 4601TIP3   OH235293   4.322   6.020  13.520 -0.5852  0.0623  0.1854
 4601TIP3    H135294   4.337   5.972  13.439 -2.5576 -1.5891  0.7624
 4601TIP3    H235295   4.399   6.004  13.573  0.1989  0.2074 -0.9022
 4602TIP3   OH235296   4.019   4.284   4.730 -0.0459 -0.5938  0.0734
 4602TIP3    H135297   4.003   4.339   4.807  0.9450  0.9148 -0.7630
 4602TIP3    H235298   4.113   4.266   4.733 -0.4844 -2.8766  0.7289
 4603TIP3   OH235299   2.309   1.951   1.778  0.4355 -0.0844 -0.0523
 4603TIP3    H135300   2.390   2.000   1.794  0.8628 -1.2559  1.5400
 4603TIP3    H235301   2.340   1.865   1.748 -0.2702  0.0239 -1.1167
 4604TIP3   OH235302   2.157   6.579   5.253  0.2303 -0.1721  0.4853
 4604TIP3    H135303   2.100   6.558   5.179  0.4140  0.7262  0.0756
 4604TIP3    H235304   2.244   6.553   5.223  0.1835 -0.5929  0.7140
 4605TIP3   OH235305   2.070   2.385  16.977  0.6443 -0.2338  0.0025
 4605TIP3    H135306   2.021   2.461  17.009  0.1200 -0.9869  1.0426
 4605TIP3    H235307   2.007   2.337  16.923  0.0252 -1.4981  1.7898
 4606TIP3   OH235308   2.412   0.145  13.089  0.1481 -0.4678  0.1531
 4606TIP3    H135309   2.418   0.176  13.179 -3.1370 -0.6828  0.4783
 4606TIP3    H235310   2.378   0.220  13.040  0.6080 -0.7959 -0.6836
 4607TIP3   OH235311   2.754   1.418  12.870  0.6457  0.1564 -0.3073
 4607TIP3    H135312   2.689   1.350  12.850 -1.0384  2.5254 -3.2995
 4607TIP3    H235313   2.835   1.387  12.832 -0.4619  0.3998 -3.0226
 4608TIP3   OH235314   6.199   2.762  10.670 -0.2174 -0.2203  0.4050
 4608TIP3    H135315   6.115   2.803  10.691 -0.5893 -0.8885  0.2620
 4608TIP3    H235316   6.256   2.835  10.646 -0.2411  0.4176  2.1783
 4609TIP3   OH235317   2.868   0.228   5.906  0.3820 -0.1267 -0.0745
 4609TIP3    H135318   2.958   0.257   5.918  1.1937 -2.2485 -0.8528
 4609TIP3    H235319   2.866   0.139   5.940 -1.3903 -0.1787 -0.2349
 4610TIP3   OH235320   4.285   1.974  11.258 -0.6752  0.0209 -0.3694
 4610TIP3    H135321   4.224   1.901  11.243 -0.1492 -1.0908  2.5887
 4610TIP3    H235322   4.250   2.018  11.336  1.1282  0.6856  0.0738
 4611TIP3   OH235323   2.888   2.342  13.875  0.6895  0.4086 -0.1470
 4611TIP3    H135324   2.959   2.281  13.895  2.0522  1.0423 -2.7061
 4611TIP3    H235325   2.893   2.409  13.943  1.3989 -0.5420  0.7351
 4612TIP3   OH235326   5.076   3.066  13.713 -0.2931 -0.1907 -0.1245
 4612TIP3    H135327   5.128   3.118  13.652 -1.1048  0.4111 -0.3102
 4612TIP3    H235328   5.116   2.979  13.710  0.1061  0.0171 -0.9853
 4613TIP3   OH235329   4.983   0.384  15.256  0.3041 -0.0892  0.0101
 4613TIP3    H135330   4.961   0.477  15.262  1.4189  0.1732  0.0534
 4613TIP3    H235331   5.010   0.360  15.344  0.6522 -0.2941 -0.1518
 4614TIP3   OH235332   5.478   2.708   0.135  0.0189  0.3898  0.1366
 4614TIP3    H135333   5.550   2.647   0.119  1.3934  1.5244  1.8345
 4614TIP3    H235334   5.460   2.699   0.229 -2.2233 -0.0573 -0.3230
 4615TIP3   OH235335   0.825   1.307   6.236  0.1242  0.5489 -0.4791
 4615TIP3    H135336   0.842   1.401   6.231  0.2448  0.6998  2.0401
 4615TIP3    H235337   0.741   1.300   6.282 -0.0293 -0.5574 -0.9012
 4616TIP3   OH235338   2.035   3.958  12.204  0.2370 -0.1140  0.0572
 4616TIP3    H135339   2.050   3.896  12.132 -1.6793 -0.2286 -0.2655
 4616TIP3    H235340   2.109   3.943  12.264  0.1987 -2.1858 -0.3661
 4617TIP3   OH235341   0.284   4.390   3.095 -1.0630  0.1881  0.5600
 4617TIP3    H135342   0.301   4.296   3.109 -2.5727  0.0705  1.7015
 4617TIP3    H235343   0.227   4.392   3.019 -1.4750  0.1351  0.8643
 4618TIP3   OH235344   0.802   2.532   3.289 -0.2842  0.1769  0.8971
 4618TIP3    H135345   0.769   2.469   3.226 -1.1391 -0.7835  2.2795
 4618TIP3    H235346   0.795   2.617   3.244 -1.5545 -0.4030 -0.0209
 4619TIP3   OH235347   0.632   3.411  15.596  0.0700  0.8060  0.3526
 4619TIP3    H135348   0.621   3.351  15.522  3.3840  1.8373 -1.0598
 4619TIP3    H235349   0.667   3.356  15.666  2.6444  0.9425 -0.7833
 4620TIP3   OH235350   1.254   0.866   3.226 -0.1573 -0.0111 -0.0137
 4620TIP3    H135351   1.265   0.891   3.318  2.4520  1.2567 -0.6226
 4620TIP3    H235352   1.247   0.949   3.180 -0.7917 -0.6360 -1.0640
 4621TIP3   OH235353   5.792   3.437   0.716  0.1663  0.0131  0.2176
 4621TIP3    H135354   5.837   3.357   0.689  1.5098  0.3956  1.2588
 4621TIP3    H235355   5.834   3.506   0.664  0.0549  0.2335  0.4198
 4622TIP3   OH235356   5.631   1.094  16.742  0.0334  0.0393 -0.0592
 4622TIP3    H135357   5.573   1.043  16.799 -1.0858  0.8320 -0.4643
 4622TIP3    H235358   5.605   1.070  16.653  1.3536 -0.7289 -0.2493
 4623TIP3   OH235359   5.394   3.175   3.666  0.1715  0.3332  0.0032
 4623TIP3    H135360   5.421   3.205   3.579  1.0008  2.3844  0.9247
 4623TIP3    H235361   5.418   3.247   3.724  0.1611 -1.2536  2.0208
 4624TIP3   OH235362   2.283   5.197   1.819 -0.0217  0.3027 -0.2789
 4624TIP3    H135363   2.319   5.257   1.754  2.4429  1.4023  1.9842
 4624TIP3    H235364   2.309   5.235   1.903 -4.0793 -0.4673  1.4216
 4625TIP3   OH235365   6.088   0.221  12.893 -0.3283 -0.5982  0.6695
 4625TIP3    H135366   6.041   0.246  12.973 -0.8228 -1.5321  0.6698
 4625TIP3    H235367   6.100   0.127  12.901 -2.7160 -1.1386 -1.6028
 4626TIP3   OH235368   3.045   0.034   6.493  0.2241  0.5038  0.1376
 4626TIP3    H135369   3.105  -0.002   6.558  1.4235  0.7151 -0.8281
 4626TIP3    H235370   2.994  -0.042   6.463  2.1894 -0.2893 -1.3083
 4627TIP3   OH235371   3.318   2.275   6.003 -0.1976 -0.2635 -1.4540
 4627TIP3    H135372   3.364   2.240   6.079  0.5044 -0.3320 -1.9006
 4627TIP3    H235373   3.308   2.368   6.021 -1.3357 -0.5425 -0.6273
 4628TIP3   OH235374   5.005   5.937   2.984  0.4161 -0.1988 -0.3227
 4628TIP3    H135375   4.933   5.926   3.046  1.2634 -0.1565  0.6966
 4628TIP3    H235376   5.084   5.929   3.038  1.1619  0.7481 -1.2440
 4629TIP3   OH235377   2.061   6.402  16.171 -0.4174  0.0752 -0.2794
 4629TIP3    H135378   2.015   6.471  16.122  0.1126 -0.7696 -1.9829
 4629TIP3    H235379   2.081   6.335  16.106  0.2755 -1.0912  1.1102
 4630TIP3   OH235380   2.492   2.017  17.244  0.1501  0.4518 -1.0240
 4630TIP3    H135381   2.481   2.024  17.149  0.2524 -0.3743 -1.1046
 4630TIP3    H235382   2.568   1.960  17.254 -0.7977 -0.7252 -0.4346
 4631TIP3   OH235383   6.136   0.322  15.604 -0.3826 -0.4408  0.9363
 4631TIP3    H135384   6.044   0.299  15.614 -0.5530 -0.6471 -0.9447
 4631TIP3    H235385   6.183   0.240  15.618 -0.5524 -0.5492  0.8747
 4632TIP3   OH235386   4.963   1.491   2.957  0.1203  0.1620  0.6905
 4632TIP3    H135387   4.933   1.401   2.973  0.3374 -0.5142 -2.3369
 4632TIP3    H235388   4.933   1.541   3.033 -0.8059 -2.2868  1.9828
 4633TIP3   OH235389   1.395   4.681  15.807  0.2351 -0.7571 -0.0583
 4633TIP3    H135390   1.465   4.665  15.870  0.3949  2.1432  0.5626
 4633TIP3    H235391   1.426   4.754  15.753 -1.6102 -0.4933 -0.8229
 4634TIP3   OH235392   0.713   3.098  12.737 -0.0351 -0.4967 -0.0152
 4634TIP3    H135393   0.620   3.086  12.755 -0.3793  0.4726 -1.0474
 4634TIP3    H235394   0.730   3.042  12.661  0.5075 -1.5658  0.8718
 4635TIP3   OH235395   6.515   4.201  15.144  0.4549 -0.0751  0.1362
 4635TIP3    H135396   6.533   4.243  15.228  0.1233  1.2222 -0.4317
 4635TIP3    H235397   6.503   4.273  15.083 -1.6071 -0.9671 -0.5596
 4636TIP3   OH235398   5.293   1.325   3.833  0.1174 -0.9111 -0.2679
 4636TIP3    H135399   5.296   1.366   3.919 -2.2637 -1.1042 -0.0694
 4636TIP3    H235400   5.328   1.392   3.773  2.5858 -1.0840  0.8986
 4637TIP3   OH235401   4.211   3.026  17.288 -0.1860  0.0353  0.0932
 4637TIP3    H135402   4.159   3.013  17.208 -0.6849  0.0518  0.4111
 4637TIP3    H235403   4.197   3.118  17.310 -0.3038 -0.0512  0.3762
 4638TIP3   OH235404   4.640   1.590   5.871  0.7721 -0.6958 -0.3154
 4638TIP3    H135405   4.697   1.597   5.947  1.1765  1.0561 -0.7781
 4638TIP3    H235406   4.559   1.550   5.905  1.0363 -0.1233  0.9775
 4639TIP3   OH235407   5.335   3.040  13.491 -0.2007 -0.2892  0.0286
 4639TIP3    H135408   5.364   2.968  13.547  0.4188 -0.3165 -0.3195
 4639TIP3    H235409   5.372   3.118  13.532 -1.4789 -0.0809  0.8172
 4640TIP3   OH235410   2.706   3.826  11.593  0.0831 -0.0013  0.1343
 4640TIP3    H135411   2.718   3.745  11.644  0.4982 -0.2766 -0.4039
 4640TIP3    H235412   2.632   3.869  11.636  0.4907 -0.1792  1.0489
 4641TIP3   OH235413   0.775   1.660   6.504 -0.3070 -0.1401  0.3568
 4641TIP3    H135414   0.870   1.661   6.508 -0.1915  1.0942 -1.8284
 4641TIP3    H235415   0.749   1.579   6.549  1.6374  0.5604  2.8095
 4642TIP3   OH235416   2.157   2.450  11.094  0.0694 -0.3665 -0.1940
 4642TIP3    H135417   2.235   2.394  11.091 -1.2693 -2.3065 -0.1176
 4642TIP3    H235418   2.087   2.394  11.061 -1.1919  1.5302 -0.7608
 4643TIP3   OH235419   1.289   6.650   5.377  0.3719 -0.3878 -0.2623
 4643TIP3    H135420   1.199   6.637   5.347 -0.6356 -2.5796  3.3921
 4643TIP3    H235421   1.338   6.578   5.337 -0.3917 -1.6414  0.9925
 4644TIP3   OH235422   3.970   3.890   5.180 -0.1202 -0.4215 -0.4927
 4644TIP3    H135423   4.040   3.828   5.160 -2.0047 -2.1867 -1.8699
 4644TIP3    H235424   3.928   3.855   5.259  0.2497  0.3732  0.0630
 4645TIP3   OH235425   6.432   2.866   5.505 -0.1657  0.6343  0.1146
 4645TIP3    H135426   6.354   2.918   5.521 -2.0161 -2.0364  0.1549
 4645TIP3    H235427   6.429   2.797   5.571  1.5590 -0.2331 -0.6655
 4646TIP3   OH235428   2.959   1.207  13.416 -0.1400 -0.0189 -0.2218
 4646TIP3    H135429   3.022   1.244  13.353 -0.7763  1.1728 -0.1857
 4646TIP3    H235430   2.924   1.130  13.372  1.0638 -0.4717 -0.4041
 4647TIP3   OH235431   4.312   3.744  11.344 -0.2908  0.0552 -0.2314
 4647TIP3    H135432   4.363   3.742  11.263 -2.0809 -0.1171 -1.3624
 4647TIP3    H235433   4.238   3.802  11.325 -1.5176 -1.1480  0.8119
 4648TIP3   OH235434   2.436   5.319   1.034 -0.1908  0.7650  0.1975
 4648TIP3    H135435   2.445   5.243   0.976 -0.3180  0.6477  0.3341
 4648TIP3    H235436   2.386   5.382   0.982  1.0281  1.2539 -0.4053
 4649TIP3   OH235437   5.561   5.914   2.828  0.0939 -0.0377 -0.2820
 4649TIP3    H135438   5.589   5.887   2.915  0.6658  0.9136 -0.1683
 4649TIP3    H235439   5.606   5.997   2.813  2.0551 -1.4440 -2.5435
 4650TIP3   OH235440   0.438   4.474   0.796  0.0077  0.4108 -0.0652
 4650TIP3    H135441   0.359   4.529   0.801 -0.0835  0.4983 -2.2375
 4650TIP3    H235442   0.417   4.398   0.850 -1.9509 -0.0100 -1.3517
 4651TIP3   OH235443   2.839   5.336  11.871 -0.1486  0.4907 -0.2018
 4651TIP3    H135444   2.785   5.415  11.863  1.1160  1.4480  0.6206
 4651TIP3    H235445   2.791   5.270  11.821 -1.4964  1.6276 -0.4564
 4652TIP3   OH235446   4.407   1.426  12.227 -0.2289 -0.4111 -0.1117
 4652TIP3    H135447   4.463   1.503  12.214  0.4493 -0.9120 -0.2108
 4652TIP3    H235448   4.318   1.460  12.230 -0.1629  0.0890 -2.8968
 4653TIP3   OH235449   2.321   2.233   1.949  0.2147  0.0228  0.1523
 4653TIP3    H135450   2.298   2.150   1.990 -2.3241 -0.2344 -1.6867
 4653TIP3    H235451   2.296   2.299   2.013  1.6098 -0.5892  1.3443
 4654TIP3   OH235452   4.203   1.794  14.818 -0.1821 -0.4314  0.1670
 4654TIP3    H135453   4.263   1.807  14.891  0.9966  0.5537 -0.9626
 4654TIP3    H235454   4.141   1.727  14.850  0.7555 -0.5628  1.7753
 4655TIP3   OH235455   0.744   0.698   5.092 -0.3331  0.3579 -0.2513
 4655TIP3    H135456   0.805   0.668   5.025  0.5956 -1.9237  1.5367
 4655TIP3    H235457   0.708   0.779   5.057  0.2012 -0.7133 -3.4311
 4656TIP3   OH235458   0.279   4.775   0.779  0.5262  0.1990  0.2786
 4656TIP3    H135459   0.339   4.737   0.715  0.9902  1.1923  0.1193
 4656TIP3    H235460   0.197   4.727   0.767  0.3820  0.8661 -1.5755
 4657TIP3   OH235461   5.717   3.955  15.514  0.4628 -0.4901  0.0611
 4657TIP3    H135462   5.662   4.033  15.518 -0.4416 -1.0861 -0.6182
 4657TIP3    H235463   5.661   3.885  15.547  0.1004 -1.4749 -2.4934
 4658TIP3   OH235464   5.260   1.772  16.955  0.4022 -0.0779  0.3015
 4658TIP3    H135465   5.211   1.768  17.037 -0.0777 -1.4398 -0.0368
 4658TIP3    H235466   5.352   1.773  16.983  0.2298  0.1104  0.8770
 4659TIP3   OH235467   1.506   0.481   0.453  0.0267  0.7288 -0.0906
 4659TIP3    H135468   1.411   0.469   0.451 -0.0511  1.3482 -0.4335
 4659TIP3    H235469   1.521   0.542   0.525  0.2389  0.0429  0.4510
 4660TIP3   OH235470   4.368   0.238  15.507  0.2364  0.0529 -0.6847
 4660TIP3    H135471   4.428   0.164  15.496 -0.7013 -0.7423 -0.5812
 4660TIP3    H235472   4.395   0.301  15.440  1.3251 -0.1878 -0.4823
 4661TIP3   OH235473   2.039   6.000   2.122 -0.4124 -0.2444 -0.5034
 4661TIP3    H135474   1.992   6.012   2.039  0.6371  0.5269 -0.9996
 4661TIP3    H235475   2.065   6.089   2.147  0.1350 -0.5913  0.1444
 4662TIP3   OH235476   5.523   2.661  14.429 -0.2049  0.2097 -0.0953
 4662TIP3    H135477   5.588   2.598  14.462 -0.8081 -1.4232 -1.9010
 4662TIP3    H235478   5.470   2.683  14.505  0.4907 -0.8942  0.7353
 4663TIP3   OH235479   4.916   3.824  16.050 -0.1116  0.0373  0.3016
 4663TIP3    H135480   4.975   3.862  16.116  0.4009 -1.3503  0.6630
 4663TIP3    H235481   4.828   3.840  16.085  0.1633 -0.7878  1.3888
 4664TIP3   OH235482   4.013   3.692   1.600  0.3218 -0.0553 -0.3259
 4664TIP3    H135483   4.065   3.655   1.671  1.6160  0.1585 -1.1565
 4664TIP3    H235484   3.982   3.615   1.551  0.7322 -0.1442 -0.4483
 4665TIP3   OH235485   2.115   5.382  15.103  0.3753  0.0696 -0.1709
 4665TIP3    H135486   2.104   5.475  15.124  1.4015  0.3672 -0.9496
 4665TIP3    H235487   2.047   5.365  15.038 -0.2148  0.1077  0.4140
 4666TIP3   OH235488   3.863   2.914   4.859  0.3048  0.1433 -0.2668
 4666TIP3    H135489   3.841   2.869   4.940  0.0436 -0.4071 -0.6366
 4666TIP3    H235490   3.904   2.847   4.804 -1.3706 -0.0237 -1.3570
 4667TIP3   OH235491   0.463   5.703   4.326  0.1755  0.3253  0.9225
 4667TIP3    H135492   0.395   5.659   4.378 -0.4822 -0.1125 -0.3023
 4667TIP3    H235493   0.538   5.644   4.332 -0.7098 -1.0226 -0.7315
 4668TIP3   OH235494   0.044   1.034   5.091  0.0815 -0.3366 -0.1911
 4668TIP3    H135495   0.082   1.006   5.007  0.3997 -1.7374  0.4076
 4668TIP3    H235496  -0.036   0.981   5.100 -1.4281  1.7500 -0.8814
 4669TIP3   OH235497   0.302   1.213  10.853  0.1932 -0.1102 -0.0728
 4669TIP3    H135498   0.331   1.180  10.768  0.8372 -0.4415  0.2682
 4669TIP3    H235499   0.353   1.294  10.865 -0.6222  0.4597 -0.4457
 4670TIP3   OH235500   2.904   4.478   6.593  0.0451 -0.1704  0.0727
 4670TIP3    H135501   2.907   4.573   6.601  3.0237  0.0159 -2.5525
 4670TIP3    H235502   2.854   4.462   6.513 -0.0544 -0.8072  0.2591
 4671TIP3   OH235503   3.299   1.870   5.107  0.0668  0.5927  0.2366
 4671TIP3    H135504   3.366   1.868   5.038 -0.0061  1.9465  0.1139
 4671TIP3    H235505   3.349   1.863   5.188  0.0655 -2.3582  0.0390
 4672TIP3   OH235506   3.435   1.489   2.645  0.1194  0.1182 -0.0396
 4672TIP3    H135507   3.530   1.481   2.649  0.1332 -0.0644 -0.6189
 4672TIP3    H235508   3.419   1.539   2.565 -0.1989  1.4801  0.8716
 4673TIP3   OH235509   4.376   3.396  15.499 -0.0083 -0.5898  0.1100
 4673TIP3    H135510   4.355   3.344  15.421 -1.5932 -2.8638  1.9767
 4673TIP3    H235511   4.300   3.453  15.510 -0.2343 -0.9669  0.5311
 4674TIP3   OH235512   0.855   0.149   2.668  0.6270  0.1469  0.2826
 4674TIP3    H135513   0.820   0.220   2.615  2.8324  2.8550  2.3205
 4674TIP3    H235514   0.801   0.149   2.747 -0.2481 -1.4032 -0.2921
 4675TIP3   OH235515   5.635   4.780   2.674  0.3719  0.0119  0.1019
 4675TIP3    H135516   5.655   4.687   2.662 -0.1172 -0.2211  1.0709
 4675TIP3    H235517   5.702   4.825   2.621 -0.1793 -0.9035 -1.4172
 4676TIP3   OH235518   3.474   5.471  11.168 -0.5504  0.1979 -0.7318
 4676TIP3    H135519   3.529   5.444  11.094 -0.6950 -0.7156 -0.5127
 4676TIP3    H235520   3.427   5.391  11.193  0.8140  0.0338  1.4948
 4677TIP3   OH235521   6.524   3.266   5.871 -0.7390  0.4234  0.5817
 4677TIP3    H135522   6.490   3.208   5.803 -1.7784  0.5585  0.9833
 4677TIP3    H235523   6.538   3.208   5.946 -2.3015  0.7766  1.1615
 4678TIP3   OH235524   6.219   5.711   5.906 -0.3872  0.2537  0.2673
 4678TIP3    H135525   6.240   5.683   5.817  1.6300 -0.0822  0.8416
 4678TIP3    H235526   6.216   5.630   5.957  0.3370  0.6165  0.8882
 4679TIP3   OH235527   3.034   3.113  15.836  0.1795  0.6219  0.1179
 4679TIP3    H135528   3.102   3.154  15.783  0.4880 -0.7537 -0.5742
 4679TIP3    H235529   2.952   3.155  15.807  0.4865  0.7648 -0.5583
 4680TIP3   OH235530   4.006   6.600  12.920 -0.4309  0.2725  0.3018
 4680TIP3    H135531   3.920   6.602  12.877 -0.1252  2.8558 -0.2869
 4680TIP3    H235532   4.051   6.525  12.881 -1.4334  0.5313 -1.4152
 4681TIP3   OH235533   0.493   6.358   5.883 -0.1075  0.4158 -0.2748
 4681TIP3    H135534   0.418   6.332   5.937 -0.6825 -1.3475 -1.8641
 4681TIP3    H235535   0.541   6.277   5.868  1.2045  1.2479 -0.6776
 4682TIP3   OH235536   5.538   5.884  16.325  0.2721 -0.5559  0.6652
 4682TIP3    H135537   5.608   5.878  16.260  1.0863 -1.8216  1.6328
 4682TIP3    H235538   5.531   5.978  16.343  0.2954 -0.2323 -0.9572
 4683TIP3   OH235539   4.438   4.580   3.723 -0.2722 -0.2200 -0.0898
 4683TIP3    H135540   4.437   4.665   3.678 -0.5658 -0.1574  0.0266
 4683TIP3    H235541   4.528   4.569   3.752  0.1227 -0.6746 -1.4657
 4684TIP3   OH235542   4.478   1.425  15.499 -0.0165  0.3857 -0.3166
 4684TIP3    H135543   4.406   1.443  15.439 -0.1066 -0.5521 -0.5014
 4684TIP3    H235544   4.519   1.510  15.513 -0.5635  0.7679 -0.9789
 4685TIP3   OH235545   2.989   3.461   5.081 -0.4367 -0.3472  0.3333
 4685TIP3    H135546   3.070   3.486   5.036 -0.8400 -0.9622 -0.7472
 4685TIP3    H235547   3.019   3.420   5.162  0.3448 -0.9245 -0.2460
 4686TIP3   OH235548   0.166   4.988  15.955  0.1410  0.6101 -0.5519
 4686TIP3    H135549   0.083   5.035  15.945  0.6861  1.2116 -2.2932
 4686TIP3    H235550   0.210   5.033  16.028  0.5659  2.7196 -2.0511
 4687TIP3   OH235551   4.232   2.025   3.672 -0.5960  0.1808  0.1653
 4687TIP3    H135552   4.206   1.966   3.743  0.0932 -0.2060  0.0962
 4687TIP3    H235553   4.160   2.088   3.666 -0.6705  0.2075  1.1996
 4688TIP3   OH235554   0.659   2.653  13.481 -0.8358  0.4864  0.0959
 4688TIP3    H135555   0.715   2.596  13.533 -0.4767 -0.2140 -1.0324
 4688TIP3    H235556   0.637   2.726  13.539 -0.8328 -0.5134  1.3536
 4689TIP3   OH235557   3.983   3.125   0.561 -0.5137 -0.1926 -0.1334
 4689TIP3    H135558   4.057   3.127   0.500  0.5133  1.2081  1.1034
 4689TIP3    H235559   3.912   3.169   0.514  0.7668  2.4024  0.2636
 4690TIP3   OH235560   4.790   1.612  10.946 -0.5842 -0.0280  0.0386
 4690TIP3    H135561   4.710   1.660  10.926  0.7398  2.1033 -0.2358
 4690TIP3    H235562   4.845   1.622  10.869  0.4399 -0.4679  0.7025
 4691TIP3   OH235563   0.246   2.081   6.435 -0.6176  0.2199  0.0986
 4691TIP3    H135564   0.243   2.103   6.342  1.2059  0.5000  0.0898
 4691TIP3    H235565   0.191   2.148   6.477  0.2128  1.3273 -0.5591
 4692TIP3   OH235566   6.479   6.750   1.726 -0.1870 -0.1365 -0.4377
 4692TIP3    H135567   6.450   6.807   1.655  0.2293 -0.4678 -0.8773
 4692TIP3    H235568   6.557   6.793   1.761 -0.4236  0.0560 -0.1374
 4693TIP3   OH235569   4.851   1.835   1.725  0.0793  0.4476  0.3567
 4693TIP3    H135570   4.928   1.885   1.751 -0.5145  0.7506  1.5929
 4693TIP3    H235571   4.814   1.804   1.807  0.7889 -2.5951 -0.4025
 4694TIP3   OH235572   6.754   6.140  11.451 -0.1962  0.8489  0.3683
 4694TIP3    H135573   6.749   6.232  11.426 -0.2812  0.1769 -2.2863
 4694TIP3    H235574   6.783   6.095  11.371  1.8611 -1.1932  2.1696
 4695TIP3   OH235575   4.369   2.487   0.455 -0.3688 -0.1098 -0.0289
 4695TIP3    H135576   4.342   2.575   0.483 -1.0450 -0.2113 -0.3415
 4695TIP3    H235577   4.370   2.492   0.359 -1.4337 -0.7277 -0.0865
 4696TIP3   OH235578   1.222   2.564  13.699 -0.4357  0.0783 -0.0574
 4696TIP3    H135579   1.281   2.639  13.695 -0.8303  0.3150 -1.7678
 4696TIP3    H235580   1.277   2.488  13.679 -0.6813  0.2772 -1.4708
 4697TIP3   OH235581   4.260   1.347   2.542  0.3758 -0.3704  0.0760
 4697TIP3    H135582   4.223   1.434   2.559 -3.2274 -2.0128  1.0459
 4697TIP3    H235583   4.277   1.347   2.447 -2.6843  0.2856 -0.5156
 4698TIP3   OH235584   2.570   0.208  11.797  0.3902 -0.5796 -0.2600
 4698TIP3    H135585   2.655   0.179  11.764  1.2298 -1.0897  2.2242
 4698TIP3    H235586   2.519   0.227  11.719  2.1532 -2.1206 -1.8386
 4699TIP3   OH235587   5.790   3.802   3.892  0.1703  0.2056  0.1970
 4699TIP3    H135588   5.850   3.869   3.927  0.5874  1.0857 -2.1305
 4699TIP3    H235589   5.763   3.836   3.807  0.5630 -2.6801 -1.1500
 4700TIP3   OH235590   0.859   1.556  15.822 -0.0310 -0.3559  0.1986
 4700TIP3    H135591   0.823   1.485  15.769 -0.1821 -0.2013  0.0920
 4700TIP3    H235592   0.787   1.584  15.877 -0.2865  0.4341 -0.5237
 4701TIP3   OH235593   6.171   1.776   6.145 -0.2068  0.5807  0.3513
 4701TIP3    H135594   6.077   1.765   6.129 -0.1701  0.9413 -0.1387
 4701TIP3    H235595   6.206   1.687   6.148 -0.7968  0.3895  1.9834
 4702TIP3   OH235596   5.289   0.663   0.219  0.1950  0.2617  0.0890
 4702TIP3    H135597   5.298   0.709   0.302  1.5682  0.3533 -0.1096
 4702TIP3    H235598   5.195   0.667   0.200  0.1969  2.5379  0.3381
 4703TIP3   OH235599   3.237   4.444   4.685  0.4869  0.6858 -0.2105
 4703TIP3    H135600   3.282   4.459   4.768 -0.6058 -0.0124  0.5161
 4703TIP3    H235601   3.144   4.447   4.707  0.1742  1.8645 -1.6576
 4704TIP3   OH235602   0.164   2.968  13.431 -0.1031  0.1073 -0.3904
 4704TIP3    H135603   0.128   2.881  13.448 -0.7021  0.1277 -1.4936
 4704TIP3    H235604   0.230   2.954  13.363  0.3969  0.3993  0.0267
 4705TIP3   OH235605   1.321   1.545  13.735  0.0122 -0.3936  0.9084
 4705TIP3    H135606   1.330   1.480  13.666 -0.2287 -1.5422  1.9300
 4705TIP3    H235607   1.391   1.609  13.718 -0.2890 -0.4574 -0.5890
 4706TIP3   OH235608   3.668   5.675  17.058 -0.3732  0.5205  0.8222
 4706TIP3    H135609   3.736   5.631  17.008  1.1756  2.6783  0.9545
 4706TIP3    H235610   3.637   5.745  17.000 -1.0219  0.8415  1.5466
 4707TIP3   OH235611   3.772   3.401   3.112  0.4541  0.2741  0.0933
 4707TIP3    H135612   3.851   3.433   3.067  0.6644  0.3469  0.5105
 4707TIP3    H235613   3.788   3.307   3.123 -0.0437  0.0645 -0.8865
 4708TIP3   OH235614   5.840   4.732  13.985  0.2073  0.5417 -0.3668
 4708TIP3    H135615   5.825   4.818  14.025 -0.0457  0.6471 -0.6812
 4708TIP3    H235616   5.767   4.679  14.015  1.9256 -0.4299  2.2210
 4709TIP3   OH235617   5.856   1.900  13.749 -0.0524  0.1185  0.0529
 4709TIP3    H135618   5.834   1.929  13.837  0.9007 -0.4854  0.4980
 4709TIP3    H235619   5.772   1.876  13.710 -0.4264 -0.0634  0.9603
 4710TIP3   OH235620   2.420   5.845   5.189  0.4575 -0.6536  0.1727
 4710TIP3    H135621   2.334   5.826   5.153  0.4436  0.2401 -0.2852
 4710TIP3    H235622   2.472   5.768   5.168  0.1207 -0.6546 -0.7119
 4711TIP3   OH235623   3.118   0.791   6.081 -0.0404 -0.3175  0.1181
 4711TIP3    H135624   3.075   0.825   6.160  0.7925  0.3156  0.3090
 4711TIP3    H235625   3.058   0.724   6.048 -1.7036  1.3107 -0.2527
 4712TIP3   OH235626   2.779   0.246   5.339 -0.6673 -0.0260  0.6406
 4712TIP3    H135627   2.698   0.212   5.378 -0.1667  0.1280  1.8379
 4712TIP3    H235628   2.786   0.335   5.374 -0.8304  0.5537 -0.7561
 4713TIP3   OH235629   6.174   0.958   5.053 -0.2049 -0.3704 -0.9634
 4713TIP3    H135630   6.100   0.930   5.000 -0.7062 -0.0975 -0.4132
 4713TIP3    H235631   6.196   1.045   5.019 -0.3415 -0.3169 -0.9168
 4714TIP3   OH235632   4.851   3.104   3.527  0.1425 -0.5951 -0.9383
 4714TIP3    H135633   4.870   3.018   3.488  0.4249 -1.8872  1.8936
 4714TIP3    H235634   4.762   3.095   3.562  1.0825 -0.6557  1.5907
 4715TIP3   OH235635   0.546   1.722  15.484  0.1074 -0.1510  0.3227
 4715TIP3    H135636   0.568   1.801  15.434  1.8046  0.3656  1.8178
 4715TIP3    H235637   0.593   1.651  15.440 -0.5269 -0.1630 -0.3573
 4716TIP3   OH235638   0.745   2.250   3.869  0.2274  0.3158 -0.5690
 4716TIP3    H135639   0.732   2.265   3.963 -3.2643  0.5468 -1.0381
 4716TIP3    H235640   0.830   2.206   3.864  0.3556  0.0265  2.7101
 4717TIP3   OH235641   1.890   2.724  13.448 -0.2959  0.7584 -0.1469
 4717TIP3    H135642   1.872   2.639  13.407 -1.0840  0.1223  1.4844
 4717TIP3    H235643   1.920   2.702  13.536  2.2755  2.0750 -0.6572
 4718TIP3   OH235644   5.259   2.146  16.617  0.3190 -0.3166 -0.0116
 4718TIP3    H135645   5.250   2.074  16.554  0.7603 -0.2864 -0.1079
 4718TIP3    H235646   5.219   2.112  16.697 -0.9922 -0.0502 -0.5446
 4719TIP3   OH235647   4.216   2.349   3.471  0.2811 -0.3156  0.7407
 4719TIP3    H135648   4.203   2.257   3.447 -1.7630  0.4994 -1.5309
 4719TIP3    H235649   4.151   2.366   3.539 -0.6215 -0.0907 -0.1637
 4720TIP3   OH235650   0.479   6.173   1.704  0.0227 -0.1034  0.6974
 4720TIP3    H135651   0.419   6.130   1.643 -0.2149  0.3340  0.6161
 4720TIP3    H235652   0.459   6.267   1.695  1.2707  0.1171  0.0736
 4721TIP3   OH235653   3.755   0.376  11.394  0.3417 -0.7308 -0.7860
 4721TIP3    H135654   3.847   0.365  11.369  0.3348  0.3554 -1.3238
 4721TIP3    H235655   3.720   0.438  11.330 -0.6549 -0.8071 -0.3229
 4722TIP3   OH235656   5.136   1.543  15.963 -0.3965  1.0247 -0.1179
 4722TIP3    H135657   5.078   1.618  15.975 -1.6315  0.2433 -1.0727
 4722TIP3    H235658   5.131   1.524  15.869  1.0629  0.6605 -0.1362
 4723TIP3   OH235659   4.041   3.893  14.496 -0.3277  0.0394  0.9471
 4723TIP3    H135660   4.085   3.902  14.411 -0.7827  0.0747  0.7153
 4723TIP3    H235661   3.955   3.933  14.483 -1.6943 -2.9151  0.4430
 4724TIP3   OH235662   6.221   2.303   1.879  0.3492  0.1867  0.1180
 4724TIP3    H135663   6.233   2.287   1.973  0.2074 -2.3361 -0.2337
 4724TIP3    H235664   6.308   2.294   1.842  0.5965  2.3300  0.1266
 4725TIP3   OH235665   0.825   6.622   4.230 -0.1396  0.2561 -0.7003
 4725TIP3    H135666   0.850   6.643   4.319  0.0308 -1.5568 -0.3069
 4725TIP3    H235667   0.747   6.675   4.213  0.7703  1.8133 -0.0484
 4726TIP3   OH235668   1.469   0.556  10.371  0.1006 -0.0515  0.4040
 4726TIP3    H135669   1.470   0.460  10.362 -1.5173 -0.1261  0.8256
 4726TIP3    H235670   1.502   0.571  10.460  1.3740 -0.1536 -0.0464
 4727TIP3   OH235671   4.081   0.287   5.112  0.1437  0.2106  0.1385
 4727TIP3    H135672   4.033   0.351   5.165 -0.1040  0.2810 -0.1732
 4727TIP3    H235673   4.100   0.215   5.173 -1.9008 -0.6193 -0.1727
 4728TIP3   OH235674   1.443   4.953   3.442 -0.1767  0.4842  0.4148
 4728TIP3    H135675   1.474   4.866   3.469 -0.7662  0.3097  0.5386
 4728TIP3    H235676   1.348   4.945   3.441 -0.1679  0.3457 -2.1964
 4729TIP3   OH235677   6.387   2.907  14.287  0.2172  0.0581 -0.1970
 4729TIP3    H135678   6.397   2.993  14.327 -1.8387  0.1103  0.2867
 4729TIP3    H235679   6.373   2.847  14.361 -1.1705 -0.2252 -0.6662
 4730TIP3   OH235680   1.873   2.987   5.665  0.1808 -0.1059 -0.1229
 4730TIP3    H135681   1.946   2.978   5.603 -1.4454 -2.2714 -1.8377
 4730TIP3    H235682   1.852   2.897   5.690 -2.9085  0.3162 -0.9366
 4731TIP3   OH235683   3.218   6.108  10.223  0.1800 -0.6667  0.1693
 4731TIP3    H135684   3.205   6.015  10.238 -0.0356 -0.6295  0.2248
 4731TIP3    H235685   3.300   6.115  10.176 -0.5572 -0.9933 -1.1741
 4732TIP3   OH235686   3.466   2.476  13.009  0.1349  0.1906  0.0666
 4732TIP3    H135687   3.463   2.512  13.098  1.0608 -0.3689  0.3229
 4732TIP3    H235688   3.547   2.510  12.972  0.2034 -0.3222 -0.2536
 4733TIP3   OH235689   6.732   2.459   5.778  1.1375  0.1845 -0.2784
 4733TIP3    H135690   6.742   2.532   5.839 -2.2739  0.7624 -0.3277
 4733TIP3    H235691   6.730   2.500   5.692  3.0211 -0.3563 -0.5970
 4734TIP3   OH235692   4.494   1.246   2.282  0.0007  0.0335 -0.2312
 4734TIP3    H135693   4.565   1.304   2.310  1.4551 -1.4901 -0.6708
 4734TIP3    H235694   4.487   1.261   2.187 -0.3033  0.2241 -0.1790
 4735TIP3   OH235695   5.911   3.020  11.990 -0.2442  0.3535  0.3399
 4735TIP3    H135696   5.894   3.014  12.084 -0.5838 -0.7139  0.2220
 4735TIP3    H235697   5.945   2.933  11.966  1.8354  1.2644 -0.1358
 4736TIP3   OH235698   5.954   0.335  14.909  0.2295  0.3142  0.1100
 4736TIP3    H135699   5.962   0.346  15.003  0.5274 -0.0928  0.1314
 4736TIP3    H235700   5.917   0.248  14.897  0.2706  0.3308 -0.1511
 4737TIP3   OH235701   0.123   5.084  13.686 -0.8359 -0.2932 -0.3484
 4737TIP3    H135702   0.217   5.100  13.672 -0.8535 -1.1212 -1.4424
 4737TIP3    H235703   0.094   5.158  13.740  0.1059  0.7967 -1.3207
 4738TIP3   OH235704   2.474   2.568   4.664  0.0837  0.0371 -0.5734
 4738TIP3    H135705   2.425   2.492   4.635 -2.7892  0.8308  1.9261
 4738TIP3    H235706   2.425   2.643   4.628 -0.4137  0.8334  1.6816
 4739TIP3   OH235707   1.021   3.271  15.528 -1.2244 -0.7651 -0.3680
 4739TIP3    H135708   0.979   3.207  15.586  0.2546  0.5673  2.3149
 4739TIP3    H235709   1.008   3.355  15.573 -0.9681  0.4791 -2.5664
 4740TIP3   OH235710   4.533   4.755   2.163  0.3328 -0.2144 -0.3619
 4740TIP3    H135711   4.552   4.735   2.255  1.6571 -1.1131 -0.8106
 4740TIP3    H235712   4.483   4.836   2.166  1.2493  0.3239  1.0941
 4741TIP3   OH235713   5.546   6.155  16.385 -0.3277 -0.1818  0.2284
 4741TIP3    H135714   5.569   6.180  16.474  1.6334 -1.8936  0.2605
 4741TIP3    H235715   5.618   6.190  16.331 -0.7854 -0.3484 -0.4992
 4742TIP3   OH235716   1.278   1.697  11.782 -0.1044  0.4688  0.4171
 4742TIP3    H135717   1.364   1.692  11.825 -0.3244 -0.3733  0.7680
 4742TIP3    H235718   1.223   1.745  11.845 -0.5388 -1.1294  1.2796
 4743TIP3   OH235719   6.442   2.228   0.783 -0.2513 -0.3398  0.3238
 4743TIP3    H135720   6.464   2.311   0.825  2.6394 -1.5224  1.3251
 4743TIP3    H235721   6.352   2.210   0.810 -0.7150  2.1835  0.5299
 4744TIP3   OH235722   4.562   5.603  12.283  0.0299 -0.1948  0.0081
 4744TIP3    H135723   4.472   5.626  12.258  0.3288 -0.0123 -0.9041
 4744TIP3    H235724   4.569   5.510  12.263 -0.1108 -0.3175  0.5341
 4745TIP3   OH235725   3.677   3.918   2.475  0.1867  0.2856 -0.7606
 4745TIP3    H135726   3.656   3.926   2.568 -0.8879  0.5566 -1.0125
 4745TIP3    H235727   3.728   3.838   2.468  1.8578  1.2267  0.3195
 4746TIP3   OH235728   4.311   3.336   2.623 -0.1629  1.0144 -0.2589
 4746TIP3    H135729   4.238   3.279   2.602 -1.5501  2.5825  0.1862
 4746TIP3    H235730   4.361   3.343   2.542  0.0692 -0.8651 -0.2912
 4747TIP3   OH235731   3.184   5.001  16.939 -0.2166 -0.1758  0.0187
 4747TIP3    H135732   3.129   5.053  16.882 -1.1971  0.7073  1.7503
 4747TIP3    H235733   3.151   4.911  16.930 -0.6968  0.0459 -0.4108
 4748TIP3   OH235734   2.771   1.484   2.720  0.2042  0.1983  0.0194
 4748TIP3    H135735   2.683   1.494   2.756  0.2776  0.6326  0.0828
 4748TIP3    H235736   2.757   1.480   2.625  0.0376 -0.6517  0.0773
 4749TIP3   OH235737   1.023   0.830  15.476 -0.1053 -0.1522 -0.6488
 4749TIP3    H135738   1.095   0.863  15.422  0.9771 -2.4884 -0.7250
 4749TIP3    H235739   1.029   0.879  15.557  1.1300  0.1955 -0.9358
 4750TIP3   OH235740   1.685   0.004   4.090  0.1710 -0.2574 -0.1038
 4750TIP3    H135741   1.644   0.057   4.022 -1.4029 -0.5473  0.6129
 4750TIP3    H235742   1.760  -0.037   4.046 -0.7280 -0.3051 -1.6046
 4751TIP3   OH235743   5.412   5.117   4.336  0.5516 -0.5782 -0.1828
 4751TIP3    H135744   5.447   5.030   4.353  1.3430 -0.3053 -0.4224
 4751TIP3    H235745   5.450   5.172   4.404  0.2196 -0.3760 -0.1596
 4752TIP3   OH235746   5.340   6.811   1.191  0.3469 -0.3924 -0.0933
 4752TIP3    H135747   5.334   6.895   1.147  0.4548  0.0531  0.7270
 4752TIP3    H235748   5.341   6.833   1.284  1.0624 -1.2565  0.1081
 4753TIP3   OH235749   3.756   1.873   5.718  0.6202  0.7566  0.1025
 4753TIP3    H135750   3.750   1.849   5.625  1.4073  0.1411  0.2011
 4753TIP3    H235751   3.744   1.968   5.719 -1.2287  0.5384 -0.4370
 4754TIP3   OH235752   1.857   2.297  16.820  0.0763  0.2410  0.8460
 4754TIP3    H135753   1.840   2.364  16.755  2.4538 -0.2299 -0.3004
 4754TIP3    H235754   1.914   2.233  16.776 -0.8873 -1.7543  2.3736
 4755TIP3   OH235755   6.609   4.144   1.528 -0.3844  0.1056 -0.0070
 4755TIP3    H135756   6.581   4.219   1.476 -1.8440  0.1470  0.8077
 4755TIP3    H235757   6.632   4.181   1.613  1.2008 -0.0665 -0.3452
 4756TIP3   OH235758   6.045   0.072  15.905  0.0887 -0.1455  0.2466
 4756TIP3    H135759   6.038   0.017  15.983 -1.4461  0.0630  0.2753
 4756TIP3    H235760   6.002   0.022  15.836 -1.4360  1.0470  0.3065
 4757TIP3   OH235761   2.752   3.896  12.265 -0.4435  0.3730 -0.4412
 4757TIP3    H135762   2.801   3.840  12.325 -1.8194 -0.3159  0.0898
 4757TIP3    H235763   2.748   3.846  12.183 -0.4015  0.3452 -0.4254
 4758TIP3   OH235764   0.998   1.459   4.976  0.0638 -0.6654  0.0977
 4758TIP3    H135765   0.905   1.438   4.971 -0.3556  1.1221  0.1337
 4758TIP3    H235766   1.024   1.473   4.885 -0.1381  0.6290  0.2331
 4759TIP3   OH235767   1.986   6.754  15.758 -0.2884 -0.2343 -0.2333
 4759TIP3    H135768   1.906   6.709  15.784 -0.6749  0.4044 -0.3014
 4759TIP3    H235769   1.956   6.828  15.706  0.3257  0.2222  0.0539
 4760TIP3   OH235770   2.121   2.252   1.764  0.2482 -0.1635 -0.4007
 4760TIP3    H135771   2.084   2.165   1.754 -2.0644  0.6994  0.2710
 4760TIP3    H235772   2.192   2.241   1.827 -0.1877 -1.5068 -0.1269
 4761TIP3   OH235773   0.848   0.995   3.258 -0.1503 -0.6631 -0.1949
 4761TIP3    H135774   0.918   0.964   3.315  1.5139  1.3038 -1.1126
 4761TIP3    H235775   0.892   1.019   3.177 -1.8829  0.7030 -0.7506
 4762TIP3   OH235776   4.073   0.822   3.093  0.5621 -0.2469  0.3730
 4762TIP3    H135777   4.101   0.732   3.076 -0.7807 -0.2946 -1.7878
 4762TIP3    H235778   4.095   0.869   3.013  0.4455  1.1461  1.1550
 4763TIP3   OH235779   1.153   0.692  11.685  0.3001  0.2895  0.7344
 4763TIP3    H135780   1.236   0.704  11.731  0.1986  0.3819  0.8966
 4763TIP3    H235781   1.088   0.683  11.755  0.1786  0.1936  0.6095
 4764TIP3   OH235782   3.549   5.298   3.271 -0.4040  0.0191 -0.6030
 4764TIP3    H135783   3.505   5.245   3.337  2.8374  0.3711  1.9683
 4764TIP3    H235784   3.526   5.388   3.292  0.8683  0.1530  0.3051
 4765TIP3   OH235785   5.325   3.131  16.647  0.1711  0.3211 -0.0604
 4765TIP3    H135786   5.347   3.218  16.680  0.3524  0.7192 -1.2196
 4765TIP3    H235787   5.275   3.147  16.567  0.2525 -0.6373 -0.3142
 4766TIP3   OH235788   3.088   2.644  12.210  0.4524  0.1370 -0.0341
 4766TIP3    H135789   3.138   2.722  12.235 -1.4291  0.7855  1.8462
 4766TIP3    H235790   3.115   2.577  12.272  1.1402 -0.3628 -0.8642
 4767TIP3   OH235791   6.561   4.123   0.551  0.2139  0.1135  0.5755
 4767TIP3    H135792   6.632   4.178   0.584  1.1635 -1.1097  0.6057
 4767TIP3    H235793   6.606   4.052   0.504 -1.0306  0.3337 -0.9945
 4768TIP3   OH235794   2.077   6.395   1.896 -0.0700  0.3298 -0.1082
 4768TIP3    H135795   2.020   6.457   1.851 -0.6523 -1.4131 -1.8717
 4768TIP3    H235796   2.165   6.423   1.874 -0.3034  1.4436  0.3799
 4769TIP3   OH235797   5.900   0.339   0.580  0.3879 -0.0190 -0.1875
 4769TIP3    H135798   5.875   0.415   0.632  2.0137  1.2836 -1.2540
 4769TIP3    H235799   5.990   0.320   0.607 -0.3740 -2.3321  0.9161
 4770TIP3   OH235800   5.501   5.715  15.039 -0.8093  0.3331  0.1151
 4770TIP3    H135801   5.573   5.688  15.097 -1.0430  0.0431  0.2744
 4770TIP3    H235802   5.440   5.641  15.041 -2.3831  1.6082  2.0646
 4771TIP3   OH235803   2.255   2.852   2.714 -0.3356 -0.6934  0.2336
 4771TIP3    H135804   2.274   2.846   2.621  0.9202  0.4433  0.4047
 4771TIP3    H235805   2.198   2.929   2.723 -2.6521 -2.3405  0.0984
 4772TIP3   OH235806   5.556   2.919   2.349 -0.3544 -0.5920 -0.4016
 4772TIP3    H135807   5.462   2.912   2.363 -0.5550 -0.6288 -1.7175
 4772TIP3    H235808   5.566   2.997   2.294  0.2649 -1.3727 -1.4035
 4773TIP3   OH235809   6.631   4.643  12.833 -0.0284 -0.0717 -0.4518
 4773TIP3    H135810   6.574   4.647  12.909  1.4082 -0.9494  0.7085
 4773TIP3    H235811   6.719   4.653  12.868  0.5034  2.2442 -2.3122
 4774TIP3   OH235812   1.760   2.309   0.131  0.4578  0.6478  0.0619
 4774TIP3    H135813   1.771   2.344   0.219  3.7620 -1.2477  0.4781
 4774TIP3    H235814   1.832   2.347   0.081  2.2215 -2.8702 -0.2620
 4775TIP3   OH235815   6.283   2.538  15.803 -0.1496  0.7835  0.2120
 4775TIP3    H135816   6.346   2.533  15.731 -0.7045 -0.6666 -0.1905
 4775TIP3    H235817   6.326   2.495  15.876  0.1178  1.5928  0.5358
 4776TIP3   OH235818   3.659   0.628  14.340  0.7692 -0.2474 -0.0714
 4776TIP3    H135819   3.629   0.539  14.360  0.4783 -0.2429 -0.4641
 4776TIP3    H235820   3.632   0.642  14.249  0.1917  0.4963  0.2049
 4777TIP3   OH235821   1.594   1.400  13.018  0.0191  0.2094  0.0427
 4777TIP3    H135822   1.645   1.422  12.940  0.0697  2.6582  0.7262
 4777TIP3    H235823   1.502   1.410  12.990  0.0078 -0.1604 -0.0534
 4778TIP3   OH235824   2.282   6.489  14.083  0.3329  0.1778  0.0506
 4778TIP3    H135825   2.196   6.502  14.043 -0.6083 -0.4209  1.8132
 4778TIP3    H235826   2.338   6.555  14.043 -0.4408 -0.7441 -2.6130
 4779TIP3   OH235827   6.347   0.465  12.412  0.0341  0.3427 -0.3834
 4779TIP3    H135828   6.306   0.546  12.380 -3.4852 -1.9996 -2.2022
 4779TIP3    H235829   6.284   0.431  12.476  1.8253 -0.5971  0.8996
 4780TIP3   OH235830   2.285   0.620  10.832  0.0918  0.2569  0.2034
 4780TIP3    H135831   2.332   0.539  10.853 -0.3239 -0.1345 -0.3449
 4780TIP3    H235832   2.323   0.648  10.749 -0.9755 -0.3305 -0.4964
 4781TIP3   OH235833   4.179   1.843   0.560 -0.3901  0.7438  0.0371
 4781TIP3    H135834   4.240   1.799   0.619 -0.2377  1.5924  0.5233
 4781TIP3    H235835   4.197   1.806   0.474  1.1778  1.3473  0.0878
 4782TIP3   OH235836   2.237   1.160  14.176  0.3222 -0.1611  0.1503
 4782TIP3    H135837   2.303   1.091  14.186 -2.2229 -2.9821 -1.4937
 4782TIP3    H235838   2.257   1.200  14.091  1.3550  0.6517  0.7670
 4783TIP3   OH235839   2.086   1.761   2.366  0.0115 -0.5637 -0.2003
 4783TIP3    H135840   2.133   1.685   2.400  0.1025  0.0993  1.1648
 4783TIP3    H235841   2.152   1.831   2.364 -0.9833  0.4588  2.0295
 4784TIP3   OH235842   0.307   1.384   4.353 -0.6699  0.4251 -0.0016
 4784TIP3    H135843   0.216   1.390   4.383 -0.4258  1.1778  0.6127
 4784TIP3    H235844   0.358   1.377   4.434 -0.2435 -0.9911 -0.3824
 4785TIP3   OH235845   5.472   2.008  11.336  0.1418  0.4130  0.1416
 4785TIP3    H135846   5.546   2.069  11.340 -0.3376  1.1593 -1.8982
 4785TIP3    H235847   5.513   1.922  11.328  0.8089  0.8291 -1.0223
 4786TIP3   OH235848   1.730   4.248   0.291 -0.0707 -0.0998 -0.2264
 4786TIP3    H135849   1.677   4.238   0.213 -0.2732  0.3343 -0.1467
 4786TIP3    H235850   1.753   4.159   0.317  0.1487 -0.2322 -0.8809
 4787TIP3   OH235851   6.137   1.555   2.427 -0.0204  0.5729 -0.1152
 4787TIP3    H135852   6.052   1.595   2.444 -0.6289 -0.4465 -0.7021
 4787TIP3    H235853   6.183   1.559   2.511 -0.3874  1.7515  0.0291
 4788TIP3   OH235854   2.003   4.492   1.464  0.5166 -0.3954  0.0247
 4788TIP3    H135855   1.997   4.396   1.463  2.7737 -0.5743  0.1700
 4788TIP3    H235856   2.004   4.515   1.557 -0.5067 -0.1949 -0.0149
 4789TIP3   OH235857   6.741   3.783   1.826 -0.1013  0.4100 -0.0433
 4789TIP3    H135858   6.807   3.843   1.861 -0.1795  0.0549  0.7182
 4789TIP3    H235859   6.789   3.704   1.804 -0.2754  0.1362  0.5506
 4790TIP3   OH235860   0.880   6.306  15.529 -0.5404  0.1909 -1.0552
 4790TIP3    H135861   0.897   6.400  15.525 -0.8539  0.3045  0.1072
 4790TIP3    H235862   0.949   6.271  15.585 -0.8093 -0.1805 -0.9537
 4791TIP3   OH235863   0.086   5.241   2.839 -0.6202  0.4376  0.4834
 4791TIP3    H135864   0.006   5.251   2.787 -0.1144 -0.1674 -0.4122
 4791TIP3    H235865   0.077   5.155   2.881  0.2429 -0.2842 -0.7990
 4792TIP3   OH235866   5.302   4.270   1.039 -0.3516  0.0254 -0.1130
 4792TIP3    H135867   5.324   4.330   0.969 -1.5060 -0.5427 -0.9878
 4792TIP3    H235868   5.214   4.239   1.018  0.2481 -2.0610  0.2302
 4793TIP3   OH235869   6.624   6.096  12.259  0.4675 -0.2946  0.3615
 4793TIP3    H135870   6.541   6.143  12.248  0.4076  0.0825  2.3756
 4793TIP3    H235871   6.655   6.082  12.169 -1.1757  0.6166 -0.3693
 4794TIP3   OH235872   4.969   6.801   4.037  0.0946 -0.1895 -0.0311
 4794TIP3    H135873   4.918   6.864   3.986 -0.9569  0.3762  1.6694
 4794TIP3    H235874   4.975   6.724   3.981 -0.2686  0.7229 -1.3558
 4795TIP3   OH235875   1.280   0.679  11.437 -0.8260  0.7552 -0.8657
 4795TIP3    H135876   1.237   0.731  11.370 -1.8908  0.8482 -0.1252
 4795TIP3    H235877   1.217   0.674  11.508 -0.9996 -2.0410 -1.1329
 4796TIP3   OH235878   6.565   4.395   5.151  0.2574  0.3744 -0.3122
 4796TIP3    H135879   6.581   4.393   5.246 -0.3343  2.7851 -0.1141
 4796TIP3    H235880   6.592   4.309   5.120  0.7990 -0.3305  2.0007
 4797TIP3   OH235881   5.100   3.950   0.477  0.0642 -0.2141 -0.4736
 4797TIP3    H135882   5.139   4.020   0.529  0.0856 -0.2049 -0.5023
 4797TIP3    H235883   5.162   3.878   0.483 -0.3501 -0.5171  0.2294
 4798TIP3   OH235884   4.228   3.562   2.241 -0.7642  0.5193  0.0156
 4798TIP3    H135885   4.136   3.586   2.243 -0.3741  2.0324  0.2413
 4798TIP3    H235886   4.274   3.644   2.222  0.6276  0.0642  1.3365
 4799TIP3   OH235887   6.141   6.158  12.213  0.3000  0.1400 -0.5046
 4799TIP3    H135888   6.147   6.205  12.130 -0.0177  0.7416 -0.1855
 4799TIP3    H235889   6.208   6.090  12.206 -0.6398 -0.6620 -1.7896
 4800TIP3   OH235890   5.986   6.464   3.603  0.0667  0.0969 -0.1077
 4800TIP3    H135891   5.927   6.398   3.567 -0.7625  0.3722  0.7267
 4800TIP3    H235892   5.989   6.533   3.537 -0.1618 -0.1462 -0.3680
 4801TIP3   OH235893   5.433   1.243   1.638  0.0483 -0.0895  0.3077
 4801TIP3    H135894   5.393   1.317   1.685  2.4044  1.5964 -0.2275
 4801TIP3    H235895   5.493   1.284   1.576  1.4690 -2.4696  0.0450
 4802TIP3   OH235896   4.108   3.436   1.715 -0.0579 -0.4700  1.1370
 4802TIP3    H135897   4.077   3.413   1.802 -1.5190 -0.6588  0.5842
 4802TIP3    H235898   4.075   3.366   1.659 -1.3337  0.9930  0.0210
 4803TIP3   OH235899   6.653   4.263  13.640 -0.3936 -0.4110 -0.0530
 4803TIP3    H135900   6.709   4.246  13.716  0.0533  0.1118 -0.2642
 4803TIP3    H235901   6.694   4.216  13.568 -1.1317 -1.3808  0.1467
 4804TIP3   OH235902   4.009   6.748   5.934 -0.1942  0.2592 -0.1246
 4804TIP3    H135903   3.994   6.752   5.840 -0.9304  0.3015 -0.0120
 4804TIP3    H235904   3.944   6.808   5.971  1.1217  1.4294  0.3080
 4805TIP3   OH235905   6.197   5.035   1.692  0.5701 -0.0698 -0.2051
 4805TIP3    H135906   6.257   5.015   1.620  0.0692  1.0203 -0.9332
 4805TIP3    H235907   6.142   5.105   1.659 -1.9362 -1.8622  0.0039
 4806TIP3   OH235908   0.366   2.952  13.949  0.5005 -0.0500 -0.3620
 4806TIP3    H135909   0.357   2.916  13.861  2.0696 -0.9286 -0.1771
 4806TIP3    H235910   0.278   2.948  13.986 -0.4571  1.5693 -2.3427
 4807TIP3   OH235911   3.014   6.189  10.395 -0.4025  0.4392  0.0979
 4807TIP3    H135912   2.971   6.110  10.427 -0.8989  0.9163  0.6083
 4807TIP3    H235913   3.103   6.160  10.373 -1.5657 -1.0142 -2.9547
 4808TIP3   OH235914   0.433   4.980  12.554 -0.2105 -0.1432  0.1234
 4808TIP3    H135915   0.341   4.999  12.572  0.0654  0.5262  0.8654
 4808TIP3    H235916   0.445   5.003  12.462 -1.1428 -1.6393 -0.3770
 4809TIP3   OH235917   1.818   2.883  13.243 -0.0015  0.4253 -0.1870
 4809TIP3    H135918   1.854   2.871  13.156  0.1741 -1.0689  0.0769
 4809TIP3    H235919   1.875   2.831  13.300  0.3189  1.9577  0.9236
 4810TIP3   OH235920   3.022   5.079  15.459 -0.4388 -0.3619 -0.9684
 4810TIP3    H135921   3.034   5.167  15.424  2.0462 -0.0668  0.5079
 4810TIP3    H235922   3.102   5.032  15.434 -0.7835 -1.5469  0.1186
 4811TIP3   OH235923   0.117   2.194  15.030  0.5929 -0.3542  0.0019
 4811TIP3    H135924   0.213   2.195  15.028  0.6228 -0.3950  1.1038
 4811TIP3    H235925   0.092   2.277  14.988  1.0345 -1.6092 -2.8147
 4812TIP3   OH235926   4.253   0.368   2.575  0.1156  0.6329 -0.3545
 4812TIP3    H135927   4.224   0.314   2.648 -0.0869  1.8052  0.4458
 4812TIP3    H235928   4.230   0.318   2.497  0.9304 -0.9217  0.3946
 4813TIP3   OH235929   0.071   1.394  15.939  0.0704  0.0584 -0.0626
 4813TIP3    H135930   0.004   1.411  16.006 -0.3307 -1.3461 -0.1033
 4813TIP3    H235931   0.118   1.318  15.972  0.2618 -0.2705 -1.0939
 4814TIP3   OH235932   1.434   2.933  13.323 -0.1420 -0.2104 -0.0843
 4814TIP3    H135933   1.450   2.919  13.229  0.7470 -1.3760  0.2252
 4814TIP3    H235934   1.354   2.984  13.326  0.1763  0.4193 -1.5153
 4815TIP3   OH235935   0.703   0.136   2.911  0.4275 -0.2441  0.4751
 4815TIP3    H135936   0.637   0.079   2.872  2.3611 -0.9567 -1.9523
 4815TIP3    H235937   0.655   0.192   2.972 -1.7817 -3.2946  1.6339
 4816TIP3   OH235938   0.922   2.769   0.935  0.1028  0.0264 -0.3120
 4816TIP3    H135939   0.958   2.682   0.919  1.2924  0.5057 -0.2983
 4816TIP3    H235940   0.882   2.793   0.851  0.1525 -0.3541 -0.4482
 4817TIP3   OH235941   4.562   5.156  11.065 -0.0291  0.4573 -0.1956
 4817TIP3    H135942   4.569   5.251  11.061 -0.2899  0.4899  0.0612
 4817TIP3    H235943   4.510   5.140  11.145  0.4595  0.0832  0.0463
 4818TIP3   OH235944   5.783   3.226  15.293  0.1999  0.0426  0.6767
 4818TIP3    H135945   5.795   3.263  15.380 -0.0727 -1.9165  1.5794
 4818TIP3    H235946   5.853   3.160  15.285  2.4561  2.6294 -2.0070
 4819TIP3   OH235947   5.432   4.117   0.855  0.5162  0.0066  0.3689
 4819TIP3    H135948   5.391   4.161   0.930  2.9569 -0.5999  2.1141
 4819TIP3    H235949   5.497   4.180   0.823  0.3486 -0.2374 -0.4675
 4820TIP3   OH235950   1.215   0.756  15.977 -0.7043  0.0070 -0.3815
 4820TIP3    H135951   1.224   0.851  15.963 -3.0878  0.4324  0.7172
 4820TIP3    H235952   1.216   0.746  16.073 -2.4424 -0.8319 -0.4251
 4821TIP3   OH235953   3.042   3.861   4.549  0.4524 -0.3252 -0.4332
 4821TIP3    H135954   2.976   3.881   4.615 -1.8426 -0.5889 -2.5998
 4821TIP3    H235955   3.057   3.944   4.505  1.4662 -0.3073 -0.0698
 4822TIP3   OH235956   4.291   4.223   0.891 -0.2023 -0.4538 -0.2730
 4822TIP3    H135957   4.331   4.167   0.957 -0.2826 -0.2258 -0.0303
 4822TIP3    H235958   4.359   4.233   0.824  0.6038  0.9597  0.7498
 4823TIP3   OH235959   1.181   0.145  15.863  0.5713 -0.1424 -0.2579
 4823TIP3    H135960   1.094   0.165  15.900  0.8565 -0.3338  0.5275
 4823TIP3    H235961   1.176   0.053  15.839  0.7740 -0.3218  0.3929
 4824TIP3   OH235962   1.682   2.799   0.380 -0.1014  0.0867  0.5335
 4824TIP3    H135963   1.647   2.863   0.318 -1.1309  1.2302  2.2346
 4824TIP3    H235964   1.636   2.718   0.359  0.3734  0.1698 -0.8946
 4825TIP3   OH235965   1.515   4.535   2.668  0.2227 -0.1381 -0.5627
 4825TIP3    H135966   1.433   4.540   2.619  0.3935  1.8211 -0.6518
 4825TIP3    H235967   1.507   4.601   2.736  0.4491 -2.0614  1.4154
 4826TIP3   OH235968   6.296   2.888  11.799 -0.4067 -0.0886 -0.1532
 4826TIP3    H135969   6.286   2.978  11.768 -1.2360 -0.3913 -0.8002
 4826TIP3    H235970   6.389   2.878  11.815 -0.1522  0.5421 -1.1629
 4827TIP3   OH235971   1.636   5.270   1.481 -0.4038 -0.5152  0.8855
 4827TIP3    H135972   1.703   5.337   1.467 -1.4078  0.4264  0.5485
 4827TIP3    H235973   1.596   5.292   1.565 -0.8549 -0.5817  0.6911
 4828TIP3   OH235974   2.569   0.925  17.254 -0.2639  0.8786 -0.0625
 4828TIP3    H135975   2.607   0.968  17.178 -0.4630  1.7787  0.3424
 4828TIP3    H235976   2.526   0.847  17.218  2.3577 -0.4317 -0.4499
 4829TIP3   OH235977   3.628   5.636  11.339  0.6178  0.2249  0.4147
 4829TIP3    H135978   3.573   5.577  11.287  1.1032  0.2201 -0.1000
 4829TIP3    H235979   3.588   5.635  11.426  0.2296 -0.3410  0.2368
 4830TIP3   OH235980   4.078   6.562  11.945  0.1350  0.0420 -0.3649
 4830TIP3    H135981   4.005   6.499  11.949  1.3896 -1.5272 -1.3941
 4830TIP3    H235982   4.072   6.611  12.026 -1.2289 -1.0325  0.2043
 4831TIP3   OH235983   0.747   0.566  14.427  0.0324  0.2572 -0.6473
 4831TIP3    H135984   0.756   0.477  14.461  0.9695  0.6027  0.0252
 4831TIP3    H235985   0.676   0.604  14.479  0.6959  0.4105  0.1634
 4832TIP3   OH235986   3.572   4.100  14.212 -0.8399  0.4129  0.1675
 4832TIP3    H135987   3.510   4.156  14.258  0.1793  0.1704  1.8706
 4832TIP3    H235988   3.658   4.137  14.233 -0.1586 -1.7762  1.3177
 4833TIP3   OH235989   1.958   6.011   1.857 -0.0707 -0.0596  0.8480
 4833TIP3    H135990   2.053   6.011   1.852 -0.1473 -0.5738 -0.7048
 4833TIP3    H235991   1.929   5.977   1.773 -1.6282 -0.1327  1.3963
 4834TIP3   OH235992   2.920   5.013   1.802 -0.6471 -0.2207 -0.4882
 4834TIP3    H135993   2.897   4.935   1.751  0.1872 -0.9503  0.2376
 4834TIP3    H235994   2.975   5.065   1.744 -1.5099  0.0171 -1.1053
 4835TIP3   OH235995   2.945   5.613   5.607 -0.6770 -0.4121  0.4574
 4835TIP3    H135996   2.972   5.563   5.684 -1.2787  0.5908  1.3547
 4835TIP3    H235997   2.996   5.694   5.612 -1.5083  0.1252  0.4233
 4836TIP3   OH235998   2.341   1.536   3.939  0.2267  0.5961 -0.0090
 4836TIP3    H135999   2.268   1.595   3.959 -1.3324 -2.1810  2.9411
 4836TIP3    H236000   2.355   1.487   4.020  2.4215 -2.0942 -1.9177
 4837TIP3   OH236001   6.401   3.939  12.018 -0.0352 -0.1760 -0.5026
 4837TIP3    H136002   6.415   3.965  12.109  0.2380  0.7363 -0.7989
 4837TIP3    H236003   6.374   3.847  12.023 -0.7654  0.0805  0.5527
 4838TIP3   OH236004   3.765   2.757   5.406 -0.3038 -0.0468  0.0770
 4838TIP3    H136005   3.703   2.690   5.434 -0.0080 -0.0978  0.6258
 4838TIP3    H236006   3.834   2.755   5.472 -0.4860  1.0800  0.3196
 4839TIP3   OH236007   3.479   0.657   4.524  0.2117  0.0516  0.0705
 4839TIP3    H136008   3.407   0.719   4.528  0.1849  0.2646 -2.5602
 4839TIP3    H236009   3.517   0.670   4.437  2.8753 -0.6796  1.0580
 4840TIP3   OH236010   3.629   5.871   5.423 -0.2584 -0.4029 -0.4434
 4840TIP3    H136011   3.627   5.776   5.432  0.2051 -0.3250  0.6062
 4840TIP3    H236012   3.670   5.887   5.338  1.1682 -1.1157  0.0961
 4841TIP3   OH236013   3.384   3.360  15.289  0.6632  0.0029 -0.3023
 4841TIP3    H136014   3.366   3.296  15.220 -3.2340  1.2261 -0.5437
 4841TIP3    H236015   3.333   3.329  15.365  1.0917  1.2013  0.4943
 4842TIP3   OH236016   1.449   1.198  16.882  0.0017  0.2152 -0.2607
 4842TIP3    H136017   1.403   1.221  16.963 -1.1780  1.5558 -1.2825
 4842TIP3    H236018   1.386   1.146  16.833  1.0638 -1.4251  0.0856
 4843TIP3   OH236019   5.256   3.824  12.462  0.0287 -0.2091 -0.3861
 4843TIP3    H136020   5.211   3.906  12.443 -1.4079 -1.3994 -2.2205
 4843TIP3    H236021   5.349   3.843  12.447 -0.2615  1.1648 -0.4659
 4844TIP3   OH236022   4.276   0.390  12.652 -0.0778  0.8728  0.3072
 4844TIP3    H136023   4.324   0.318  12.611 -1.5202  0.8536 -1.4207
 4844TIP3    H236024   4.226   0.348  12.722  0.7121  0.5415  0.6806
 4845TIP3   OH236025   4.939   0.524  11.032 -0.0919 -0.2643 -0.0471
 4845TIP3    H136026   4.927   0.581  11.107 -1.5677 -1.2558  0.5001
 4845TIP3    H236027   4.956   0.438  11.070  0.3040 -0.5461 -0.8512
 4846TIP3   OH236028   5.297   4.904   6.323  0.5723  0.1502 -0.4671
 4846TIP3    H136029   5.235   4.931   6.391  2.2850 -0.4411  1.3933
 4846TIP3    H236030   5.251   4.836   6.275 -0.4818  0.1887  0.4479
 4847TIP3   OH236031   2.781   1.710  12.893 -0.0585 -0.0456  0.2663
 4847TIP3    H136032   2.762   1.619  12.868 -0.7892  0.6337 -1.7491
 4847TIP3    H236033   2.696   1.745  12.919 -0.2124  0.6991 -1.1660
 4848TIP3   OH236034   0.034   6.221   3.321 -0.2990 -0.2092 -0.8482
 4848TIP3    H136035  -0.034   6.173   3.273 -0.7279 -2.4437  1.8595
 4848TIP3    H236036   0.116   6.188   3.285 -0.6134 -0.9172 -0.9256
 4849TIP3   OH236037   6.064   3.853  11.146  0.0960 -0.6073  0.1439
 4849TIP3    H136038   6.082   3.796  11.221  2.4577 -1.0272 -0.7000
 4849TIP3    H236039   6.029   3.795  11.079  1.2086 -0.8327 -0.2441
 4850TIP3   OH236040   0.702   2.321  14.632  0.1532  0.0888  0.0180
 4850TIP3    H136041   0.746   2.235  14.634  0.2022  0.1204  2.3761
 4850TIP3    H236042   0.774   2.384  14.622  0.1182 -0.1345 -1.7159
 4851TIP3   OH236043   4.332   2.681  11.768  0.3760  0.7330 -0.2824
 4851TIP3    H136044   4.263   2.652  11.709  0.8313  0.5450 -0.7264
 4851TIP3    H236045   4.411   2.682  11.714  1.3570 -2.1998  1.0119
 4852TIP3   OH236046   4.880   1.068   5.098 -0.1810 -0.1213  0.1248
 4852TIP3    H136047   4.939   1.033   5.032 -1.4185 -1.5090 -0.2819
 4852TIP3    H236048   4.818   1.122   5.050  0.9354  1.6232  0.5938
 4853TIP3   OH236049   4.312   1.072   0.364  0.3465 -0.3279 -0.5634
 4853TIP3    H136050   4.322   0.977   0.361  0.9909 -0.2435 -1.2665
 4853TIP3    H236051   4.327   1.095   0.455 -0.5359 -0.9770 -0.2487
 4854TIP3   OH236052   5.063   2.014   4.500 -0.0547  0.2093  0.6091
 4854TIP3    H136053   5.121   2.015   4.425  0.4755 -1.0249  0.9963
 4854TIP3    H236054   5.061   2.105   4.530  1.6135  0.2710  0.5525
 4855TIP3   OH236055   0.434   1.250   1.003  0.0706 -0.0020  0.5992
 4855TIP3    H136056   0.360   1.310   1.006  0.4833  0.5995 -0.5617
 4855TIP3    H236057   0.422   1.201   0.921  2.0986  1.6815 -0.7862
 4856TIP3   OH236058   1.654   2.151   5.039  0.8679 -0.4262  0.9348
 4856TIP3    H136059   1.701   2.134   5.120  3.0437  0.2183 -0.1546
 4856TIP3    H236060   1.706   2.218   4.995  0.5123 -1.8305 -1.6770
 4857TIP3   OH236061   4.034   1.408  17.049  0.0434  0.0015 -0.0926
 4857TIP3    H136062   4.017   1.405  16.955 -0.0201 -2.1721 -0.0462
 4857TIP3    H236063   4.009   1.496  17.076 -0.3280  0.4997 -2.0380
 4858TIP3   OH236064   2.228   2.587  13.952  0.3133  0.0935  0.2843
 4858TIP3    H136065   2.287   2.650  13.911  1.1699  0.0150  1.3610
 4858TIP3    H236066   2.228   2.511  13.893 -0.1858  0.8171 -0.6606
 4859TIP3   OH236067   0.732   1.379   5.695  0.1531 -0.1983  0.1339
 4859TIP3    H136068   0.823   1.408   5.685  0.4835 -0.9611  0.8206
 4859TIP3    H236069   0.679   1.457   5.678  1.0088  0.8051  1.9172
 4860TIP3   OH236070   0.164   2.034  16.448 -0.3573  0.1799 -1.1895
 4860TIP3    H136071   0.243   2.073  16.411 -0.4163  1.9273  0.4649
 4860TIP3    H236072   0.194   1.957  16.495  0.1986  0.1435 -1.6059
 4861TIP3   OH236073   2.085   4.985  13.564  0.4712  0.5789  0.3174
 4861TIP3    H136074   2.165   4.974  13.616 -1.0238 -0.6008  2.4499
 4861TIP3    H236075   2.030   5.044  13.617 -0.0271  1.4886 -1.1876
 4862TIP3   OH236076   4.072   5.013   6.083 -0.2423  0.1805 -0.6910
 4862TIP3    H136077   4.052   5.082   6.146 -3.0416 -0.5219 -0.7049
 4862TIP3    H236078   4.040   5.046   5.999  0.0728 -0.3738 -1.0344
 4863TIP3   OH236079   3.330   6.292  12.398  0.3549  0.1282 -0.4422
 4863TIP3    H136080   3.360   6.377  12.365  1.7879 -0.7271 -1.3647
 4863TIP3    H236081   3.262   6.315  12.462  0.0097  1.9334 -1.4064
 4864TIP3   OH236082   0.373   0.054   3.041  0.2559 -0.4413  0.2112
 4864TIP3    H136083   0.317   0.046   2.964  1.2334  0.3200 -0.5919
 4864TIP3    H236084   0.314   0.038   3.115 -1.6653  3.0319 -0.4445
 4865TIP3   OH236085   5.871   0.233   4.115 -0.0641  0.4185 -0.1556
 4865TIP3    H136086   5.936   0.302   4.101 -0.5874  0.6614 -1.4311
 4865TIP3    H236087   5.788   0.272   4.086 -0.4470 -0.5692 -0.4047
 4866TIP3   OH236088   4.926   1.819   0.087 -0.4600  0.2276 -0.2806
 4866TIP3    H136089   5.017   1.834   0.113 -0.2563  0.7955 -1.2816
 4866TIP3    H236090   4.887   1.907   0.085 -0.8469  0.0503 -0.5297
 4867TIP3   OH236091   5.603   0.592  11.589  0.1844 -0.2161 -0.3821
 4867TIP3    H136092   5.674   0.585  11.524 -0.1527 -0.6007 -0.7111
 4867TIP3    H236093   5.560   0.676  11.569  0.4809 -0.0289 -0.2451
 4868TIP3   OH236094   0.988   5.125   4.756 -0.2942  0.0016 -0.0758
 4868TIP3    H136095   1.044   5.168   4.821 -2.5423  1.5640  0.8600
 4868TIP3    H236096   1.027   5.151   4.672  0.5094  0.9162  0.5583
 4869TIP3   OH236097   2.313   6.505   1.803 -0.0236 -0.2039  0.1979
 4869TIP3    H136098   2.367   6.530   1.878 -0.9923  1.6420  0.3124
 4869TIP3    H236099   2.370   6.518   1.727  0.3992 -0.3836  0.4832
 4870TIP3   OH236100   6.288   2.050   0.583 -0.3119 -0.7598 -0.0799
 4870TIP3    H136101   6.281   1.957   0.605  1.4110 -0.5747  1.4032
 4870TIP3    H236102   6.373   2.076   0.619 -0.8312  1.4136 -0.3797
 4871TIP3   OH236103   6.412   0.252   2.291 -0.3572  0.1074 -0.0741
 4871TIP3    H136104   6.348   0.181   2.293  1.0556 -1.1785  2.4102
 4871TIP3    H236105   6.385   0.309   2.364 -1.0364  1.7338 -1.5757
 4872TIP3   OH236106   3.626   5.957  14.614  0.3445  0.2993 -0.8411
 4872TIP3    H136107   3.638   5.890  14.681  0.6077  2.0550  0.9320
 4872TIP3    H236108   3.574   6.025  14.657 -0.3519  1.0153 -2.7460
 4873TIP3   OH236109   5.662   2.402   1.228  0.0974 -0.1060 -0.7235
 4873TIP3    H136110   5.631   2.394   1.137 -0.9138 -0.0864 -0.3914
 4873TIP3    H236111   5.581   2.404   1.280  0.6207  1.7271  0.0433
 4874TIP3   OH236112   3.085   3.236  13.007 -0.1920 -0.4058  0.4899
 4874TIP3    H136113   3.105   3.178  12.933  1.5535  1.0118 -0.1887
 4874TIP3    H236114   3.116   3.322  12.979 -0.4781  0.3678  2.4645
 4875TIP3   OH236115   1.336   1.591   2.854  0.0896  0.0942  0.0125
 4875TIP3    H136116   1.326   1.657   2.922 -1.5133  1.2380 -1.2871
 4875TIP3    H236117   1.427   1.598   2.826  0.0667  1.4224  0.2352
 4876TIP3   OH236118   5.103   5.839  16.067 -0.0279 -0.7667 -0.0747
 4876TIP3    H136119   5.026   5.864  16.016 -0.4837 -1.7920  0.0945
 4876TIP3    H236120   5.096   5.891  16.147 -0.6237 -0.9474 -0.0065
 4877TIP3   OH236121   2.032   0.782  12.003 -0.2415 -0.7846 -0.0055
 4877TIP3    H136122   2.110   0.823  11.967  0.1643 -0.2495  1.4565
 4877TIP3    H236123   2.041   0.792  12.098 -1.8073 -1.2198  0.2022
 4878TIP3   OH236124   2.424   0.704  12.550 -0.4339 -0.0368  0.3355
 4878TIP3    H136125   2.467   0.774  12.600  0.3100 -0.8421  0.8409
 4878TIP3    H236126   2.419   0.738  12.461  0.1849  0.5460  0.5156
 4879TIP3   OH236127   0.748   1.808  17.061  0.0468 -0.4515 -0.2338
 4879TIP3    H136128   0.825   1.845  17.105  0.2281 -0.8008 -0.2589
 4879TIP3    H236129   0.756   1.838  16.970  0.1734 -0.5174 -0.2466
 4880TIP3   OH236130   3.870   1.322   4.167 -0.3209 -0.3697  0.4325
 4880TIP3    H136131   3.861   1.227   4.169  0.9625 -0.4755  2.1175
 4880TIP3    H236132   3.952   1.338   4.120 -0.6207 -0.0951  0.0045
 4881TIP3   OH236133   0.656   0.474   3.456 -0.1130 -0.3190  0.0489
 4881TIP3    H136134   0.626   0.435   3.538 -2.0985  0.5432 -0.2304
 4881TIP3    H236135   0.700   0.403   3.410 -0.9187 -1.3788  0.9029
 4882TIP3   OH236136   5.748   5.660  16.381 -0.4727 -0.0648 -0.3063
 4882TIP3    H136137   5.743   5.756  16.384 -1.3790 -0.1104 -0.1416
 4882TIP3    H236138   5.728   5.638  16.290  4.0596  0.1063 -1.4580
 4883TIP3   OH236139   3.970   5.200   1.425 -0.0322 -0.0557 -0.2228
 4883TIP3    H136140   4.053   5.246   1.438  0.5851 -1.8027  2.3700
 4883TIP3    H236141   3.995   5.109   1.413 -1.4421 -0.2294 -2.0225
 4884TIP3   OH236142   4.573   5.926   2.753 -0.5344 -0.4444  0.2425
 4884TIP3    H136143   4.601   6.014   2.782  0.9201 -1.5126  2.2199
 4884TIP3    H236144   4.483   5.918   2.784 -0.6262  0.2908  0.1808
 4885TIP3   OH236145   3.222   6.408   4.708  0.0415 -0.2123  0.2467
 4885TIP3    H136146   3.283   6.376   4.642  0.4075 -0.4365  0.6973
 4885TIP3    H236147   3.274   6.463   4.766 -0.9129  2.6560 -1.5186
 4886TIP3   OH236148   5.877   2.762   5.648  0.1722  0.4406  0.2502
 4886TIP3    H136149   5.912   2.727   5.730 -2.4251 -1.5914  0.5510
 4886TIP3    H236150   5.819   2.833   5.675 -2.2820 -1.5289  0.4316
 4887TIP3   OH236151   0.586   5.862  14.505  0.2032 -0.0702  0.0801
 4887TIP3    H136152   0.679   5.853  14.527  0.2176  3.0125  1.6612
 4887TIP3    H236153   0.541   5.807  14.569  0.9500 -1.8998 -0.9477
 4888TIP3   OH236154   2.176   4.484   1.164 -0.0921  0.5089 -0.0320
 4888TIP3    H136155   2.151   4.392   1.162 -0.5457  0.6312 -0.1781
 4888TIP3    H236156   2.262   4.486   1.206 -1.6217  0.3872  3.2174
 4889TIP3   OH236157   3.004   3.027   5.881 -0.0146 -0.1288  0.4144
 4889TIP3    H136158   2.963   3.104   5.922  2.9394  1.1320  1.2002
 4889TIP3    H236159   3.027   3.057   5.793 -1.0418 -0.9185 -0.1247
 4890TIP3   OH236160   6.375   3.045  16.524 -0.4155 -0.3204  0.0149
 4890TIP3    H136161   6.438   2.981  16.490  0.6822  1.1685 -0.8164
 4890TIP3    H236162   6.429   3.110  16.569 -1.5197 -0.0091  0.8871
 4891TIP3   OH236163   5.334   0.682  12.016 -0.9874 -0.6669  0.0090
 4891TIP3    H136164   5.414   0.653  11.972 -0.9159 -1.8481  0.9080
 4891TIP3    H236165   5.278   0.712  11.945  0.2772  0.2553 -0.6269
 4892TIP3   OH236166   4.595   0.558   3.771 -0.0116 -0.3612  0.0331
 4892TIP3    H136167   4.631   0.548   3.683  0.6679 -1.7555  0.4520
 4892TIP3    H236168   4.514   0.507   3.770 -0.3523  0.1799  0.0157
 4893TIP3   OH236169   1.305   4.542   3.427 -0.3298  0.3953  0.1204
 4893TIP3    H136170   1.365   4.613   3.401 -0.4014  0.0379 -1.0516
 4893TIP3    H236171   1.344   4.505   3.505  1.2827 -0.1870 -0.9412
 4894TIP3   OH236172   5.951   5.047   4.945 -0.0362  0.3683  0.1462
 4894TIP3    H136173   5.977   5.039   5.037 -0.3740 -0.2477  0.1960
 4894TIP3    H236174   5.895   4.970   4.930 -0.5483  0.8416 -0.3765
 4895TIP3   OH236175   6.153   3.499   6.288 -0.1190 -0.0524  0.5763
 4895TIP3    H136176   6.205   3.426   6.256  2.9517  2.5764 -0.7280
 4895TIP3    H236177   6.156   3.490   6.384  0.6298 -1.3497  0.4406
 4896TIP3   OH236178   0.591   4.561  12.457  0.0070  0.8229 -0.1414
 4896TIP3    H136179   0.667   4.503  12.455  1.0825  2.2120 -0.6336
 4896TIP3    H236180   0.624   4.644  12.423 -1.9833  1.1510 -1.3398
 4897TIP3   OH236181   6.782   1.438   1.831 -0.4098  0.3422  0.3644
 4897TIP3    H136182   6.735   1.504   1.881 -2.1672 -1.3461  0.9766
 4897TIP3    H236183   6.845   1.401   1.893 -0.5958  0.2563  0.5011
 4898TIP3   OH236184   5.270   3.114  15.588 -0.1870 -0.3330 -0.4313
 4898TIP3    H136185   5.216   3.160  15.651  0.2285  1.3591 -1.2636
 4898TIP3    H236186   5.347   3.085  15.638 -0.2000  0.3630 -0.0089
 4899TIP3   OH236187   5.023   6.779   6.117  0.2218 -0.4760 -0.5326
 4899TIP3    H136188   4.952   6.726   6.078  0.1819 -1.0046  0.2521
 4899TIP3    H236189   4.996   6.791   6.208 -0.7834  2.6486 -1.1880
 4900TIP3   OH236190   1.585   0.418   5.448 -0.3292 -0.5938  0.3211
 4900TIP3    H136191   1.551   0.508   5.445 -0.1933 -0.5454  0.1960
 4900TIP3    H236192   1.556   0.384   5.532 -0.9232 -0.6511  0.0937
 4901TIP3   OH236193   6.510   2.308  14.690  0.0071 -0.2142 -0.1334
 4901TIP3    H136194   6.525   2.305  14.784 -1.1856  2.4443  0.1726
 4901TIP3    H236195   6.443   2.242  14.673  1.1368 -1.5915  0.6663
 4902TIP3   OH236196   0.729   4.890  15.964 -0.2437  0.3293  0.6782
 4902TIP3    H136197   0.792   4.961  15.961  1.4852 -1.1611  1.2040
 4902TIP3    H236198   0.776   4.816  16.002 -1.8180 -1.3037 -0.4093
 4903TIP3   OH236199   4.734   4.153   5.653 -0.6390 -0.1712 -0.4797
 4903TIP3    H136200   4.690   4.237   5.635 -0.2246  0.1444 -0.0495
 4903TIP3    H236201   4.827   4.172   5.640 -0.4921 -0.4007  0.2229
 4904TIP3   OH236202   2.327   1.911  15.232 -0.1516 -0.3778 -0.0981
 4904TIP3    H136203   2.383   1.907  15.154 -2.6482 -0.6582 -1.9364
 4904TIP3    H236204   2.326   2.004  15.256 -2.1481  0.3101 -2.5775
 4905TIP3   OH236205   6.474   2.299   0.417 -0.5982 -0.0552  0.3209
 4905TIP3    H136206   6.499   2.355   0.490 -0.5338 -1.6458  1.5398
 4905TIP3    H236207   6.378   2.304   0.415 -0.6051 -0.0976  0.5793
 4906TIP3   OH236208   1.709   6.006   2.882  0.0455 -0.1262 -0.3403
 4906TIP3    H136209   1.640   5.944   2.906  0.6563 -0.7897 -0.2858
 4906TIP3    H236210   1.790   5.964   2.911  0.3458  1.3658  1.0390
 4907TIP3   OH236211   4.539   2.144  13.691  0.1163  0.4893 -0.0990
 4907TIP3    H136212   4.614   2.177  13.739  0.5404  2.4914 -2.0366
 4907TIP3    H236213   4.471   2.211  13.703 -0.4789 -0.0417 -0.4807
 4908TIP3   OH236214   1.874   5.615  11.262  0.2005  0.0335  0.4318
 4908TIP3    H136215   1.949   5.558  11.249  0.0694 -0.3729  1.4410
 4908TIP3    H236216   1.821   5.572  11.329 -0.4805  0.7578  0.3807
 4909TIP3   OH236217   2.371   5.169   0.198 -0.3502 -0.1681 -0.2768
 4909TIP3    H136218   2.380   5.074   0.210  0.3871 -0.1327 -0.4963
 4909TIP3    H236219   2.281   5.182   0.168 -0.7803 -0.7020  0.7656
 4910TIP3   OH236220   2.865   3.764   4.231  0.2666 -0.1252 -0.6860
 4910TIP3    H136221   2.926   3.833   4.204  1.0627 -0.6966 -0.3633
 4910TIP3    H236222   2.870   3.699   4.161  0.5128 -0.4725 -0.3496
 4911TIP3   OH236223   3.944   2.238  16.403  0.4982 -0.2465 -0.0580
 4911TIP3    H136224   4.029   2.280  16.391  0.6640 -0.6300 -0.2241
 4911TIP3    H236225   3.911   2.225  16.314  1.0739 -1.7588 -0.0595
 4912TIP3   OH236226   1.868   0.712   6.013  0.9485 -0.0901  0.3680
 4912TIP3    H136227   1.839   0.804   6.012 -2.1391 -1.0088 -0.2966
 4912TIP3    H236228   1.879   0.693   6.106 -2.4456 -0.1646  0.8345
 4913TIP3   OH236229   3.476   5.290   2.992 -0.0134 -0.4473 -0.1214
 4913TIP3    H136230   3.554   5.271   2.940 -0.3807  0.8387 -1.1783
 4913TIP3    H236231   3.509   5.302   3.081  0.6275 -2.6708 -0.0068
 4914TIP3   OH236232   4.279   4.558  13.438  0.3008 -1.0815 -0.1850
 4914TIP3    H136233   4.224   4.536  13.513 -0.1383 -1.7261 -0.6930
 4914TIP3    H236234   4.368   4.540  13.468  0.0842 -1.8637  0.0088
 4915TIP3   OH236235   0.378   5.028   3.145 -0.4682  0.3747  0.2651
 4915TIP3    H136236   0.410   5.118   3.136  0.2914  0.0004 -0.8367
 4915TIP3    H236237   0.332   5.027   3.229  1.1395  1.3042  1.1726
 4916TIP3   OH236238   1.249   0.944  13.980 -0.5074 -0.1037 -0.1145
 4916TIP3    H136239   1.220   0.965  14.069 -0.5265  0.4963 -0.2626
 4916TIP3    H236240   1.343   0.929  13.988 -0.5931 -0.5415  0.0935
 4917TIP3   OH236241   1.890   2.597   4.674  0.1589  0.0741 -0.5775
 4917TIP3    H136242   1.893   2.598   4.769  3.3031  1.4389 -0.6152
 4917TIP3    H236243   1.887   2.690   4.649  0.3769 -0.2374 -1.8094
 4918TIP3   OH236244   5.062   0.469   4.587 -0.2003 -0.2873  0.5687
 4918TIP3    H136245   5.087   0.493   4.498 -1.3559 -1.9380 -0.2245
 4918TIP3    H236246   5.144   0.442   4.629  0.2525 -0.0748 -0.1889
 4919TIP3   OH236247   5.953   6.772  11.267 -0.0957  0.4861  0.2186
 4919TIP3    H136248   5.994   6.791  11.183 -2.4904  1.6446 -0.7656
 4919TIP3    H236249   5.950   6.677  11.272 -0.0665  0.4103 -1.1131
 4920TIP3   OH236250   4.225   6.457   0.828 -0.2116  0.5201 -0.2196
 4920TIP3    H136251   4.313   6.455   0.789 -0.0511  1.3522  0.0913
 4920TIP3    H236252   4.173   6.400   0.771 -0.2142  2.4508 -2.2471
 4921TIP3   OH236253   2.090   4.182  12.583 -0.4764 -0.4787 -0.2815
 4921TIP3    H136254   2.151   4.121  12.624  1.8211  0.8262 -1.7174
 4921TIP3    H236255   2.046   4.129  12.516 -0.0957 -1.1368 -0.0150
 4922TIP3   OH236256   5.384   2.443   5.494  0.4934 -0.0920  0.1331
 4922TIP3    H136257   5.312   2.389   5.460  0.9728 -1.3796  1.1273
 4922TIP3    H236258   5.345   2.529   5.508 -0.3864 -0.2835 -1.0946
 4923TIP3   OH236259   2.584   5.367   2.247  0.3861 -0.1731 -0.0924
 4923TIP3    H136260   2.625   5.287   2.278  0.5054 -0.0691  0.0189
 4923TIP3    H236261   2.646   5.436   2.270  0.7076 -0.1471 -1.0065
 4924TIP3   OH236262   2.765   6.193   2.326 -0.0758  0.4956 -0.1393
 4924TIP3    H136263   2.722   6.108   2.331 -0.8633  0.8783 -0.3767
 4924TIP3    H236264   2.783   6.205   2.233 -2.0930  1.6318 -0.4119
 4925TIP3   OH236265   2.658   5.158   5.781  0.0405 -0.3983  0.2090
 4925TIP3    H136266   2.572   5.131   5.813  0.3811 -0.5020  1.0458
 4925TIP3    H236267   2.661   5.126   5.691 -0.6800 -0.6474  0.2700
 4926TIP3   OH236268   5.468   5.037   5.630 -0.1334 -0.2140  0.3135
 4926TIP3    H136269   5.474   5.038   5.726 -0.4695  0.2279  0.3350
 4926TIP3    H236270   5.504   4.952   5.604 -0.0552 -0.3410  0.8333
 4927TIP3   OH236271   5.112   6.116  17.118  0.1960  0.3495 -0.2568
 4927TIP3    H136272   5.055   6.079  17.050 -1.5685  0.0386  1.3300
 4927TIP3    H236273   5.157   6.040  17.155 -0.8768  0.1633  0.7109
 4928TIP3   OH236274   3.150   0.867   0.051 -0.2209 -0.3189 -0.1339
 4928TIP3    H136275   3.239   0.895   0.028 -0.7023  1.6130  0.2307
 4928TIP3    H236276   3.162   0.811   0.128  0.6711  0.1476  0.0819
 4929TIP3   OH236277   5.652   3.889  14.383  0.4706  0.4235 -0.8589
 4929TIP3    H136278   5.606   3.944  14.446 -0.4605  0.9101 -1.9393
 4929TIP3    H236279   5.726   3.943  14.353  2.4215 -0.7376  1.6375
 4930TIP3   OH236280   6.278   2.750   6.469 -0.4272  0.0576 -0.1623
 4930TIP3    H136281   6.319   2.704   6.542 -0.0567 -0.6508 -0.8265
 4930TIP3    H236282   6.342   2.746   6.398 -0.5268  1.2987 -0.3327
 4931TIP3   OH236283   0.026   0.633  13.438  0.1421 -0.3151  0.1009
 4931TIP3    H136284   0.059   0.543  13.432 -2.6668 -1.2599 -2.7420
 4931TIP3    H236285   0.031   0.666  13.348  0.5816  2.1961  1.0203
 4932TIP3   OH236286   4.676   4.281   0.469 -0.4287 -0.3341 -0.7136
 4932TIP3    H136287   4.734   4.205   0.467  0.1604  0.0976 -0.1252
 4932TIP3    H236288   4.717   4.344   0.410 -0.7175 -0.3308 -0.9115
 4933TIP3   OH236289   5.027   4.912  11.530  0.0710 -0.6278 -0.6487
 4933TIP3    H136290   5.000   4.848  11.465  1.3456 -0.5954 -1.2392
 4933TIP3    H236291   5.032   4.863  11.612 -0.0819 -1.0233 -0.8746
 4934TIP3   OH236292   0.135   2.057  11.139 -0.7948  0.0512 -0.1448
 4934TIP3    H136293   0.085   2.139  11.145  0.5223  0.8971 -0.5022
 4934TIP3    H236294   0.084   1.994  11.190 -2.2503  0.8800 -0.5584
 4935TIP3   OH236295   4.470   2.473  14.375 -0.2666 -0.2980 -1.0089
 4935TIP3    H136296   4.376   2.493  14.365 -0.1210  1.9841  1.4859
 4935TIP3    H236297   4.512   2.559  14.375  1.5886 -1.1745  0.1569
 4936TIP3   OH236298   2.030   0.610  12.837 -0.2725 -0.1149 -0.4169
 4936TIP3    H136299   2.069   0.636  12.753 -0.2868 -0.1324 -0.4288
 4936TIP3    H236300   2.060   0.520  12.851  1.1593  0.4638  0.4265
 4937TIP3   OH236301   3.551   4.457   3.473  0.5362  0.7627 -0.1612
 4937TIP3    H136302   3.567   4.489   3.384 -0.1088 -3.1981 -1.8600
 4937TIP3    H236303   3.456   4.468   3.485  0.4810  0.5162 -0.3468
 4938TIP3   OH236304   0.391   5.908   1.152 -0.9577  0.2044 -0.0925
 4938TIP3    H136305   0.411   5.887   1.243 -0.6734 -0.5803 -0.3334
 4938TIP3    H236306   0.386   6.004   1.150  0.0606  0.2788  0.5347
 4939TIP3   OH236307   4.982   2.630  12.176  0.2543 -0.2802 -0.4602
 4939TIP3    H136308   4.990   2.601  12.085 -0.2351 -0.7680 -0.3512
 4939TIP3    H236309   4.891   2.659  12.184  0.8588  1.7502 -0.6910
 4940TIP3   OH236310   4.576   3.197   4.645  0.2025 -0.3326 -0.7136
 4940TIP3    H136311   4.536   3.230   4.725  1.1368 -0.8441 -0.0156
 4940TIP3    H236312   4.511   3.138   4.608  0.3925 -1.3277  0.5190
 4941TIP3   OH236313   0.707   2.768   1.454 -0.3747 -0.5942  0.2060
 4941TIP3    H136314   0.800   2.754   1.474 -0.2733  1.5154  1.2409
 4941TIP3    H236315   0.708   2.832   1.383 -1.0797  0.0570  0.7922
 4942TIP3   OH236316   5.866   5.246  10.709 -0.0806  0.3207  0.2280
 4942TIP3    H136317   5.831   5.170  10.663 -0.0520 -0.4306  1.4246
 4942TIP3    H236318   5.950   5.216  10.745 -0.3351  0.7367  1.1828
 4943TIP3   OH236319   3.396   5.659  14.514 -0.4351 -0.5128  0.3572
 4943TIP3    H136320   3.429   5.619  14.594 -0.2475 -2.6010 -0.7217
 4943TIP3    H236321   3.322   5.713  14.542  1.1287  0.7298  2.2265
 4944TIP3   OH236322   4.238   0.611  11.102 -0.4445 -0.2191 -0.8741
 4944TIP3    H136323   4.298   0.558  11.155 -0.7039 -0.0493 -0.4087
 4944TIP3    H236324   4.182   0.547  11.058 -2.4184 -0.2763  1.6463
 4945TIP3   OH236325   6.436   5.237   5.126 -0.2542  0.0146  0.2928
 4945TIP3    H136326   6.524   5.273   5.137 -0.5335  0.7581  0.0973
 4945TIP3    H236327   6.379   5.297   5.174 -0.7109 -0.2156  0.0439
 4946TIP3   OH236328   5.192   2.055  15.846 -0.0070 -0.2199 -0.0935
 4946TIP3    H136329   5.239   1.989  15.897  1.1484  1.0747  0.5482
 4946TIP3    H236330   5.202   2.027  15.755  1.1012 -0.5253  0.1163
 4947TIP3   OH236331   4.293   6.295  11.590 -0.0965  0.0083 -0.9143
 4947TIP3    H136332   4.333   6.287  11.677  1.0234 -2.6388 -1.6065
 4947TIP3    H236333   4.204   6.324  11.607  0.7375  1.5196  0.9777
 4948TIP3   OH236334   6.373   0.136   1.554 -0.3227 -0.5550 -0.3286
 4948TIP3    H136335   6.347   0.209   1.609 -1.7590  0.0808 -1.8042
 4948TIP3    H236336   6.451   0.166   1.508  1.0661 -1.2061  1.5719
 4949TIP3   OH236337   1.869   5.117  15.051 -0.0555  0.0191  0.1701
 4949TIP3    H136338   1.852   5.035  15.098 -0.6042 -0.0542 -0.1483
 4949TIP3    H236339   1.863   5.094  14.958  0.1845  0.3354  0.0740
 4950TIP3   OH236340   5.026   0.155  15.055 -0.6778  0.5609  0.0423
 4950TIP3    H136341   5.003   0.080  15.110 -0.9924 -0.6103 -1.6336
 4950TIP3    H236342   5.019   0.122  14.965  1.2669  1.9981 -0.6885
 4951TIP3   OH236343   3.086   3.872   5.056 -0.4072 -0.4643  0.0772
 4951TIP3    H136344   3.053   3.789   5.022  0.8349 -1.5202  1.3904
 4951TIP3    H236345   3.106   3.924   4.978  3.6597 -3.3324 -0.9647
 4952TIP3   OH236346   4.542   4.773  11.417  0.0304 -0.4099 -0.1099
 4952TIP3    H136347   4.581   4.741  11.499  0.8023 -0.7619 -0.6175
 4952TIP3    H236348   4.458   4.811  11.445 -0.0886 -1.2716  0.7351
 4953TIP3   OH236349   0.482   3.187  11.530 -0.0901  0.2246 -0.9189
 4953TIP3    H136350   0.567   3.189  11.574  0.0755  1.5341 -1.2697
 4953TIP3    H236351   0.478   3.269  11.481 -1.9691  0.6439 -0.1296
 4954TIP3   OH236352   1.408   5.562  15.476  0.0552  0.1310 -0.3733
 4954TIP3    H136353   1.470   5.491  15.461 -0.5979 -0.4980 -0.1470
 4954TIP3    H236354   1.460   5.632  15.515  0.7142 -0.2083 -0.6352
 4955TIP3   OH236355   0.554   1.463   4.112 -0.1873  0.3649 -0.4063
 4955TIP3    H136356   0.549   1.462   4.207 -0.8979  1.7609 -0.4211
 4955TIP3    H236357   0.615   1.392   4.090 -2.6296 -2.2264  0.9045
 4956TIP3   OH236358   6.066   0.245  13.549  0.0160  0.4407  0.2473
 4956TIP3    H136359   6.024   0.183  13.609  0.0537  0.4979  0.3334
 4956TIP3    H236360   6.160   0.231  13.562  0.0253  0.0138 -0.2558
 4957TIP3   OH236361   3.269   4.708   0.927 -0.2286 -0.2248  0.0162
 4957TIP3    H136362   3.304   4.676   1.010 -0.6714 -1.2083 -0.1694
 4957TIP3    H236363   3.286   4.637   0.865 -1.3431 -0.1714 -0.3696
 4958TIP3   OH236364   1.081   1.391  11.032  0.0579 -0.7119  0.7776
 4958TIP3    H136365   1.013   1.451  11.002  1.2903 -0.9880 -2.8196
 4958TIP3    H236366   1.058   1.307  10.992  1.1714 -1.3939  1.5363
 4959TIP3   OH236367   1.823   0.751   5.512 -0.0334 -0.3857 -0.2353
 4959TIP3    H136368   1.812   0.709   5.597  0.2465  2.7778  1.4388
 4959TIP3    H236369   1.751   0.717   5.459  0.1831 -2.9030  1.0214
 4960TIP3   OH236370   1.808   0.639  16.936  1.0900  0.1018 -0.0481
 4960TIP3    H136371   1.754   0.643  16.857 -0.5843 -1.0681  0.9936
 4960TIP3    H236372   1.783   0.557  16.978  3.4926 -0.3067  0.6402
 4961TIP3   OH236373   3.645   1.250  12.033  0.0857 -0.5484  0.0355
 4961TIP3    H136374   3.712   1.302  11.989  0.2277 -0.2617  0.5974
 4961TIP3    H236375   3.692   1.176  12.072 -0.1422 -1.2179 -0.9350
 4962TIP3   OH236376   3.881   2.417   0.409 -0.3185  0.1822 -0.2967
 4962TIP3    H136377   3.786   2.409   0.408 -0.2043 -1.3364 -0.2486
 4962TIP3    H236378   3.911   2.341   0.459  0.9584  0.1205 -1.1273
 4963TIP3   OH236379   4.239   1.859   3.192 -0.0990 -0.2165 -0.0571
 4963TIP3    H136380   4.322   1.840   3.149  0.5338  0.7131  0.7331
 4963TIP3    H236381   4.174   1.853   3.122  0.7754  0.1662 -0.9168
 4964TIP3   OH236382   4.098   4.137   2.183 -0.7023  0.4123 -0.1747
 4964TIP3    H136383   4.109   4.042   2.195 -1.3068  0.2299 -1.0291
 4964TIP3    H236384   4.162   4.159   2.115 -0.9720  0.5146 -0.3934
 4965TIP3   OH236385   4.534   1.278  13.232  0.1681 -0.1177  0.4408
 4965TIP3    H136386   4.484   1.348  13.274  1.4076 -0.5376  2.7044
 4965TIP3    H236387   4.468   1.212  13.211 -0.4186 -0.1726  2.3507
 4966TIP3   OH236388   5.419   3.389  15.055  0.2704 -0.2702  0.3905
 4966TIP3    H136389   5.386   3.377  14.966 -0.3239  0.6416  0.4732
 4966TIP3    H236390   5.514   3.386  15.046  0.3151  2.7574 -0.7655
 4967TIP3   OH236391   3.005   4.440  12.343 -0.1619 -0.1909 -0.6057
 4967TIP3    H136392   3.081   4.388  12.371 -0.0217 -0.0776 -0.7791
 4967TIP3    H236393   3.012   4.521  12.394 -1.2058 -0.9460  0.7920
 4968TIP3   OH236394   6.346   4.530  13.782 -0.6921  0.2641  0.1879
 4968TIP3    H136395   6.290   4.490  13.848 -1.6146  0.5361 -0.4167
 4968TIP3    H236396   6.395   4.597  13.829  0.0726 -0.8392  0.9807
 4969TIP3   OH236397   2.064   3.349   4.355  0.2975 -0.1314 -0.2856
 4969TIP3    H136398   2.034   3.382   4.270  0.2765 -0.2808 -0.3370
 4969TIP3    H236399   2.010   3.271   4.371 -0.8142  0.8110  0.6279
 4970TIP3   OH236400   2.883   4.082   5.213  0.2096 -0.0869  0.0106
 4970TIP3    H136401   2.912   4.008   5.159 -0.4443 -0.8099  0.6414
 4970TIP3    H236402   2.829   4.042   5.281  2.3503  0.6251  2.1897
 4971TIP3   OH236403   3.137   0.717   5.448 -0.7140  0.4325  0.1735
 4971TIP3    H136404   3.132   0.690   5.539 -2.9738 -0.7847 -0.2784
 4971TIP3    H236405   3.164   0.638   5.401  0.5407  1.0772 -0.2236
 4972TIP3   OH236406   2.144   5.093  12.906  0.9361  0.0919 -0.3655
 4972TIP3    H136407   2.227   5.140  12.893  0.6797  0.2505 -1.4589
 4972TIP3    H236408   2.095   5.108  12.825 -0.2668  0.2079  0.3638
 4973TIP3   OH236409   0.181   1.261   1.734 -0.5407  0.6281 -0.2613
 4973TIP3    H136410   0.165   1.257   1.828 -0.9286 -0.9670 -0.3763
 4973TIP3    H236411   0.260   1.315   1.725 -1.7856  2.6577  0.7995
 4974TIP3   OH236412   0.688   2.813  15.196  0.2481 -0.1821 -0.5231
 4974TIP3    H136413   0.639   2.735  15.168 -3.1028  1.5262  0.3040
 4974TIP3    H236414   0.679   2.874  15.122 -0.7810  0.9621  0.5349
 4975TIP3   OH236415   0.068   0.920   1.044  0.3408  0.4025  0.6566
 4975TIP3    H136416   0.142   0.971   1.077  0.3811  0.1488  0.9540
 4975TIP3    H236417   0.049   0.959   0.958  2.3576 -1.0744 -0.5173
 4976TIP3   OH236418   1.076   1.950  15.452 -0.1156 -0.0019  0.5690
 4976TIP3    H136419   1.101   2.029  15.404  0.6628 -0.1623  0.7001
 4976TIP3    H236420   1.158   1.902  15.463 -0.3140 -0.0444  1.9170
 4977TIP3   OH236421   2.640   2.129  15.279  0.0066 -0.3223 -0.1849
 4977TIP3    H136422   2.690   2.121  15.360  0.4459  1.0782 -0.3032
 4977TIP3    H236423   2.657   2.047  15.232  1.2657 -0.3482  0.3020
 4978TIP3   OH236424   5.456   3.112   2.928 -0.1819  0.0728  0.3822
 4978TIP3    H136425   5.398   3.039   2.952 -0.4827  0.9747  2.5373
 4978TIP3    H236426   5.428   3.137   2.841 -1.1903 -1.3009  0.2898
 4979TIP3   OH236427   1.050   6.748   4.054 -0.1568 -0.4920  0.4524
 4979TIP3    H136428   0.984   6.718   4.116 -0.0199 -0.7121  0.4939
 4979TIP3    H236429   1.014   6.725   3.968  0.6336 -2.2055  0.5449
 4980TIP3   OH236430   4.069   0.288  13.151  0.4157 -0.5677 -0.1066
 4980TIP3    H136431   4.133   0.291  13.223  0.6664  0.1697 -0.3488
 4980TIP3    H236432   3.991   0.329  13.187  0.2135 -1.0973  0.0582
 4981TIP3   OH236433   5.089   2.645  14.909  0.0634  0.4697  0.2524
 4981TIP3    H136434   5.099   2.581  14.839  2.4282  1.4507 -0.3498
 4981TIP3    H236435   5.106   2.595  14.989  2.7178  0.4727 -0.2681
 4982TIP3   OH236436   0.231   3.864  10.381  0.2852  0.2616 -0.2589
 4982TIP3    H136437   0.247   3.781  10.337  0.5423  0.4931 -0.6071
 4982TIP3    H236438   0.148   3.851  10.427 -1.6256  0.9675 -3.2812
 4983TIP3   OH236439   5.226   2.059  11.451 -0.0556 -0.4671 -0.0860
 4983TIP3    H136440   5.260   2.014  11.529  1.1642  0.4942 -0.0440
 4983TIP3    H236441   5.304   2.079  11.399 -0.7128  0.3988 -0.7461
 4984TIP3   OH236442   6.292   3.308   4.063  0.1120  0.0215  0.5966
 4984TIP3    H136443   6.276   3.248   4.135 -0.4581  0.6235  0.9790
 4984TIP3    H236444   6.340   3.257   3.998 -2.9858 -1.7329 -0.4146
 4985TIP3   OH236445   0.829   3.378   1.838 -0.3050  0.1788  0.6047
 4985TIP3    H136446   0.859   3.293   1.869 -0.4204 -0.2554 -0.4555
 4985TIP3    H236447   0.733   3.372   1.841 -0.3324 -0.3026 -0.9877
 4986TIP3   OH236448   1.233   6.044  15.545  0.2378 -0.0223 -0.0985
 4986TIP3    H136449   1.261   5.958  15.513  2.2827  0.2202  0.9942
 4986TIP3    H236450   1.213   6.094  15.466  0.3072 -1.0604 -0.7867
 4987TIP3   OH236451   4.133   1.993  10.397 -0.3124 -0.0839 -0.0970
 4987TIP3    H136452   4.162   2.006  10.487  0.9645  3.2555 -0.9377
 4987TIP3    H236453   4.212   1.969  10.350 -0.9197 -1.4813 -0.4451
 4988TIP3   OH236454   0.980   2.072   2.422 -0.1034 -0.3928 -0.4393
 4988TIP3    H136455   1.029   2.047   2.500  0.3286  1.2585 -0.1618
 4988TIP3    H236456   0.888   2.058   2.445  0.0269 -0.0139  0.3143
 4989TIP3   OH236457   3.405   2.717  16.241  0.0675 -0.0063  0.2782
 4989TIP3    H136458   3.375   2.802  16.210  2.0021  0.6530  0.1500
 4989TIP3    H236459   3.501   2.724  16.242  0.2337 -2.0038  0.7492
 4990TIP3   OH236460   4.834   5.622  10.905  0.7645  0.3400 -0.3568
 4990TIP3    H136461   4.820   5.672  10.824 -0.4600  0.2546 -0.2098
 4990TIP3    H236462   4.797   5.678  10.974  0.0295 -0.4459 -0.1080
 4991TIP3   OH236463   0.307   4.244  13.492  0.2345 -0.2317 -0.1436
 4991TIP3    H136464   0.321   4.150  13.477 -0.1926 -0.1300 -1.1964
 4991TIP3    H236465   0.383   4.287  13.454  0.2164 -0.1191 -0.0535
 4992TIP3   OH236466   1.547   5.900  12.248 -0.1789 -0.0032  0.0903
 4992TIP3    H136467   1.595   5.980  12.270 -0.3030 -0.1395  0.8833
 4992TIP3    H236468   1.516   5.914  12.158  0.6873  0.3990 -0.1502
 4993TIP3   OH236469   1.482   0.733   4.883 -0.1517  0.4298  0.3440
 4993TIP3    H136470   1.569   0.719   4.919 -0.6682 -1.9005  0.7428
 4993TIP3    H236471   1.479   0.680   4.803 -1.3121  0.1787  0.5360
 4994TIP3   OH236472   6.813   1.833  16.167  0.3392 -0.0466  0.3199
 4994TIP3    H136473   6.863   1.752  16.164 -0.4861 -0.5155 -3.3826
 4994TIP3    H236474   6.725   1.808  16.136  0.0851  2.2325 -0.9059
 4995TIP3   OH236475   6.695   1.757   4.152 -0.4519 -0.1486  0.4531
 4995TIP3    H136476   6.717   1.841   4.112 -2.2088 -0.2244 -0.7191
 4995TIP3    H236477   6.678   1.778   4.244 -0.8094  0.7587  0.1836
 4996TIP3   OH236478   6.611   1.537   0.250  0.1048  0.1906 -0.3927
 4996TIP3    H136479   6.671   1.486   0.195 -0.6271 -0.9139 -0.1828
 4996TIP3    H236480   6.568   1.472   0.306 -0.5801  1.0811  0.1311
 4997TIP3   OH236481   5.129   1.497  11.597 -0.1171 -0.1399 -1.1488
 4997TIP3    H136482   5.222   1.474  11.607 -0.1273  0.0751 -0.5009
 4997TIP3    H236483   5.129   1.592  11.586 -0.3018 -0.0624 -0.5066
 4998TIP3   OH236484   0.441   2.585   0.855  0.0242 -0.5209 -0.5470
 4998TIP3    H136485   0.442   2.591   0.950  0.6011  1.5030 -0.6699
 4998TIP3    H236486   0.356   2.546   0.835 -0.0749 -1.0241  0.7797
 4999TIP3   OH236487   1.554   6.393  14.075 -0.5414 -0.5072  0.4533
 4999TIP3    H136488   1.469   6.433  14.096 -0.9582 -2.6905  3.1908
 4999TIP3    H236489   1.531   6.314  14.025  0.1026  0.7462 -1.8899
 5000TIP3   OH236490   2.646   0.919  11.392 -0.0869 -0.9932 -0.2499
 5000TIP3    H136491   2.684   0.835  11.415  1.2512 -0.9701 -2.3043
 5000TIP3    H236492   2.619   0.910  11.301  0.1743  0.8339 -0.5379
 5001TIP3   OH236493   2.461   5.154  13.391 -0.6705  0.1229  0.0270
 5001TIP3    H136494   2.374   5.182  13.419 -1.0767 -1.1358  0.0361
 5001TIP3    H236495   2.519   5.223  13.422 -1.4489  0.0785  1.6153
 5002TIP3   OH236496   1.368   0.252   1.543  0.2531 -0.3167 -0.7149
 5002TIP3    H136497   1.327   0.169   1.520 -1.3823  0.1704  0.3933
 5002TIP3    H236498   1.330   0.275   1.628  0.8044  1.5016 -0.9452
 5003TIP3   OH236499   1.990   4.584   2.526 -0.1585  0.0229 -0.3732
 5003TIP3    H136500   1.901   4.586   2.492 -0.9427  1.0703  1.6486
 5003TIP3    H236501   2.043   4.624   2.457 -1.3055 -0.1651 -1.3847
 5004TIP3   OH236502   4.940   5.132   0.284  0.3074  0.0116 -0.4455
 5004TIP3    H136503   4.847   5.142   0.300  0.2421  0.0674 -0.8492
 5004TIP3    H236504   4.978   5.114   0.370  0.2931  2.6630  0.1393
 5005TIP3   OH236505   3.602   6.066  15.673  0.3794  0.4013  0.4893
 5005TIP3    H136506   3.591   5.987  15.619 -2.6521 -1.2097  3.3487
 5005TIP3    H236507   3.670   6.042  15.736 -0.7425 -0.0601  1.5391
 5006TIP3   OH236508   2.700   2.461  12.899 -0.1836  0.4322  0.3913
 5006TIP3    H136509   2.620   2.410  12.887 -0.2519  1.0883 -2.4802
 5006TIP3    H236510   2.763   2.398  12.934 -1.3660 -0.6089  0.6908
 5007TIP3   OH236511   0.804   5.786  11.219  0.4355  0.7311  0.3281
 5007TIP3    H136512   0.841   5.807  11.304 -1.7838 -0.9326  1.7579
 5007TIP3    H236513   0.743   5.857  11.201 -1.8366 -0.7968  1.8739
 5008TIP3   OH236514   4.265   6.007  10.968 -0.2759 -0.0903 -0.0126
 5008TIP3    H136515   4.317   5.990  11.047 -1.9931 -0.3952  1.0730
 5008TIP3    H236516   4.314   6.076  10.923  0.5755  0.3196  1.4785
 5009TIP3   OH236517   5.111   5.564   2.380  0.6775 -0.0941 -0.0047
 5009TIP3    H136518   5.112   5.558   2.476 -0.3426 -1.3800 -0.0638
 5009TIP3    H236519   5.180   5.504   2.352  1.9962  1.4138 -0.0391
 5010TIP3   OH236520   0.074   0.531   4.180  0.0194 -0.3634  0.0110
 5010TIP3    H136521   0.071   0.591   4.255  1.4117 -2.3278  1.6640
 5010TIP3    H236522  -0.005   0.478   4.189 -0.3267  0.0551 -0.4990
 5011TIP3   OH236523   1.420   3.092   4.726 -0.7072 -0.5767 -1.0319
 5011TIP3    H136524   1.466   3.156   4.672  0.8718 -1.2437 -0.5225
 5011TIP3    H236525   1.380   3.143   4.796  0.3669 -0.1120 -0.7478
 5012TIP3   OH236526   6.445   6.050   0.258 -0.2681  0.0720 -0.1764
 5012TIP3    H136527   6.373   5.986   0.261 -1.7595  1.7415  0.4342
 5012TIP3    H236528   6.440   6.088   0.171 -0.4425  0.5158  0.0220
 5013TIP3   OH236529   4.145   3.325  16.829 -0.2128 -0.0134  0.3209
 5013TIP3    H136530   4.068   3.269  16.843  0.2788 -0.9550 -0.7254
 5013TIP3    H236531   4.211   3.266  16.794  0.7539  0.9589  0.5049
 5014TIP3   OH236532   0.331   0.689   2.184  0.4791  0.4452 -0.2990
 5014TIP3    H136533   0.406   0.642   2.222 -1.4558 -1.0244  1.8089
 5014TIP3    H236534   0.318   0.764   2.241 -0.9341 -0.4397  0.5521
 5015TIP3   OH236535   6.352   2.153   3.231 -0.0495 -0.1634  0.9811
 5015TIP3    H136536   6.298   2.185   3.303 -0.3823  0.1461  0.5918
 5015TIP3    H236537   6.373   2.231   3.180  0.3736 -0.3496  0.8650
 5016TIP3   OH236538   2.397   0.936  14.214  0.0157 -0.2363 -0.2284
 5016TIP3    H136539   2.477   0.946  14.265 -0.8711  0.2913  1.0806
 5016TIP3    H236540   2.411   0.856  14.163  0.6947 -1.0730  1.2480
 5017TIP3   OH236541   6.484   2.869  17.100 -0.1372  0.3308 -0.4163
 5017TIP3    H136542   6.501   2.828  17.185 -0.9560 -0.8947 -0.8241
 5017TIP3    H236543   6.412   2.930  17.117  0.7861  1.2753  0.1061
 5018TIP3   OH236544   0.074   4.380   3.323  0.0772 -0.1218 -0.1215
 5018TIP3    H136545   0.007   4.377   3.254 -0.1712  0.3332  0.0957
 5018TIP3    H236546   0.156   4.361   3.278  0.2457  2.3467 -0.9655
 5019TIP3   OH236547   5.897   1.759   6.115 -0.0746 -0.0670  0.2281
 5019TIP3    H136548   5.868   1.834   6.063 -1.4739 -0.4110  0.4705
 5019TIP3    H236549   5.926   1.695   6.050  1.4916  0.8140  0.0398
 5020TIP3   OH236550   3.263   3.720   1.065  0.1478  0.7331  0.2129
 5020TIP3    H136551   3.347   3.728   1.020  0.1965 -0.1780  0.1145
 5020TIP3    H236552   3.207   3.673   1.003 -0.2588  0.8472  0.4907
 5021TIP3   OH236553   5.934   5.947  15.954 -0.0005 -0.3650 -0.0500
 5021TIP3    H136554   5.914   5.912  15.867  2.1773 -0.8795 -0.3980
 5021TIP3    H236555   5.993   5.881  15.993  1.9450  1.5612  0.3627
 5022TIP3   OH236556   1.731   0.400  13.199  0.4327 -0.1702 -0.1495
 5022TIP3    H136557   1.742   0.467  13.131  1.6130 -0.2428 -0.0358
 5022TIP3    H236558   1.691   0.447  13.272 -0.6610 -0.0479 -0.8137
 5023TIP3   OH236559   3.884   4.199   1.585 -0.1056 -0.2194 -0.2798
 5023TIP3    H136560   3.886   4.291   1.611  2.6634 -0.2968 -0.0185
 5023TIP3    H236561   3.862   4.201   1.492 -0.6926  0.6749 -0.1240
 5024TIP3   OH236562   0.524   2.823   3.642  0.6026  0.0498 -0.1939
 5024TIP3    H136563   0.499   2.912   3.667  0.7325 -0.1913  0.8478
 5024TIP3    H236564   0.452   2.768   3.674 -0.2702 -0.0567 -2.2980
 5025TIP3   OH236565   6.395   5.453  16.397 -0.2351 -0.1418  0.5416
 5025TIP3    H136566   6.416   5.428  16.487 -1.0341 -0.2233  0.7103
 5025TIP3    H236567   6.438   5.387  16.343  0.4785  0.0659  0.8551
 5026TIP3   OH236568   6.657   5.603  10.769 -0.4288 -0.1280 -0.1314
 5026TIP3    H136569   6.742   5.588  10.810 -0.6641  0.7299  0.6943
 5026TIP3    H236570   6.677   5.617  10.677  0.1060 -2.1268 -0.3545
 5027TIP3   OH236571   6.684   0.875  12.948  0.1958  0.3036  0.0140
 5027TIP3    H136572   6.590   0.891  12.958 -0.2465 -1.1830 -1.6478
 5027TIP3    H236573   6.701   0.886  12.855  1.4598 -0.6313  0.1235
 5028TIP3   OH236574   4.089   1.301  15.389  0.1771 -0.5550  0.6160
 5028TIP3    H136575   4.159   1.239  15.367  0.7571 -0.1308  1.2296
 5028TIP3    H236576   4.035   1.255  15.453 -0.7501 -1.2959 -0.6853
 5029TIP3   OH236577   1.362   0.256   5.314 -0.2108  0.3454  0.1565
 5029TIP3    H136578   1.353   0.349   5.334 -2.0159  0.1382  0.3517
 5029TIP3    H236579   1.277   0.230   5.278 -0.0628 -1.4556  1.0430
 5030TIP3   OH236580   0.513   3.268  16.950 -0.1820  0.2174 -0.3960
 5030TIP3    H136581   0.555   3.201  16.896 -0.8179 -0.9851  0.5760
 5030TIP3    H236582   0.553   3.258  17.037  0.1573  1.5100 -0.3979
 5031TIP3   OH236583   6.003   1.649   6.709  0.0607 -0.3233  0.5847
 5031TIP3    H136584   6.057   1.724   6.734 -1.0571  0.7101 -0.0246
 5031TIP3    H236585   5.972   1.612   6.792  1.6568 -0.9050  0.9326
 5032TIP3   OH236586   4.350   6.519  11.045  0.3014 -0.0274  0.4919
 5032TIP3    H136587   4.341   6.461  11.120  1.8695  1.0632  1.5436
 5032TIP3    H236588   4.419   6.479  10.992 -0.7982 -0.7923 -0.3841
 5033TIP3   OH236589   6.142   6.773  12.889  0.7771 -0.0075  0.0370
 5033TIP3    H136590   6.133   6.692  12.838  1.1786 -0.3384  0.4797
 5033TIP3    H236591   6.186   6.745  12.970 -0.1341  0.4528  0.6999
 5034TIP3   OH236592   2.401   2.379   6.338 -0.3316  0.1019  0.1620
 5034TIP3    H136593   2.364   2.467   6.326 -1.8583 -0.3183  1.5746
 5034TIP3    H236594   2.332   2.330   6.384  0.1642 -2.0861 -1.3244
 5035TIP3   OH236595   0.163   2.776  10.998  0.8579  0.2467 -0.5722
 5035TIP3    H136596   0.084   2.803  11.044  0.6460 -0.3663 -0.5699
 5035TIP3    H236597   0.171   2.838  10.925 -0.2127 -0.3258 -1.1913
 5036TIP3   OH236598   1.053   5.619   4.044 -0.1845  0.0897 -0.1104
 5036TIP3    H136599   1.009   5.534   4.049 -1.7207  0.8135 -1.0305
 5036TIP3    H236600   1.115   5.618   4.117 -2.1893 -0.7007  1.6326
 5037TIP3   OH236601   4.246   1.481  13.150 -0.1201  0.4534 -0.4817
 5037TIP3    H136602   4.191   1.528  13.212  1.9175  1.1044  0.8704
 5037TIP3    H236603   4.227   1.521  13.065 -0.2732  1.9869  0.2692
 5038TIP3   OH236604   2.731   5.085   2.870 -0.1824 -0.0869  0.1623
 5038TIP3    H136605   2.740   5.106   2.777  0.8026  2.3063  0.7652
 5038TIP3    H236606   2.797   5.138   2.914  0.2880 -2.1973  2.1301
 5039TIP3   OH236607   3.240   0.285  12.828 -0.7318 -0.3250 -0.2100
 5039TIP3    H136608   3.176   0.215  12.836  1.3690 -2.0963  1.8477
 5039TIP3    H236609   3.226   0.340  12.905 -1.0650  0.3641 -0.7661
 5040TIP3   OH236610   5.088   2.090  13.245 -0.4039  0.2113  0.1722
 5040TIP3    H136611   5.029   2.064  13.174 -1.1896  1.3942  0.3858
 5040TIP3    H236612   5.030   2.116  13.316  0.3711  1.9473  0.1779
 5041TIP3   OH236613   2.572   6.003   4.448 -0.1257 -0.3301 -0.3926
 5041TIP3    H136614   2.549   5.976   4.537 -1.5452 -0.3973 -0.7749
 5041TIP3    H236615   2.591   6.097   4.456 -1.9564  0.0414 -0.3351
 5042TIP3   OH236616   0.520   1.420   2.939  0.4786 -0.0345 -0.9678
 5042TIP3    H136617   0.528   1.335   2.982 -0.6501  1.6649  2.7396
 5042TIP3    H236618   0.611   1.450   2.929  0.7465 -0.2965  0.5892
 5043TIP3   OH236619   3.112   1.484   2.549  0.0184  0.0906 -0.3626
 5043TIP3    H136620   3.089   1.437   2.469 -0.6422  0.2777 -0.2857
 5043TIP3    H236621   3.200   1.454   2.570  1.2986  2.0142 -2.6348
 5044TIP3   OH236622   0.655   0.454  12.594  0.0573  0.1721 -0.3047
 5044TIP3    H136623   0.644   0.531  12.650 -2.4085 -0.6374  0.3779
 5044TIP3    H236624   0.745   0.460  12.563  0.5652  2.1897  1.4380
 5045TIP3   OH236625   5.685   3.368  11.715 -0.4623  0.2261  0.0915
 5045TIP3    H136626   5.675   3.421  11.636  1.6479  2.5008  1.2763
 5045TIP3    H236627   5.629   3.411  11.780 -0.2561 -0.1714  0.5318
 5046TIP3   OH236628   0.062   1.486  17.048 -0.1092  0.8939 -0.1312
 5046TIP3    H136629   0.073   1.525  17.135 -1.5397  0.7024  0.1589
 5046TIP3    H236630   0.147   1.447  17.028  1.2078  3.6171 -0.1832
 5047TIP3   OH236631   0.103   5.814  15.204  0.1069  0.0287  0.0121
 5047TIP3    H136632   0.030   5.830  15.144  1.2383 -0.7252 -1.5842
 5047TIP3    H236633   0.061   5.806  15.290 -1.6804 -0.3756 -0.8672
 5048TIP3   OH236634   3.514   2.415   5.002  0.3953 -0.1638 -0.3819
 5048TIP3    H136635   3.582   2.473   5.035 -1.2482  1.4437  0.2344
 5048TIP3    H236636   3.477   2.374   5.080 -0.8090  0.6124 -0.5473
 5049TIP3   OH236637   1.857   4.160   3.391  0.0607 -0.3500  0.5326
 5049TIP3    H136638   1.858   4.067   3.369 -0.7827 -0.7489  2.0655
 5049TIP3    H236639   1.791   4.167   3.460  0.2096  1.3649  0.5149
 5050TIP3   OH236640   3.735   6.589   3.992  0.4056 -0.4534 -0.1035
 5050TIP3    H136641   3.684   6.580   3.912  0.9870  0.5470 -0.6003
 5050TIP3    H236642   3.782   6.672   3.981  1.1307 -0.7210  0.9028
 5051TIP3   OH236643   3.753   6.548   3.718  0.3617  0.7500 -0.2058
 5051TIP3    H136644   3.797   6.631   3.733 -0.0993  0.8689  0.4738
 5051TIP3    H236645   3.666   6.571   3.686 -0.2941  0.5713  1.3734
 5052TIP3   OH236646   1.196   2.792   4.839  0.0934 -0.3649 -0.2339
 5052TIP3    H136647   1.134   2.742   4.787  0.3821 -0.5932 -0.3594
 5052TIP3    H236648   1.239   2.727   4.895 -0.1439 -0.1348  0.2156
 5053TIP3   OH236649   1.914   3.965   1.503  0.0432 -0.0753  0.1577
 5053TIP3    H136650   1.967   3.886   1.514 -0.4481 -0.0043  3.6444
 5053TIP3    H236651   1.833   3.933   1.463  1.0177 -0.8376 -1.2630
 5054TIP3   OH236652   5.139   1.265  17.211  0.9274 -0.0605  0.4161
 5054TIP3    H136653   5.124   1.178  17.173 -1.1191  0.1307  0.7483
 5054TIP3    H236654   5.208   1.250  17.277 -0.5586 -1.7754  1.6362
 5055TIP3   OH236655   3.574   0.353  13.082 -0.2622  0.6625  0.4633
 5055TIP3    H136656   3.514   0.307  13.141  1.5448  0.9707  2.6104
 5055TIP3    H236657   3.658   0.349  13.127  1.7719 -1.3458 -3.3292
 5056TIP3   OH236658   5.767   2.013   5.977  0.1604  0.1589 -0.5445
 5056TIP3    H136659   5.811   2.044   6.056  1.7901  0.3569 -1.4995
 5056TIP3    H236660   5.687   2.065   5.972  1.2158  1.8460 -0.3069
 5057TIP3   OH236661   3.336   2.547   2.074 -0.5525  0.2241  0.2579
 5057TIP3    H136662   3.400   2.478   2.091 -1.4209 -1.1796 -1.9293
 5057TIP3    H236663   3.373   2.596   2.000  0.6727  2.9467  2.5866
 5058TIP3   OH236664   1.968   0.231  14.713 -0.2391 -0.2491 -0.3438
 5058TIP3    H136665   1.977   0.320  14.748  1.1440  0.0990 -1.5658
 5058TIP3    H236666   1.874   0.215  14.713 -0.4669  1.0056  0.4068
 5059TIP3   OH236667   2.316   5.125   5.152 -0.2225  0.2823  0.0482
 5059TIP3    H136668   2.300   5.066   5.226 -0.8204 -1.2172 -1.2711
 5059TIP3    H236669   2.285   5.077   5.075  1.4741  1.3547 -1.3410
 5060TIP3   OH236670   5.202   4.822   0.722  0.6640  0.1995  0.5899
 5060TIP3    H136671   5.130   4.769   0.756  1.1081 -0.3071  0.7675
 5060TIP3    H236672   5.189   4.908   0.760  0.4378 -0.0276  1.0357
 5061TIP3   OH236673   4.508   6.261   4.742  0.0113  0.4072  0.6031
 5061TIP3    H136674   4.467   6.224   4.820 -0.1095 -1.2965 -0.2336
 5061TIP3    H236675   4.510   6.355   4.758  1.0034  0.0018  3.1246
 5062TIP3   OH236676   2.670   6.772  13.875 -0.1206 -0.3387 -0.7958
 5062TIP3    H136677   2.657   6.689  13.830 -0.2079 -1.0137  0.4515
 5062TIP3    H236678   2.626   6.762  13.959  2.9972 -0.4228  0.9201
 5063TIP3   OH236679   2.279   4.898  17.212 -0.2372 -0.4986  0.0603
 5063TIP3    H136680   2.340   4.953  17.162 -0.2606  1.0236  1.6321
 5063TIP3    H236681   2.198   4.948  17.214 -0.6474 -1.1698  0.4705
 5064TIP3   OH236682   0.192   3.491   4.006 -0.0630 -0.1125  0.1789
 5064TIP3    H136683   0.108   3.495   3.961  0.3342  0.0779 -0.5577
 5064TIP3    H236684   0.205   3.579   4.042 -0.6032 -0.3989  1.0776
 5065TIP3   OH236685   4.073   4.839   0.275 -0.8282  0.1817 -0.2171
 5065TIP3    H136686   4.113   4.815   0.359 -2.0756  1.4106  0.7503
 5065TIP3    H236687   4.084   4.762   0.220  1.5128 -0.0431  0.5183
 5066TIP3   OH236688   4.966   0.557   3.998 -0.3099 -0.3398 -0.1932
 5066TIP3    H136689   4.917   0.477   4.017  0.0628 -0.2804  1.0315
 5066TIP3    H236690   4.914   0.601   3.931 -1.6246 -0.5771  0.6421
 5067TIP3   OH236691   0.211   2.594   5.251  0.2866 -0.0595  0.0621
 5067TIP3    H136692   0.306   2.596   5.244  0.2219  1.0419 -0.7068
 5067TIP3    H236693   0.193   2.538   5.326  1.5471 -0.1609  0.2914
 5068TIP3   OH236694   6.606   4.651   2.537 -0.8775 -0.0616  0.4629
 5068TIP3    H136695   6.620   4.640   2.631  1.9953  0.5189  0.1705
 5068TIP3    H236696   6.672   4.593   2.497 -0.2960  1.6743 -1.1598
 5069TIP3   OH236697   3.677   0.586   3.045  0.2920  0.3325  0.3752
 5069TIP3    H136698   3.749   0.551   2.993  1.6440  1.0966  1.6859
 5069TIP3    H236699   3.657   0.517   3.108 -0.1981  0.0806 -0.0533
 5070TIP3   OH236700   2.476   5.461  16.615 -0.4211  0.1794 -0.5423
 5070TIP3    H136701   2.385   5.436  16.597 -1.2743  1.1120  2.0970
 5070TIP3    H236702   2.495   5.530  16.552 -0.8605 -1.3566 -2.4096
 5071TIP3   OH236703   4.927   4.669  15.986  0.0008 -0.1308 -0.5472
 5071TIP3    H136704   4.931   4.676  15.891  0.1420 -0.8212 -0.5898
 5071TIP3    H236705   5.008   4.624  16.010  0.3029  0.6685 -0.0386
 5072TIP3   OH236706   2.293   1.294   0.236 -0.0085 -0.4460  0.9226
 5072TIP3    H136707   2.232   1.367   0.229 -0.9371 -1.2206  0.8705
 5072TIP3    H236708   2.380   1.334   0.226 -0.4703  0.7406  1.6295
 5073TIP3   OH236709   3.722   2.306   3.104 -0.1373 -0.2826 -0.1557
 5073TIP3    H136710   3.799   2.338   3.057  0.6426 -0.6186  0.8801
 5073TIP3    H236711   3.702   2.222   3.063 -0.2425  0.0260 -0.7412
 5074TIP3   OH236712   5.491   2.461  16.728  0.6035 -0.1385  0.6032
 5074TIP3    H136713   5.555   2.531  16.732  1.7007 -1.1574  1.3182
 5074TIP3    H236714   5.425   2.492  16.666  1.9028  0.8233 -0.3250
 5075TIP3   OH236715   5.391   1.767   3.406 -0.1057 -0.0212  0.2385
 5075TIP3    H136716   5.461   1.777   3.342  0.7973 -1.6272  0.9511
 5075TIP3    H236717   5.315   1.739   3.354  0.1832  0.2608 -0.3380
 5076TIP3   OH236718   6.818   3.583   1.614 -0.0794 -0.2591 -0.4472
 5076TIP3    H136719   6.725   3.604   1.614 -0.0808 -0.1982 -1.4746
 5076TIP3    H236720   6.823   3.497   1.656 -0.5961 -0.2337 -0.3305
 5077TIP3   OH236721   6.390   0.170  12.353  0.2773  0.2924  0.2879
 5077TIP3    H136722   6.304   0.210  12.357  0.5360  0.9779 -0.8653
 5077TIP3    H236723   6.382   0.100  12.289  0.5798  0.3901  0.1377
 5078TIP3   OH236724   6.039   5.395   2.013 -0.0259 -0.2059 -0.2475
 5078TIP3    H136725   6.048   5.304   1.985 -0.4347 -0.2473 -0.2424
 5078TIP3    H236726   6.064   5.447   1.936 -0.0216 -0.3216 -0.3237
 5079TIP3   OH236727   0.236   5.917   5.336 -0.1070 -0.3251 -0.7856
 5079TIP3    H136728   0.236   5.823   5.354  0.0803 -0.3283 -0.8060
 5079TIP3    H236729   0.310   5.951   5.386  0.3375 -0.3139 -1.4539
 5080TIP3   OH236730   3.448   5.269  13.526 -1.1189 -0.8321  0.1639
 5080TIP3    H136731   3.467   5.352  13.569  0.1390 -0.1103 -1.7461
 5080TIP3    H236732   3.400   5.293  13.447  1.8111 -1.6467 -1.9299
 5081TIP3   OH236733   4.892   5.672   4.859 -0.0928  1.1761  0.1401
 5081TIP3    H136734   4.820   5.733   4.875 -0.0990  1.1880  0.0656
 5081TIP3    H236735   4.942   5.673   4.941  0.5889  2.2161 -0.2713
 5082TIP3   OH236736   3.780   0.813  15.260 -0.1037  0.4608 -0.2053
 5082TIP3    H136737   3.722   0.798  15.185  1.0479 -0.4306 -0.9568
 5082TIP3    H236738   3.723   0.808  15.337 -0.7443 -2.2083 -0.8072
 5083TIP3   OH236739   5.679   4.925  14.120 -0.1409 -0.6328  0.7278
 5083TIP3    H136740   5.599   4.906  14.168 -0.9276 -0.4863 -0.5087
 5083TIP3    H236741   5.651   4.978  14.045  1.0861 -0.6510  0.2396
 5084TIP3   OH236742   5.449   4.653   1.685  0.8743  0.0857  0.5206
 5084TIP3    H136743   5.461   4.722   1.750 -1.1207  0.7189  0.2450
 5084TIP3    H236744   5.490   4.689   1.605  0.2496  0.7688  0.5006
 5085TIP3   OH236745   1.129   0.443  11.536 -0.2052 -0.3252  0.1354
 5085TIP3    H136746   1.111   0.363  11.585  1.3709 -1.0376 -0.4145
 5085TIP3    H236747   1.148   0.509  11.604 -1.3343 -0.4543  0.5813
 5086TIP3   OH236748   0.276   4.666   4.612 -0.1810 -0.4405 -0.6058
 5086TIP3    H136749   0.295   4.627   4.697  0.2163 -0.1449 -0.5591
 5086TIP3    H236750   0.323   4.749   4.612 -2.4607  0.9024  0.0099
 5087TIP3   OH236751   0.758   0.245  11.658  0.1873 -0.8634  0.2667
 5087TIP3    H136752   0.840   0.195  11.652  0.0686 -1.1097  0.6748
 5087TIP3    H236753   0.786   0.337  11.655  0.3434 -0.9472 -1.3144
 5088TIP3   OH236754   0.624   2.879  14.554 -0.2165 -0.6684 -0.3216
 5088TIP3    H136755   0.572   2.959  14.552  1.4840  0.4741 -0.6995
 5088TIP3    H236756   0.641   2.864  14.647  1.4426  0.7979 -0.3438
 5089TIP3   OH236757   1.574   5.724  15.241 -0.2140 -0.2913  0.2655
 5089TIP3    H136758   1.639   5.790  15.219  0.0447 -0.2848  1.0220
 5089TIP3    H236759   1.499   5.774  15.273 -0.7150 -0.2851 -0.8944
 5090TIP3   OH236760   3.826   0.632   0.197  0.0943  0.4083 -0.1869
 5090TIP3    H136761   3.746   0.581   0.194 -0.3876  1.1591 -0.3455
 5090TIP3    H236762   3.859   0.632   0.107  1.0103 -1.0390  0.1353
 5091TIP3   OH236763   6.142   3.930   2.237 -0.4086 -0.4547  0.3657
 5091TIP3    H136764   6.150   4.023   2.215 -0.5650  0.1790  2.7858
 5091TIP3    H236765   6.232   3.896   2.230 -0.6403 -0.5776 -2.3034
 5092TIP3   OH236766   2.133   1.206  12.104 -0.3400 -0.0881  0.2610
 5092TIP3    H136767   2.223   1.185  12.130 -0.6806 -0.7610  0.9307
 5092TIP3    H236768   2.109   1.138  12.041  0.1925  1.0623 -1.2165
 5093TIP3   OH236769   3.379   6.265  12.804  0.0495  0.0444 -0.3398
 5093TIP3    H136770   3.465   6.267  12.846  0.2631  1.1272 -0.8157
 5093TIP3    H236771   3.374   6.348  12.756  0.0787 -1.4151 -2.9677
 5094TIP3   OH236772   1.282   6.708  14.939  0.3032  0.2493 -0.3544
 5094TIP3    H136773   1.317   6.620  14.922  0.8125  0.9813 -3.4477
 5094TIP3    H236774   1.356   6.766  14.925 -0.1857  1.2254  1.0554
 5095TIP3   OH236775   4.771   4.737   0.386  0.1096 -0.8931 -0.1070
 5095TIP3    H136776   4.754   4.804   0.452  2.0830 -1.4789  1.0596
 5095TIP3    H236777   4.704   4.671   0.400 -1.7033  0.7071 -1.1088
 5096TIP3   OH236778   1.740   2.757  11.811 -0.3900 -0.5649  0.0977
 5096TIP3    H136779   1.789   2.835  11.783 -1.4020  0.3716  0.8923
 5096TIP3    H236780   1.718   2.712  11.729 -1.1512  0.8181 -0.4833
 5097TIP3   OH236781   4.563   2.752   1.200 -0.2366 -0.7122 -0.4427
 5097TIP3    H136782   4.530   2.839   1.179  0.1756 -0.6099 -0.6757
 5097TIP3    H236783   4.579   2.755   1.294  1.0205 -0.1001 -0.6550
 5098TIP3   OH236784   6.647   4.462  10.619  0.5101 -0.2078 -0.0577
 5098TIP3    H136785   6.734   4.424  10.629  0.0363 -1.9090 -2.1768
 5098TIP3    H236786   6.654   4.518  10.542 -0.4359 -0.8740 -0.6409
 5099TIP3   OH236787   1.401   5.775   0.214  0.4999  0.8088  0.2409
 5099TIP3    H136788   1.312   5.753   0.188  0.8512  0.5589 -0.7640
 5099TIP3    H236789   1.452   5.773   0.133  1.0399  2.8921  0.4786
 5100TIP3   OH236790   4.870   5.464  14.093 -0.0373 -0.0430 -0.2083
 5100TIP3    H136791   4.829   5.381  14.066 -1.4480  0.1589  1.1919
 5100TIP3    H236792   4.840   5.476  14.183  2.4324  0.6020  0.5422
 5101TIP3   OH236793   5.439   1.482   2.794  0.7665 -0.4610 -0.4210
 5101TIP3    H136794   5.437   1.573   2.826 -0.2512 -0.9002  0.8271
 5101TIP3    H236795   5.507   1.481   2.727  1.2751  1.0660  0.0599
 5102TIP3   OH236796   5.302   4.437   4.256 -0.0562 -0.2804  0.2686
 5102TIP3    H136797   5.353   4.427   4.176 -0.3730 -1.0600  0.1607
 5102TIP3    H236798   5.350   4.503   4.307  0.8251 -0.7020 -0.0081
 5103TIP3   OH236799   2.911   4.799   1.252  0.0354 -0.2835  0.2877
 5103TIP3    H136800   2.964   4.720   1.261  2.6126  1.1463 -1.8400
 5103TIP3    H236801   2.966   4.869   1.287  0.3246  1.4767 -3.4062
 5104TIP3   OH236802   4.731   2.584   2.048 -0.1223 -0.8674 -0.1161
 5104TIP3    H136803   4.758   2.676   2.050 -0.4672 -0.7411 -1.2148
 5104TIP3    H236804   4.642   2.585   2.012 -0.0123 -1.6588 -0.4262
 5105TIP3   OH236805   0.760   6.523  13.249  0.2998  0.3494 -0.1698
 5105TIP3    H136806   0.677   6.501  13.289  0.2107  1.9185  0.5488
 5105TIP3    H236807   0.737   6.579  13.175  0.6201 -0.4704 -0.8930
 5106TIP3   OH236808   1.072   3.910  11.292 -0.1008  0.8886  0.6863
 5106TIP3    H136809   1.024   3.990  11.312 -1.3879  0.0106  1.1221
 5106TIP3    H236810   1.158   3.941  11.262 -0.8833  2.4538  0.0059
 5107TIP3   OH236811   3.739   2.726  15.624  0.1056  0.5731 -0.2145
 5107TIP3    H136812   3.722   2.635  15.598 -0.7765  0.8291 -0.5641
 5107TIP3    H236813   3.802   2.719  15.695 -0.5610 -0.3521  0.2994
 5108TIP3   OH236814   2.197   6.160  15.526 -0.2689  0.0056 -0.6340
 5108TIP3    H136815   2.129   6.224  15.548 -2.0403 -2.4150  1.3594
 5108TIP3    H236816   2.178   6.135  15.436  0.9724  2.8307 -1.7457
 5109TIP3   OH236817   1.740   4.718  14.130 -0.1397 -0.1306  0.0806
 5109TIP3    H136818   1.685   4.784  14.086  2.3167  0.8285 -1.6546
 5109TIP3    H236819   1.750   4.750  14.219 -1.2860  0.3681  0.0415
 5110TIP3   OH236820   5.509   5.143   2.310 -0.0303 -0.5122 -0.5741
 5110TIP3    H136821   5.440   5.167   2.248  1.4484  0.0173 -2.0433
 5110TIP3    H236822   5.544   5.227   2.340 -0.6261 -0.7724  0.8544
 5111TIP3   OH236823   0.898   5.411   5.714 -0.5335 -0.0378 -0.1307
 5111TIP3    H136824   0.943   5.493   5.692 -0.7074 -0.2900 -1.4822
 5111TIP3    H236825   0.966   5.344   5.705 -1.1840 -0.4436 -2.3706
 5112TIP3   OH236826   0.302   1.366   5.081 -0.3620  0.1323  0.5304
 5112TIP3    H136827   0.349   1.283   5.089  0.0791  0.0357 -2.4294
 5112TIP3    H236828   0.351   1.414   5.015  0.0279  3.2463  3.0025
 5113TIP3   OH236829   4.494   1.989   5.910  0.3355  0.2584  0.0474
 5113TIP3    H136830   4.454   1.934   5.978 -1.2599 -0.8052 -1.7234
 5113TIP3    H236831   4.483   1.940   5.829 -0.8147  2.9985 -1.5412
 5114TIP3   OH236832   4.389   0.898   3.065  0.1297 -0.1065  0.1144
 5114TIP3    H136833   4.332   0.947   3.006 -1.7882 -0.4217  1.6816
 5114TIP3    H236834   4.443   0.845   3.007  0.0379  1.4670 -1.4687
 5115TIP3   OH236835   5.622   4.230  17.144  0.0649  0.9428 -0.1439
 5115TIP3    H136836   5.625   4.309  17.198 -0.8649  0.8593  0.0483
 5115TIP3    H236837   5.532   4.198  17.154  1.0353 -1.3451  1.4683
 5116TIP3   OH236838   6.227   5.991  14.604 -0.0998  0.4992 -0.4728
 5116TIP3    H136839   6.201   6.080  14.628  0.6186  0.8040 -0.8153
 5116TIP3    H236840   6.296   5.968  14.667  0.2702  0.4864 -0.8817
 5117TIP3   OH236841   2.530   0.702  15.871 -0.4842 -0.7188 -0.5077
 5117TIP3    H136842   2.449   0.738  15.837 -1.0712 -0.2957  1.2682
 5117TIP3    H236843   2.594   0.773  15.859 -1.1389  0.1613  1.0006
 5118TIP3   OH236844   1.449   1.125  11.232 -0.3493 -0.2301  0.0191
 5118TIP3    H136845   1.519   1.140  11.296 -0.3412 -1.1622  0.2345
 5118TIP3    H236846   1.400   1.207  11.231  0.6634  0.3932 -0.0338
 5119TIP3   OH236847   5.102   0.286   3.134 -0.7074 -0.0763  0.4486
 5119TIP3    H136848   5.029   0.272   3.073  0.2784  0.6959 -0.9342
 5119TIP3    H236849   5.168   0.333   3.082 -0.6278  2.3458  2.6588
 5120TIP3   OH236850   3.066   0.274   6.700  0.1252  0.0792  0.0211
 5120TIP3    H136851   3.147   0.291   6.652 -0.4189  1.1674 -0.5320
 5120TIP3    H236852   3.050   0.180   6.689  2.4501 -0.6138  1.9351
 5121TIP3   OH236853   2.567   0.340   3.577  0.2485 -0.4208  0.2547
 5121TIP3    H136854   2.594   0.429   3.557 -1.1438 -0.1134 -0.3249
 5121TIP3    H236855   2.565   0.337   3.673  0.3810  0.1418  0.2796
 5122TIP3   OH236856   4.267   5.896   3.571 -0.5964  0.1773  0.0500
 5122TIP3    H136857   4.311   5.832   3.627 -1.2210 -0.0958  0.2400
 5122TIP3    H236858   4.206   5.941   3.630 -0.3298  0.7845 -0.1363
 5123TIP3   OH236859   1.268   4.862   5.769 -0.2413 -0.0437 -0.0486
 5123TIP3    H136860   1.204   4.918   5.726 -1.4068 -1.2145  0.1353
 5123TIP3    H236861   1.350   4.910   5.763 -0.9398  1.0276 -1.1674
 5124TIP3   OH236862   1.377   2.505  14.067  0.1249  0.3649  0.5536
 5124TIP3    H136863   1.301   2.492  14.010  0.4577 -0.9322  0.3922
 5124TIP3    H236864   1.447   2.529  14.006 -0.8110  4.5908  0.9720
 5125TIP3   OH236865   2.102   3.323   5.367 -0.0716  0.1484 -0.5915
 5125TIP3    H136866   2.039   3.394   5.352 -0.4958 -0.0177  0.3313
 5125TIP3    H236867   2.099   3.309   5.462  1.6396  0.3782 -0.4986
 5126TIP3   OH236868   5.325   2.489  15.843 -0.3363  0.0162 -0.2897
 5126TIP3    H136869   5.391   2.420  15.845 -0.9276 -0.5585 -0.4905
 5126TIP3    H236870   5.360   2.558  15.899  0.1420 -0.5462  0.1041
 5127TIP3   OH236871   6.053   1.530  10.664  0.7186  0.1485  0.3414
 5127TIP3    H136872   6.075   1.459  10.724 -1.0153 -1.1294 -0.5071
 5127TIP3    H236873   6.065   1.493  10.577 -1.2686  0.5310 -0.1124
 5128TIP3   OH236874   0.673   0.884   1.445  0.0727  0.1221 -0.1428
 5128TIP3    H136875   0.622   0.890   1.525 -0.7271 -1.5595 -0.5085
 5128TIP3    H236876   0.674   0.973   1.409 -1.4431  0.4211  0.5621
 5129TIP3   OH236877   2.806   6.812  12.900 -0.0102 -0.0157  0.1056
 5129TIP3    H136878   2.885   6.785  12.946 -0.1736 -0.1213  0.3222
 5129TIP3    H236879   2.756   6.732  12.886  1.3702 -0.4470 -2.8144
 5130TIP3   OH236880   3.564   5.350   5.144 -0.2954  0.0306  0.2199
 5130TIP3    H136881   3.527   5.435   5.120  0.3853 -0.0875 -1.3540
 5130TIP3    H236882   3.576   5.305   5.060  2.2196 -0.4238  0.7787
 5131TIP3   OH236883   4.919   1.656   3.734  0.3097  0.2235  0.3648
 5131TIP3    H136884   4.826   1.672   3.717  0.5329  1.6256  0.4088
 5131TIP3    H236885   4.965   1.728   3.690  1.2862  0.2648  1.4137
 5132TIP3   OH236886   6.553   1.178   2.002  0.5721 -0.3034  0.2260
 5132TIP3    H136887   6.560   1.179   2.097 -0.0571  1.8911  0.2743
 5132TIP3    H236888   6.591   1.261   1.974 -3.1841  1.0819 -1.1079
 5133TIP3   OH236889   1.219   5.179   6.009 -0.1998  1.0406  0.2505
 5133TIP3    H136890   1.164   5.117   6.058  0.7099 -0.5413 -0.6896
 5133TIP3    H236891   1.247   5.244   6.074  0.3941 -0.6163  1.6743
 5134TIP3   OH236892   5.280   2.135  14.928  0.4739 -0.2351 -0.2280
 5134TIP3    H136893   5.273   2.040  14.921 -0.3259 -0.1780 -0.3223
 5134TIP3    H236894   5.302   2.151  15.019 -0.9143 -0.4456  0.1549
 5135TIP3   OH236895   4.484   3.296  15.714  0.2880  0.4157 -0.3432
 5135TIP3    H136896   4.463   3.203  15.709  1.9884  0.0923 -2.2162
 5135TIP3    H236897   4.439   3.334  15.639  0.0331  1.0150  0.1118
 5136TIP3   OH236898   4.894   2.615   4.893 -0.4622  0.0399  0.1718
 5136TIP3    H136899   4.814   2.667   4.898  0.4089  1.3164  1.1938
 5136TIP3    H236900   4.892   2.560   4.971 -0.1753  0.3229  0.3795
 5137TIP3   OH236901   6.596   3.099  14.036 -0.4910  0.1301 -0.6775
 5137TIP3    H136902   6.525   3.096  13.972 -0.0858  0.5850 -1.1528
 5137TIP3    H236903   6.561   3.056  14.114 -1.4226  0.7116 -0.7790
 5138TIP3   OH236904   2.147   1.157   0.045  0.3730 -0.1085 -0.4545
 5138TIP3    H136905   2.081   1.226   0.034  0.2462 -0.0833  0.4753
 5138TIP3    H236906   2.206   1.191   0.113  0.4944 -0.7830 -0.2248
 5139TIP3   OH236907   0.333   2.349  12.011  0.0386 -0.3194 -0.0826
 5139TIP3    H136908   0.401   2.347  11.944 -0.0217 -1.6838 -0.1228
 5139TIP3    H236909   0.371   2.399  12.083  2.4496 -3.9355  1.2870
 5140TIP3   OH236910   5.792   2.841  16.594 -0.1626 -0.3749 -0.6401
 5140TIP3    H136911   5.839   2.851  16.677  1.5935  1.9205 -1.8528
 5140TIP3    H236912   5.718   2.901  16.601 -1.2666 -1.7994  0.1020
 5141TIP3   OH236913   3.759   4.945   1.428  0.1813 -0.1441 -0.1329
 5141TIP3    H136914   3.723   4.862   1.459 -0.4693  0.4988  0.8665
 5141TIP3    H236915   3.785   4.991   1.508  2.6867 -0.3350 -0.7981
 5142TIP3   OH236916   0.876   2.638   5.660  0.6085  0.5014 -0.2532
 5142TIP3    H136917   0.886   2.595   5.744  0.8823  0.1386 -0.4709
 5142TIP3    H236918   0.812   2.708   5.676  1.3191  0.9961  0.4634
 5143TIP3   OH236919   5.583   0.106  15.058  0.5836  0.0523  0.2127
 5143TIP3    H136920   5.661   0.118  15.005  0.2979 -2.0026 -0.7264
 5143TIP3    H236921   5.592   0.018  15.095 -1.6640 -0.5458 -0.5725
 5144TIP3   OH236922   6.440   4.571   0.003 -0.6086 -0.0633  0.5451
 5144TIP3    H136923   6.345   4.565  -0.004 -0.5735 -0.8284  0.6813
 5144TIP3    H236924   6.473   4.520  -0.072 -0.3052 -0.6238  1.0533
 5145TIP3   OH236925   3.296   3.297  15.534  0.4792 -0.4778 -0.5900
 5145TIP3    H136926   3.203   3.294  15.559  0.0956  2.0238 -1.5867
 5145TIP3    H236927   3.343   3.280  15.615 -0.8471 -1.2505  0.0405
 5146TIP3   OH236928   4.188   3.063  15.431  0.1663 -0.0666  0.3667
 5146TIP3    H136929   4.201   2.969  15.441 -0.4351 -0.1349  0.5260
 5146TIP3    H236930   4.172   3.094  15.521  1.6579  0.3930  0.4974
 5147TIP3   OH236931   1.448   2.779  15.755  0.1177  0.0041 -0.0899
 5147TIP3    H136932   1.436   2.699  15.806  2.5244  1.0062  2.1921
 5147TIP3    H236933   1.423   2.755  15.666 -0.4741 -2.9107  0.8111
 5148TIP3   OH236934   4.007   2.943  17.074 -0.0952  0.4608  0.2318
 5148TIP3    H136935   3.935   2.960  17.135  0.0413  2.2421 -0.0882
 5148TIP3    H236936   3.993   2.852  17.046 -0.8215  0.0025  2.0195
 5149TIP3   OH236937   4.511   6.563  14.168  0.1009  0.0245 -0.4014
 5149TIP3    H136938   4.550   6.554  14.081  1.9742  2.0485  0.1588
 5149TIP3    H236939   4.422   6.596  14.151  0.2822 -0.0530 -1.5746
 5150TIP3   OH236940   2.832   4.761   0.729  0.2349 -0.2573 -0.2698
 5150TIP3    H136941   2.917   4.748   0.770  0.0986 -2.2899 -0.5863
 5150TIP3    H236942   2.842   4.725   0.641 -1.0473 -0.7910 -0.2027
 5151TIP3   OH236943   3.793   3.310   6.168  0.1402  0.8537 -0.1413
 5151TIP3    H136944   3.746   3.342   6.091 -0.3438 -0.5109 -0.4309
 5151TIP3    H236945   3.725   3.295   6.234  0.6866  3.2231  1.0104
 5152TIP3   OH236946   2.299   2.615  16.079 -0.4489 -0.1180  0.1725
 5152TIP3    H136947   2.321   2.536  16.031 -1.4950 -0.4249  0.1836
 5152TIP3    H236948   2.381   2.665  16.083  0.2675 -1.3043  0.3726
 5153TIP3   OH236949   1.993   1.865   5.473 -0.2776  0.9368 -0.1013
 5153TIP3    H136950   2.010   1.791   5.532  2.3420  2.3685  1.0189
 5153TIP3    H236951   1.929   1.831   5.410 -1.8998 -1.1572  2.5423
 5154TIP3   OH236952   3.681   3.825   0.996  0.7552 -0.5508  0.0660
 5154TIP3    H136953   3.683   3.832   1.091 -1.9598 -2.1024  0.2694
 5154TIP3    H236954   3.634   3.903   0.967  1.3163 -0.2321  0.0068
 5155TIP3   OH236955   0.559   0.359  12.879 -0.3236 -0.1409 -0.0650
 5155TIP3    H136956   0.591   0.358  12.788  0.2240 -0.2004  0.1257
 5155TIP3    H236957   0.601   0.435  12.918 -0.5114 -0.1528  0.1570
 5156TIP3   OH236958   4.921   3.637   1.294  0.6036  0.2023  0.2702
 5156TIP3    H136959   4.900   3.726   1.267 -0.9228 -0.3814 -0.5488
 5156TIP3    H236960   4.918   3.586   1.213 -1.1565 -1.0514  1.0824
 5157TIP3   OH236961   1.759   4.603  16.664  0.3224 -0.7034 -0.1676
 5157TIP3    H136962   1.725   4.532  16.719  0.6863  0.2328  1.2701
 5157TIP3    H236963   1.687   4.666  16.660  1.3613  0.6178  1.7051
 5158TIP3   OH236964   6.392   6.425  11.689  0.2947 -0.3394 -0.2966
 5158TIP3    H136965   6.389   6.369  11.612  1.8019  1.8560 -2.0302
 5158TIP3    H236966   6.469   6.481  11.675 -1.2542  2.2837  1.2084
 5159TIP3   OH236967   0.115   1.048  13.528  0.0728 -0.0318 -0.2375
 5159TIP3    H136968   0.091   1.123  13.582  1.7811  1.6594 -1.7202
 5159TIP3    H236969   0.037   1.031  13.474  0.0113  1.3694 -0.6116
 5160TIP3   OH236970   3.395   4.144   1.314  0.5862  0.9491  0.2391
 5160TIP3    H136971   3.464   4.114   1.374 -0.4745  0.2703  1.1483
 5160TIP3    H236972   3.324   4.081   1.327  0.3528  0.7724 -1.7836
 5161TIP3   OH236973   6.304   5.206  11.113 -0.3426 -0.2191 -0.5982
 5161TIP3    H136974   6.332   5.261  11.186 -2.4946 -2.3384  1.9065
 5161TIP3    H236975   6.383   5.156  11.089 -0.1927 -1.2450  1.9074
 5162TIP3   OH236976   3.277   2.220  15.324 -0.0213  0.0388 -0.2642
 5162TIP3    H136977   3.297   2.257  15.238  1.7437 -2.1276 -0.8540
 5162TIP3    H236978   3.203   2.162  15.309  0.1773 -0.2077 -0.3011
 5163TIP3   OH236979   5.730   0.494  14.901 -0.0835 -0.1849 -0.7187
 5163TIP3    H136980   5.824   0.499  14.914 -0.3510  0.5621  1.1542
 5163TIP3    H236981   5.712   0.557  14.832  0.5783  1.1087  0.2578
 5164TIP3   OH236982   1.127   2.237  15.031 -0.1580  0.6116  0.3245
 5164TIP3    H136983   1.039   2.269  15.055 -0.6283 -0.5959  0.2141
 5164TIP3    H236984   1.144   2.278  14.946 -1.1725 -0.1970 -0.2773
 5165TIP3   OH236985   0.783   1.136  13.569  0.1337  0.8029 -0.2656
 5165TIP3    H136986   0.703   1.179  13.598 -0.9213 -1.3625  0.0780
 5165TIP3    H236987   0.797   1.065  13.632  0.6306 -0.7355 -2.0485
 5166TIP3   OH236988   0.332   4.822   5.383 -0.7473  0.0187 -0.5343
 5166TIP3    H136989   0.275   4.762   5.333 -2.4197  0.8701  0.2935
 5166TIP3    H236990   0.277   4.899   5.398  0.7621  1.0015  0.0298
 5167TIP3   OH236991   5.798   0.499   1.040  0.3816  0.0804 -0.1324
 5167TIP3    H136992   5.890   0.473   1.039  0.7301  1.2281  1.2820
 5167TIP3    H236993   5.787   0.547   1.121 -1.9516 -1.7113  0.6855
 5168TIP3   OH236994   0.220   3.105  12.488 -0.3748  0.2632  0.3178
 5168TIP3    H136995   0.171   3.157  12.551  0.7967  1.1273  0.5411
 5168TIP3    H236996   0.252   3.169  12.424  0.7246 -0.2269  0.3654
 5169TIP3   OH236997   1.871   3.692   0.161  0.3858 -0.2159  0.4290
 5169TIP3    H136998   1.871   3.597   0.167  0.8222 -0.1104  2.6761
 5169TIP3    H236999   1.783   3.715   0.130 -0.1303 -1.3061  1.0598
 5170TIP3   OH237000   3.077   1.218  15.561  0.1708  0.7058  0.0432
 5170TIP3    H137001   3.042   1.154  15.499  1.0718  1.8562 -1.7109
 5170TIP3    H237002   3.054   1.184  15.647  0.2720 -1.7602 -0.8627
 5171TIP3   OH237003   2.712   6.709  15.719 -0.5208 -0.0641  0.6542
 5171TIP3    H137004   2.668   6.678  15.798 -1.7241  1.5847  0.6525
 5171TIP3    H237005   2.644   6.757  15.671  1.5452  3.5535  1.2032
 5172TIP3   OH237006   3.508   3.073  14.121 -0.4050 -0.3474 -0.1687
 5172TIP3    H137007   3.566   3.065  14.045 -0.7831 -0.6857 -0.4246
 5172TIP3    H237008   3.525   2.995  14.172 -0.4295 -0.3086 -0.1027
 5173TIP3   OH237009   2.229   5.529   1.882  0.2089 -0.3800 -0.3601
 5173TIP3    H137010   2.307   5.480   1.908 -1.1538 -1.5195  1.6648
 5173TIP3    H237011   2.239   5.539   1.787  1.8031 -2.2923 -0.4480
 5174TIP3   OH237012   5.953   5.817  10.988 -0.0507  0.2975 -0.2950
 5174TIP3    H137013   5.970   5.735  11.033 -1.7904  0.9975  1.7100
 5174TIP3    H237014   5.903   5.792  10.910  1.8804 -0.7900 -1.2229
 5175TIP3   OH237015   4.011   2.952  14.152 -0.5797 -0.1245  0.3812
 5175TIP3    H137016   3.917   2.939  14.157 -0.5170 -0.0571  1.8859
 5175TIP3    H237017   4.034   2.995  14.234  0.8749 -0.8092  0.3488
 5176TIP3   OH237018   5.412   0.531  17.000  0.4313  0.3023 -1.0328
 5176TIP3    H137019   5.491   0.569  17.039 -0.3754  1.9885 -0.9938
 5176TIP3    H237020   5.357   0.508  17.075  0.7798 -0.6674 -1.0659
 5177TIP3   OH237021   2.162   0.780  13.022 -0.0079  0.1643 -0.4000
 5177TIP3    H137022   2.113   0.724  12.962 -2.0765  0.6014  0.8221
 5177TIP3    H237023   2.156   0.868  12.984  0.1330  0.1567 -0.4386
 5178TIP3   OH237024   1.175   2.760  15.950  0.1989  0.0010  0.0566
 5178TIP3    H137025   1.204   2.703  15.879 -0.1183  0.6053 -0.5556
 5178TIP3    H237026   1.125   2.702  16.008  1.6848 -0.8227  0.5612
 5179TIP3   OH237027   4.168   0.031   1.644  0.0347 -0.1297 -0.3421
 5179TIP3    H137028   4.167   0.028   1.549 -1.0185 -0.3713 -0.3313
 5179TIP3    H237029   4.183   0.123   1.665  0.1038 -0.0497 -0.7373
 5180TIP3   OH237030   0.352   6.786  13.637 -0.2916 -0.3540  0.5480
 5180TIP3    H137031   0.336   6.713  13.577 -2.3059 -0.0859  0.7183
 5180TIP3    H237032   0.407   6.847  13.586 -1.2344 -0.5378 -0.7304
 5181TIP3   OH237033   6.785   6.086  16.972  0.0337  0.2964 -0.0920
 5181TIP3    H137034   6.719   6.105  16.905  1.1040  0.3489 -1.1583
 5181TIP3    H237035   6.850   6.155  16.961  0.8191 -0.3876  0.2057
 5182TIP3   OH237036   5.618   6.251   3.757 -0.7643  0.6024 -0.4303
 5182TIP3    H137037   5.541   6.211   3.798 -1.8348  1.2336 -1.7959
 5182TIP3    H237038   5.611   6.344   3.779 -1.0732  0.8607 -1.6105
 5183TIP3   OH237039   0.782   1.423   1.139 -0.3895  0.1973 -0.4031
 5183TIP3    H137040   0.866   1.423   1.186  0.1824  1.3466 -1.3776
 5183TIP3    H237041   0.807   1.422   1.046 -1.4759 -0.4053 -0.7005
 5184TIP3   OH237042   6.606   4.717  14.023 -0.7335 -0.4845 -0.2908
 5184TIP3    H137043   6.522   4.756  14.044 -0.5542  0.6318 -1.5406
 5184TIP3    H237044   6.592   4.677  13.937 -0.0393 -0.4352 -0.4286
 5185TIP3   OH237045   4.784   6.427  11.659  0.5195  0.2062  0.2152
 5185TIP3    H137046   4.709   6.469  11.618  0.7682  0.8442  0.4070
 5185TIP3    H237047   4.754   6.338  11.679  0.1345  0.1536 -0.5815
 5186TIP3   OH237048   5.605   5.066   4.600  0.4524 -0.0430  0.0772
 5186TIP3    H137049   5.621   5.085   4.692  1.4485 -1.2419  0.1652
 5186TIP3    H237050   5.539   4.998   4.600  0.4002  0.0071 -0.1022
 5187TIP3   OH237051   6.372   4.303   0.127  0.2460 -0.1514  0.4498
 5187TIP3    H137052   6.302   4.352   0.085  0.3433  0.9151  1.5094
 5187TIP3    H237053   6.331   4.263   0.204 -0.1531 -2.8432 -1.0943
 5188TIP3   OH237054   4.878   4.682   4.185  0.2996 -0.1173 -0.3135
 5188TIP3    H137055   4.959   4.723   4.157 -0.0176  2.2280  2.0091
 5188TIP3    H237056   4.892   4.588   4.171  3.6052  0.1990  0.5371
 5189TIP3   OH237057   0.377   2.032   2.880  0.7150  0.6835  0.3024
 5189TIP3    H137058   0.443   2.023   2.948 -0.5727  0.6320  1.5756
 5189TIP3    H237059   0.315   2.097   2.915 -0.1971  0.3309 -0.6250
 5190TIP3   OH237060   2.795   0.030  10.237 -0.0241  0.0528 -0.4819
 5190TIP3    H137061   2.880   0.049  10.196 -0.5659  0.3060 -1.5240
 5190TIP3    H237062   2.799  -0.062  10.261  0.1570 -0.2087 -1.4965
 5191TIP3   OH237063   4.690   1.519   3.546 -0.3338 -0.3656 -0.0563
 5191TIP3    H137064   4.670   1.433   3.507 -0.0777  0.0583 -1.1376
 5191TIP3    H237065   4.750   1.560   3.484  0.1443  0.2975  0.8362
 5192TIP3   OH237066   6.343   3.484  16.746 -0.0438  0.4507  0.5132
 5192TIP3    H137067   6.322   3.577  16.733  0.8940  0.3566 -1.9113
 5192TIP3    H237068   6.349   3.448  16.658  0.9892 -1.6159  1.3940
 5193TIP3   OH237069   5.688   0.044   5.744 -0.2748 -0.5574  0.3474
 5193TIP3    H137070   5.597   0.065   5.722  0.9608  0.6964 -3.9845
 5193TIP3    H237071   5.701  -0.044   5.709  0.8312  0.2088 -1.2168
 5194TIP3   OH237072   0.934   3.828   3.413 -0.1648 -0.3842  0.5355
 5194TIP3    H137073   1.018   3.814   3.369 -0.6232  0.5565 -0.6783
 5194TIP3    H237074   0.956   3.882   3.489  0.0471  1.7928 -1.0316
 5195TIP3   OH237075   5.329   6.649  11.271  0.5590 -0.4836 -0.0138
 5195TIP3    H137076   5.236   6.656  11.249  0.6257  0.5706  0.0026
 5195TIP3    H237077   5.372   6.623  11.190  0.5751  1.5687 -0.6781
 5196TIP3   OH237078   5.177   5.077  17.159  0.8355  0.2236  0.2851
 5196TIP3    H137079   5.107   5.123  17.113 -0.7398  1.0051  3.3855
 5196TIP3    H237080   5.240   5.145  17.182  1.4461 -0.1193 -0.3199
 5197TIP3   OH237081   1.413   4.870   3.770  0.0798  0.1057 -0.2130
 5197TIP3    H137082   1.504   4.875   3.739 -0.1082  0.3081 -0.7330
 5197TIP3    H237083   1.409   4.787   3.817  1.1524  1.1493  1.8102
 5198TIP3   OH237084   6.027   3.271   0.653 -0.0361  0.4191  0.0779
 5198TIP3    H137085   5.968   3.198   0.633 -0.2894  0.9777 -1.2984
 5198TIP3    H237086   6.077   3.284   0.572  1.4867  0.4087  1.0009
 5199TIP3   OH237087   0.365   5.569  10.798  0.5633 -0.2026  0.4347
 5199TIP3    H137088   0.359   5.487  10.748 -2.1755  0.6859 -0.7941
 5199TIP3    H237089   0.415   5.627  10.741 -0.7235  0.1365 -0.3705
 5200TIP3   OH237090   0.764   6.332  14.451 -0.0379  0.5396 -0.3582
 5200TIP3    H137091   0.745   6.345  14.358 -0.0296 -0.3910 -0.4949
 5200TIP3    H237092   0.856   6.357  14.461 -1.2151  5.1394  0.3134
 5201TIP3   OH237093   6.193   6.234  13.361  0.0632  0.9435 -0.0513
 5201TIP3    H137094   6.287   6.255  13.359 -0.2551  2.6458  1.3210
 5201TIP3    H237095   6.160   6.282  13.437 -1.1854 -2.8464  1.8933
 5202TIP3   OH237096   2.676   0.259  12.035  0.3095 -0.5542 -0.2350
 5202TIP3    H137097   2.638   0.238  11.950  2.0399  1.3861 -1.5370
 5202TIP3    H237098   2.741   0.191  12.050 -1.1851 -1.8987  0.4008
 5203TIP3   OH237099   0.330   4.563  11.502 -0.5107  0.1465  0.2359
 5203TIP3    H137100   0.382   4.505  11.557 -0.8223  0.2496  0.6378
 5203TIP3    H237101   0.349   4.534  11.413  0.1028  0.0697  0.3870
 5204TIP3   OH237102   4.919   5.828   6.502 -0.4026  0.3324 -0.5145
 5204TIP3    H137103   4.953   5.916   6.518  0.2072  0.1065 -0.5568
 5204TIP3    H237104   4.957   5.774   6.571 -1.5446  0.2806  0.0951
 5205TIP3   OH237105   6.728   1.785   5.230  0.2448  0.4033 -1.0931
 5205TIP3    H137106   6.671   1.857   5.258 -1.0198 -0.8068 -0.5459
 5205TIP3    H237107   6.802   1.829   5.188 -0.1313  2.0599 -0.0762
 5206TIP3   OH237108   4.873   4.591   5.294 -0.3411 -0.2614  0.3108
 5206TIP3    H137109   4.842   4.503   5.315 -1.4841 -0.4303 -1.9288
 5206TIP3    H237110   4.798   4.633   5.250  1.1309  0.8225 -1.2274
 5207TIP3   OH237111   0.064   3.286   2.067  0.0258 -0.2255 -0.6730
 5207TIP3    H137112   0.059   3.191   2.074  0.2726 -0.1942 -0.0834
 5207TIP3    H237113  -0.003   3.318   2.127 -2.1327 -0.0779 -3.0831
 5208TIP3   OH237114   3.332   3.336  16.261 -0.2133  0.2802 -0.0634
 5208TIP3    H137115   3.338   3.319  16.167 -2.1269 -0.9647  0.0174
 5208TIP3    H237116   3.332   3.432  16.268 -1.2516  0.3978 -1.4179
 5209TIP3   OH237117   4.595   5.302  12.657  0.3937 -0.2483 -0.8428
 5209TIP3    H137118   4.647   5.230  12.620  1.2326 -1.1434  1.9139
 5209TIP3    H237119   4.509   5.263  12.674  0.9295 -0.7223  0.9013
 5210TIP3   OH237120   1.590   0.536  13.391 -0.2542  0.0870  0.2292
 5210TIP3    H137121   1.500   0.515  13.417 -0.9777 -0.6639 -2.6587
 5210TIP3    H237122   1.586   0.626  13.360 -0.5750 -0.7535 -2.2339
 5211TIP3   OH237123   5.252   4.752  11.841  0.0795  0.4690 -0.1827
 5211TIP3    H137124   5.240   4.750  11.936  0.3542  0.5134 -0.1466
 5211TIP3    H237125   5.166   4.729  11.806 -0.1018  0.7551  0.0724
 5212TIP3   OH237126   6.721   5.857  14.521 -0.2048 -0.1432 -0.1185
 5212TIP3    H137127   6.673   5.912  14.582  0.6778 -0.7064  1.0915
 5212TIP3    H237128   6.757   5.786  14.575  0.7156 -0.5565 -1.2557
 5213TIP3   OH237129   4.559   2.988  14.480 -0.0160  0.2927 -0.0283
 5213TIP3    H137130   4.632   3.025  14.430  0.3454 -0.0534  0.2374
 5213TIP3    H237131   4.562   3.033  14.565 -0.6187  0.8693 -0.3028
 5214TIP3   OH237132   2.062   0.746  15.935 -0.1013 -0.3328  0.0101
 5214TIP3    H137133   2.154   0.722  15.926  0.1306  0.2584  0.6853
 5214TIP3    H237134   2.047   0.809  15.865  0.4635  0.8258  0.9129
 5215TIP3   OH237135   3.218   0.841   0.484 -0.0939 -0.3544  0.4058
 5215TIP3    H137136   3.275   0.879   0.551  1.1235  0.6110 -1.1428
 5215TIP3    H237137   3.164   0.914   0.454  0.0884 -0.5389 -0.3884
 5216TIP3   OH237138   5.807   5.485  15.667 -0.6160 -0.0119 -0.3570
 5216TIP3    H137139   5.721   5.447  15.689  0.0145 -1.6079 -0.5619
 5216TIP3    H237140   5.834   5.529  15.748 -0.8756 -0.9508  0.2529
 5217TIP3   OH237141   0.631   3.941   1.430  0.4034 -0.2652 -0.2315
 5217TIP3    H137142   0.566   3.889   1.384 -0.7731  0.6957  0.3383
 5217TIP3    H237143   0.583   4.017   1.463  1.7196  0.2541  0.5302
 5218TIP3   OH237144   1.249   3.925   1.208 -0.3945  0.1033 -0.3002
 5218TIP3    H137145   1.278   4.010   1.174  0.4099 -0.2100 -0.4153
 5218TIP3    H237146   1.272   3.927   1.301  0.1081 -0.1827 -0.4128
 5219TIP3   OH237147   2.629   6.435  15.882  0.4118  0.2767 -0.0465
 5219TIP3    H137148   2.689   6.387  15.938 -0.1981  0.5796  0.8899
 5219TIP3    H237149   2.543   6.419  15.921  0.2861  2.7711  0.7616
 5220TIP3   OH237150   4.064   6.043   0.180 -0.0368  0.3379  0.1234
 5220TIP3    H137151   4.089   6.058   0.271  1.3557 -1.6663  0.1094
 5220TIP3    H237152   3.973   6.014   0.185  0.1479 -0.1263  0.9148
 5221TIP3   OH237153   3.626   3.566   5.467  0.4158 -0.4137 -0.5020
 5221TIP3    H137154   3.663   3.624   5.533 -0.5483 -1.6244  1.1501
 5221TIP3    H237155   3.609   3.622   5.392  3.0783  0.6577 -0.3239
 5222TIP3   OH237156   0.034   1.926  15.833  0.2033  0.0602 -0.3627
 5222TIP3    H137157   0.068   1.856  15.889  1.1817  0.3109 -0.6435
 5222TIP3    H237158  -0.009   1.881  15.761  1.2552 -0.2460 -0.7946
 5223TIP3   OH237159   4.061   5.765  12.660  0.3761 -0.2070  0.1545
 5223TIP3    H137160   4.142   5.739  12.704  1.1297 -0.4545 -1.3497
 5223TIP3    H237161   4.013   5.815  12.726  1.9195  0.2541  0.9481
 5224TIP3   OH237162   2.175   1.510   6.179 -0.5025  0.0657 -0.0808
 5224TIP3    H137163   2.267   1.493   6.203 -0.8348  0.2531  1.3659
 5224TIP3    H237164   2.128   1.434   6.213 -1.0838  0.6834  0.4907
 5225TIP3   OH237165   1.021   1.457   4.446  0.5210 -0.1946 -0.1184
 5225TIP3    H137166   1.007   1.364   4.431 -1.6790  0.1439 -0.3038
 5225TIP3    H237167   1.114   1.470   4.429  0.7662 -2.2744 -0.5023
 5226TIP3   OH237168   4.600   3.209  16.376 -0.6297  0.1950 -0.5429
 5226TIP3    H137169   4.637   3.246  16.457 -0.0084  1.6560 -1.4819
 5226TIP3    H237170   4.641   3.123  16.368 -0.4799  0.1558  0.5452
 5227TIP3   OH237171   5.490   2.233   0.320 -0.6331  0.1601  0.2445
 5227TIP3    H137172   5.569   2.214   0.371 -0.8054 -0.9181  0.1229
 5227TIP3    H237173   5.521   2.242   0.230 -0.8440 -1.8355 -0.0475
 5228TIP3   OH237174   3.798   3.554  13.773 -0.0696 -0.8017  0.4648
 5228TIP3    H137175   3.736   3.483  13.790  0.0262 -0.9283  0.2811
 5228TIP3    H237176   3.746   3.634  13.781 -0.0975 -0.8745  1.0331
 5229TIP3   OH237177   5.674   0.810   0.761 -0.2955  0.0995 -0.4451
 5229TIP3    H137178   5.660   0.832   0.669 -0.0592 -0.2279 -0.5603
 5229TIP3    H237179   5.764   0.840   0.779  0.0374 -0.7965 -0.6105
 5230TIP3   OH237180   0.694   2.434   5.215  0.5894  0.3926  0.0492
 5230TIP3    H137181   0.760   2.364   5.219 -0.8484 -0.8992  2.1474
 5230TIP3    H237182   0.720   2.487   5.140  2.7029 -1.4137 -0.5507
 5231TIP3   OH237183   5.803   2.844  16.036  0.6874 -0.2937 -0.1094
 5231TIP3    H137184   5.865   2.817  16.104 -1.4826 -3.6760  0.6190
 5231TIP3    H237185   5.836   2.803  15.956 -0.8672 -2.6919  0.4071
 5232TIP3   OH237186   4.418   1.193   2.016  0.1206 -0.7943 -0.1122
 5232TIP3    H137187   4.443   1.150   1.935 -1.4339 -0.5956 -0.7145
 5232TIP3    H237188   4.326   1.218   2.003  0.3381  0.7157  1.0676
 5233TIP3   OH237189   0.777   6.490   3.679  0.0706  0.2210 -0.2172
 5233TIP3    H137190   0.687   6.509   3.650 -0.1519 -0.8708 -0.2362
 5233TIP3    H237191   0.800   6.409   3.635  0.6381 -0.1335  0.7191
 5234TIP3   OH237192   2.479   0.712  14.069 -0.2379 -0.0158 -0.4598
 5234TIP3    H137193   2.548   0.728  14.004  0.4741  0.7675  0.4714
 5234TIP3    H237194   2.494   0.622  14.097 -0.9780 -0.5960 -1.8732
 5235TIP3   OH237195   2.095   5.442   4.759 -0.3535  0.3311 -0.1899
 5235TIP3    H137196   2.082   5.514   4.698 -1.3131  2.0896  2.0081
 5235TIP3    H237197   2.163   5.474   4.819  1.3711 -1.7888 -0.9729
 5236TIP3   OH237198   5.922   5.777  14.949  0.2373 -0.6384  0.4743
 5236TIP3    H137199   5.859   5.834  14.993 -2.0798 -2.6620 -0.1083
 5236TIP3    H237200   5.935   5.818  14.863  0.5545  0.3447  0.9748
 5237TIP3   OH237201   4.423   4.677   1.141 -0.0027 -0.2295  0.2708
 5237TIP3    H137202   4.388   4.594   1.110 -1.4625 -0.2211  1.8236
 5237TIP3    H237203   4.469   4.713   1.066  0.6976 -2.4652 -0.4023
 5238TIP3   OH237204   1.348   2.833   5.923 -0.4563 -0.4990  0.4961
 5238TIP3    H137205   1.323   2.907   5.978 -0.8278  0.1799 -0.5769
 5238TIP3    H237206   1.276   2.824   5.860  1.1685  0.3812 -1.5352
 5239TIP3   OH237207   0.284   1.572  13.226 -0.1077  0.0854  0.7403
 5239TIP3    H137208   0.235   1.596  13.305 -1.5975 -2.3152  0.5928
 5239TIP3    H237209   0.375   1.570  13.255 -0.4455  1.1385  1.9209
 5240TIP3   OH237210   1.987   1.338  14.840  0.0384 -0.0096  0.4604
 5240TIP3    H137211   1.926   1.361  14.770 -2.3710 -0.9951  2.1558
 5240TIP3    H237212   1.979   1.409  14.904  0.4089 -0.3212  0.8625
 5241TIP3   OH237213   5.458   5.571   1.373 -0.6964 -0.5174  0.0990
 5241TIP3    H137214   5.377   5.564   1.322 -0.7368 -2.7164  0.4410
 5241TIP3    H237215   5.508   5.493   1.349  1.4301  0.9067 -0.2513
 5242TIP3   OH237216   5.348   6.727  15.774  0.2040  0.3568 -0.4622
 5242TIP3    H137217   5.287   6.793  15.807  0.7429  0.7953 -0.3284
 5242TIP3    H237218   5.348   6.659  15.841  1.4803  1.3583  0.6018
 5243TIP3   OH237219   4.986   5.027   5.180  0.6382 -0.8232  0.5009
 5243TIP3    H137220   4.912   5.020   5.240  1.9482 -0.9635  2.1546
 5243TIP3    H237221   4.956   4.985   5.099 -1.0905 -0.8156  1.1223
 5244TIP3   OH237222   5.176   6.808   6.380 -0.6041  0.2291  0.3464
 5244TIP3    H137223   5.257   6.757   6.390 -1.1689 -0.8013 -0.2220
 5244TIP3    H237224   5.108   6.742   6.368 -1.7707  1.0408  2.3247
 5245TIP3   OH237225   3.362   6.529  12.696  0.1765  0.4453 -0.0064
 5245TIP3    H137226   3.411   6.610  12.711  1.2043 -0.1266 -0.2096
 5245TIP3    H237227   3.331   6.536  12.605 -0.4756  1.0008  0.2613
 5246TIP3   OH237228   1.601   1.395   0.420  0.4103 -0.1176  0.2081
 5246TIP3    H137229   1.614   1.328   0.488  0.5272  1.0281  1.3421
 5246TIP3    H237230   1.605   1.478   0.468 -1.2513  0.6475 -0.9492
 5247TIP3   OH237231   5.331   2.623   0.707 -0.5618  0.0356  0.0971
 5247TIP3    H137232   5.358   2.566   0.635  1.1636 -0.9936  1.5184
 5247TIP3    H237233   5.235   2.625   0.701 -0.6373 -2.7800 -0.1719
 5248TIP3   OH237234   0.267   0.226  14.485 -0.1655 -0.0331  0.2978
 5248TIP3    H137235   0.297   0.226  14.394 -2.3201 -0.8032 -0.4556
 5248TIP3    H237236   0.235   0.136  14.500 -2.7267  0.9221  0.7858
 5249TIP3   OH237237   4.999   1.540  11.129 -0.1755 -0.2188 -0.0911
 5249TIP3    H137238   4.937   1.583  11.070  0.5354 -0.1309 -0.7740
 5249TIP3    H237239   4.953   1.538  11.213 -1.9020 -1.9125 -1.0335
 5250TIP3   OH237240   4.446   4.165  17.277  0.4928 -0.4152 -0.2749
 5250TIP3    H137241   4.443   4.151  17.371 -0.2370 -2.6278 -0.5971
 5250TIP3    H237242   4.377   4.108  17.242 -1.6575  3.0009 -1.8829
 5251TIP3   OH237243   4.610   6.407  17.017 -0.0342  0.1061  0.5556
 5251TIP3    H137244   4.581   6.498  17.013 -0.8007 -0.1964 -1.9314
 5251TIP3    H237245   4.528   6.356  17.012  0.5100 -0.7307  0.1253
 5252TIP3   OH237246   4.249   1.377   0.283 -0.5480  0.1653 -0.3469
 5252TIP3    H137247   4.162   1.399   0.316 -1.0813 -1.5109 -0.5997
 5252TIP3    H237248   4.285   1.317   0.348  0.4975  0.9579 -0.1714
 5253TIP3   OH237249   5.820   1.531  12.961 -0.5712 -0.3855 -0.5718
 5253TIP3    H137250   5.902   1.575  12.939 -0.3152  0.6507  2.2734
 5253TIP3    H237251   5.843   1.438  12.965  0.7482 -0.0044  1.3048
 5254TIP3   OH237252   0.772   0.255   4.605  0.9471  0.3128  0.0977
 5254TIP3    H137253   0.766   0.186   4.671 -0.7347  0.3310  0.0013
 5254TIP3    H237254   0.728   0.330   4.645  0.0232  0.3646 -0.9691
 5255TIP3   OH237255   6.167   6.590   4.846  0.0906  0.3664 -0.8411
 5255TIP3    H137256   6.212   6.674   4.841  2.0607 -0.7463 -2.9576
 5255TIP3    H237257   6.231   6.531   4.888  0.2028 -0.9601 -2.8094
 5256TIP3   OH237258   1.844   2.434  14.313  0.1815  0.2824 -0.5603
 5256TIP3    H137259   1.777   2.433  14.245 -0.8068  1.4064  0.3777
 5256TIP3    H237260   1.866   2.527  14.323  2.2529 -0.1123 -1.2223
 5257TIP3   OH237261   6.530   4.423  13.184  0.3431 -0.0848 -0.3725
 5257TIP3    H137262   6.576   4.387  13.108  1.5342 -0.3630  0.4671
 5257TIP3    H237263   6.566   4.512  13.193  0.5153 -0.2051  0.1224
 5258TIP3   OH237264   6.293   0.830  15.738  0.3596 -0.1397  0.0290
 5258TIP3    H137265   6.260   0.853  15.651  2.5284  0.1785 -0.7476
 5258TIP3    H237266   6.314   0.737  15.732  3.0207  0.4539 -0.6799
 5259TIP3   OH237267   3.672   6.459   1.382 -0.1015 -1.0691 -0.1126
 5259TIP3    H137268   3.750   6.408   1.361  1.2024 -0.2367  2.5416
 5259TIP3    H237269   3.653   6.437   1.473  0.1166  2.6701  0.9017
 5260TIP3   OH237270   2.819   0.042   2.736 -0.5785  0.0916 -0.2945
 5260TIP3    H137271   2.776  -0.032   2.693  0.7647 -0.2726 -1.0533
 5260TIP3    H237272   2.903   0.049   2.692 -0.8423  2.3297 -0.5127
 5261TIP3   OH237273   3.553   3.520   6.526 -0.2393 -0.4198  0.2339
 5261TIP3    H137274   3.539   3.606   6.565  0.1291 -0.4292  0.3915
 5261TIP3    H237275   3.478   3.468   6.555  0.2509 -0.5463  1.2887
 5262TIP3   OH237276   2.043   3.284  14.690  0.2396 -0.3230 -0.6096
 5262TIP3    H137277   2.124   3.306  14.735  0.0396  1.2752 -0.9914
 5262TIP3    H237278   1.973   3.315  14.748 -0.0046  3.1644 -2.6003
 5263TIP3   OH237279   1.535   4.962  13.047  0.2617  0.1267 -0.3187
 5263TIP3    H137280   1.498   4.984  13.132  1.2154  1.2649 -0.1910
 5263TIP3    H237281   1.471   4.901  13.008  0.5559 -1.5850  1.7985
 5264TIP3   OH237282   6.617   1.358   3.455  0.1320  1.0655  0.0899
 5264TIP3    H137283   6.619   1.268   3.421 -0.9461  1.1747 -0.2740
 5264TIP3    H237284   6.696   1.364   3.510  0.1089 -0.1657  0.2843
 5265TIP3   OH237285   2.965   3.039   2.713  0.0627  0.0168  0.3914
 5265TIP3    H137286   3.040   3.008   2.764  0.1511  0.3731  0.4820
 5265TIP3    H237287   2.889   2.997   2.753  0.2314 -0.4495  0.2144
 5266TIP3   OH237288   2.512   1.307  12.285  0.2479  0.3110  0.4896
 5266TIP3    H137289   2.567   1.303  12.206  1.9488  1.4390  1.5784
 5266TIP3    H237290   2.457   1.384  12.272 -0.4154 -0.2752 -0.1893
 5267TIP3   OH237291   3.094   2.145  16.597 -0.1041 -0.2827 -0.2933
 5267TIP3    H137292   3.173   2.130  16.544  0.5613  0.7852  0.3878
 5267TIP3    H237293   3.033   2.078  16.567  0.2976  0.2324 -2.3628
 5268TIP3   OH237294   6.677   0.938  13.408 -0.2066  0.6624 -0.9001
 5268TIP3    H137295   6.653   0.893  13.327 -1.3378  1.5097 -1.0347
 5268TIP3    H237296   6.616   1.011  13.415  0.4880  1.1545  0.2352
 5269TIP3   OH237297   0.454   4.863  11.293 -0.1427  0.5109  0.5469
 5269TIP3    H137298   0.478   4.898  11.207 -1.1144  1.3600  0.6102
 5269TIP3    H237299   0.377   4.808  11.276 -0.4519  0.8330  0.9049
 5270TIP3   OH237300   4.457   2.875  15.115 -0.5221 -0.2056  0.0322
 5270TIP3    H137301   4.513   2.798  15.107  1.0138  0.7962  0.7647
 5270TIP3    H237302   4.443   2.885  15.209 -1.2668  0.0227 -0.1023
 5271TIP3   OH237303   2.889   4.009   3.185 -0.1340 -0.1876  0.2555
 5271TIP3    H137304   2.813   4.065   3.169 -0.3832 -0.8611 -0.9653
 5271TIP3    H237305   2.906   3.966   3.101 -0.0251 -2.0373  1.1952
 5272TIP3   OH237306   4.460   1.344   0.129 -0.2004 -0.2863 -0.2024
 5272TIP3    H137307   4.398   1.362   0.200  0.1952  1.9964 -0.3730
 5272TIP3    H237308   4.408   1.298   0.063 -1.6357  1.1692 -0.1409
 5273TIP3   OH237309   1.485   0.207   4.621 -0.7161  0.2095 -0.0787
 5273TIP3    H137310   1.548   0.272   4.592 -0.1291  0.1368  0.9817
 5273TIP3    H237311   1.538   0.142   4.668 -1.4037 -0.5796 -0.3826
 5274TIP3   OH237312   6.651   4.927  11.635  0.4070 -0.1742  0.7169
 5274TIP3    H137313   6.590   4.868  11.679 -0.1863 -0.4645 -0.4716
 5274TIP3    H237314   6.727   4.931  11.693 -0.0957 -1.0629  1.4456
 5275TIP3   OH237315   4.530   4.906  16.129 -0.2364 -0.3878  0.0135
 5275TIP3    H137316   4.554   4.969  16.061  1.9524 -0.5277  0.6114
 5275TIP3    H237317   4.614   4.877  16.165 -1.2932 -1.9948  1.2497
 5276TIP3   OH237318   6.309   6.614  16.060 -0.4292  0.7838 -0.6739
 5276TIP3    H137319   6.277   6.538  16.108  1.0832  0.4417 -0.1940
 5276TIP3    H237320   6.260   6.688  16.096 -0.0936  0.3759  0.6236
 5277TIP3   OH237321   6.385   0.978   6.150  0.0361 -0.5767  0.1689
 5277TIP3    H137322   6.310   0.944   6.200  0.4253 -0.4164  0.8690
 5277TIP3    H237323   6.461   0.932   6.186  0.5044  0.6459  0.7661
 5278TIP3   OH237324   1.487   2.323   2.826  0.4079 -0.2307  0.1593
 5278TIP3    H137325   1.477   2.396   2.766 -0.5019  0.3573  0.9954
 5278TIP3    H237326   1.576   2.332   2.861 -0.0796  1.1655  1.1094
 5279TIP3   OH237327   5.934   4.475  14.133  0.2071 -0.0259 -0.3339
 5279TIP3    H137328   5.877   4.543  14.168  1.4790  0.8270  0.1391
 5279TIP3    H237329   5.963   4.426  14.210  0.8595  0.1468 -0.4659
 5280TIP3   OH237330   2.838   3.836  17.086  0.2822  0.4197  0.4123
 5280TIP3    H137331   2.920   3.793  17.113 -0.2602 -1.0319 -0.2122
 5280TIP3    H237332   2.828   3.812  16.994 -0.5561  1.0556  0.3438
 5281TIP3   OH237333   0.152   5.381   5.515  0.0961 -0.0170  0.0910
 5281TIP3    H137334   0.140   5.476   5.514 -0.4770 -0.0961 -0.5275
 5281TIP3    H237335   0.067   5.346   5.491  0.9047 -0.6370 -1.9784
 5282TIP3   OH237336   2.673   6.314   5.901 -0.2364 -0.4562 -0.0606
 5282TIP3    H137337   2.646   6.341   5.988  1.1275  0.6140  0.0357
 5282TIP3    H237338   2.662   6.393   5.847  0.2349 -0.7314 -0.5618
 5283TIP3   OH237339   0.872   6.154   2.603  0.2607  0.0256 -0.3547
 5283TIP3    H137340   0.949   6.140   2.547 -0.3691  0.1667 -1.2673
 5283TIP3    H237341   0.867   6.074   2.656  1.3532  0.2481  0.1132
 5284TIP3   OH237342   0.795   4.796  14.495  0.1356  0.2878 -0.5626
 5284TIP3    H137343   0.711   4.793  14.450  0.5140 -0.7614 -1.2291
 5284TIP3    H237344   0.846   4.863  14.449 -1.1276  2.5986  1.2981
 5285TIP3   OH237345   0.400   4.287  17.273 -0.3884  0.0944  0.5391
 5285TIP3    H137346   0.435   4.361  17.323 -0.1451  0.2575  0.1273
 5285TIP3    H237347   0.445   4.210  17.309  0.0266  0.2490  0.3528
 5286TIP3   OH237348   0.212   4.717  12.746 -0.5819  0.4565  0.9354
 5286TIP3    H137349   0.164   4.635  12.748  0.0695  0.0899  1.7734
 5286TIP3    H237350   0.301   4.693  12.718 -0.7252  1.0500 -0.0637
 5287TIP3   OH237351   5.321   1.292  15.091  0.0434 -0.2354 -0.1181
 5287TIP3    H137352   5.340   1.385  15.081 -0.9704 -0.2459 -2.6386
 5287TIP3    H237353   5.406   1.249  15.087  0.6767  0.6936  2.8827
 5288TIP3   OH237354   5.610   1.531   3.939  0.0419 -0.0096  0.4621
 5288TIP3    H137355   5.681   1.562   3.996  0.3111 -0.7903  0.5577
 5288TIP3    H237356   5.655   1.499   3.860 -0.3016  0.7117 -0.0358
 5289TIP3   OH237357   5.982   1.704  16.722 -0.1786  0.3600  0.2336
 5289TIP3    H137358   5.918   1.635  16.704  1.0029 -1.4465  2.6670
 5289TIP3    H237359   6.048   1.662  16.778  2.2766  2.6211 -0.8679
 5290TIP3   OH237360   5.497   1.636  13.182 -0.2032 -0.3701  0.0327
 5290TIP3    H137361   5.560   1.683  13.236  1.6057 -1.7359 -0.8073
 5290TIP3    H237362   5.436   1.596  13.244  1.2999 -1.1640  1.0208
 5291TIP3   OH237363   2.466   0.847   0.394  0.5238 -0.5193  0.1313
 5291TIP3    H137364   2.539   0.786   0.388  1.7244  0.9596 -0.6132
 5291TIP3    H237365   2.497   0.918   0.450  0.5833  1.3387 -2.1700
 5292TIP3   OH237366   0.324   1.545  16.944 -0.3465 -0.0725 -0.5275
 5292TIP3    H137367   0.257   1.584  16.888  0.8392  2.9383  0.0571
 5292TIP3    H237368   0.331   1.606  17.018  2.9903 -0.3520 -0.5491
 5293TIP3   OH237369   5.618   5.162   3.433 -0.4369 -0.4022  0.0299
 5293TIP3    H137370   5.589   5.175   3.524  1.2626  3.4958  0.1174
 5293TIP3    H237371   5.713   5.148   3.440 -0.3797 -0.6251 -1.0996
 5294TIP3   OH237372   1.388   3.483  15.175  0.6182 -0.1522 -0.3729
 5294TIP3    H137373   1.349   3.469  15.088 -0.4101 -0.6533  0.1596
 5294TIP3    H237374   1.386   3.396  15.215 -0.6755  0.4295  0.8679
 5295TIP3   OH237375   0.369   3.216   2.048  0.1755  0.1308 -0.0302
 5295TIP3    H137376   0.322   3.300   2.044 -1.1909 -0.5399  1.4208
 5295TIP3    H237377   0.391   3.206   2.140  1.9244 -0.2781 -0.4745
 5296TIP3   OH237378   4.076   5.863   6.096 -0.0463 -0.0198  0.5915
 5296TIP3    H137379   3.991   5.892   6.131 -0.0815  0.4308  0.1309
 5296TIP3    H237380   4.110   5.939   6.049 -0.1241 -0.7130 -0.5943
 5297TIP3   OH237381   2.393   4.075  13.300 -0.0761  0.0281 -0.4218
 5297TIP3    H137382   2.329   4.134  13.261  0.7558  0.4420 -1.1716
 5297TIP3    H237383   2.345   4.032  13.371 -1.4921 -0.4514 -1.6274
 5298TIP3   OH237384   2.631   0.571  11.219  0.3286 -0.4727  0.0881
 5298TIP3    H137385   2.557   0.588  11.161 -0.7099  2.2269  2.1173
 5298TIP3    H237386   2.595   0.518  11.290  0.7026 -0.4895  0.2693
 5299TIP3   OH237387   4.088   3.080  12.373  0.0457  0.0792 -0.0182
 5299TIP3    H137388   4.136   3.015  12.321  0.4980  1.5508 -1.5167
 5299TIP3    H237389   4.037   3.029  12.435  2.0614 -1.6223  0.2998
 5300TIP3   OH237390   6.386   0.833  11.542  0.2493  0.0889 -0.0637
 5300TIP3    H137391   6.364   0.753  11.494  1.4319 -0.5101  0.3677
 5300TIP3    H237392   6.345   0.903  11.491 -1.0636 -0.8088 -0.2719
 5301TIP3   OH237393   4.874   2.849  14.408 -0.6264 -0.3516  0.7014
 5301TIP3    H137394   4.934   2.801  14.465  0.1735 -0.5623 -0.3058
 5301TIP3    H237395   4.872   2.938  14.444  1.9238  0.2238 -0.4541
 5302TIP3   OH237396   2.468   6.177  15.470  0.2059  0.0085 -0.3468
 5302TIP3    H137397   2.519   6.184  15.551 -0.4649  0.7526  0.0128
 5302TIP3    H237398   2.378   6.196  15.496  0.4290  3.4722 -1.8067
 5303TIP3   OH237399   5.288   2.717   5.597 -0.3973  0.1521  0.4340
 5303TIP3    H137400   5.314   2.801   5.635 -1.1781  0.9834 -0.8086
 5303TIP3    H237401   5.199   2.733   5.564 -0.8559 -1.3956  0.8988
 5304TIP3   OH237402   4.326   2.426  12.544  0.0608  0.2745 -0.1103
 5304TIP3    H137403   4.241   2.389  12.521  1.0087 -1.0993 -1.4436
 5304TIP3    H237404   4.315   2.520  12.530 -1.3699  0.1529  0.1418
 5305TIP3   OH237405   2.273   1.331   5.816  0.3405  0.1556  0.4259
 5305TIP3    H137406   2.286   1.423   5.840 -0.9698 -0.0407  2.0135
 5305TIP3    H237407   2.237   1.291   5.896  1.4364 -1.8590 -0.0545
 5306TIP3   OH237408   1.773   3.239   1.992 -0.2623 -0.1699  0.9823
 5306TIP3    H137409   1.762   3.241   1.897 -0.0732 -2.5286  0.8654
 5306TIP3    H237410   1.690   3.272   2.026 -1.1405 -1.2511 -0.0229
 5307TIP3   OH237411   4.536   2.253  15.778  0.4683 -0.1071  0.6698
 5307TIP3    H137412   4.470   2.221  15.717 -0.9015 -0.7649  2.4656
 5307TIP3    H237413   4.619   2.221  15.742 -0.3610 -0.9374 -0.5490
 5308TIP3   OH237414   4.742   1.016  14.746  0.4290  0.2767 -0.3169
 5308TIP3    H137415   4.674   1.083  14.747  0.4217  0.2856  1.9113
 5308TIP3    H237416   4.694   0.934  14.758  0.6063  0.0293 -1.2317
 5309TIP3   OH237417   2.864   3.300   5.760  0.4749  0.1930 -0.0867
 5309TIP3    H137418   2.851   3.212   5.726 -1.6275 -0.1330  1.4511
 5309TIP3    H237419   2.860   3.289   5.855  0.0091  1.9671  0.1141
 5310TIP3   OH237420   4.397   1.222   5.742 -0.1832  0.0384 -0.4832
 5310TIP3    H137421   4.409   1.148   5.802  0.2537  1.5056  1.2835
 5310TIP3    H237422   4.470   1.215   5.681 -0.1796 -1.0314 -0.3655
 5311TIP3   OH237423   2.721   6.543  12.595  0.4206  0.6392  0.6362
 5311TIP3    H137424   2.753   6.470  12.542 -0.9639  0.7278 -0.3665
 5311TIP3    H237425   2.799   6.584  12.630  1.3032 -0.1167 -0.4191
 5312TIP3   OH237426   4.344   2.867   5.365  0.0386  0.1725  0.0489
 5312TIP3    H137427   4.373   2.906   5.283 -0.1377  0.7781  0.2709
 5312TIP3    H237428   4.342   2.940   5.427  0.7102 -0.3757  0.7385
 5313TIP3   OH237429   1.447   2.930   3.783 -0.2816 -0.1750 -0.2524
 5313TIP3    H137430   1.377   2.864   3.783 -0.0029 -0.4883 -1.3751
 5313TIP3    H237431   1.478   2.932   3.692  2.7103 -1.6510  0.6778
 5314TIP3   OH237432   4.760   0.822   4.377  0.2329  0.2174 -0.0367
 5314TIP3    H137433   4.804   0.754   4.327  0.8600  1.3012 -0.9823
 5314TIP3    H237434   4.827   0.856   4.436  0.1779  0.6414 -0.2142
 5315TIP3   OH237435   3.438   0.134  10.763  0.2125 -0.1818  0.6552
 5315TIP3    H137436   3.439   0.139  10.859  1.9158 -0.1771  0.6554
 5315TIP3    H237437   3.441   0.225  10.734 -1.3310 -0.1425  0.5821
 5316TIP3   OH237438   3.433   0.490  17.151 -0.1888  0.4650  0.2336
 5316TIP3    H137439   3.479   0.409  17.128  0.0802  1.2339 -2.0984
 5316TIP3    H237440   3.359   0.493  17.091 -1.9125  0.4910  2.3030
 5317TIP3   OH237441   5.395   1.382  15.627 -0.3844  0.1699 -0.0519
 5317TIP3    H137442   5.354   1.459  15.666 -0.6169  0.0490 -0.0608
 5317TIP3    H237443   5.354   1.374  15.541 -0.1528  0.2059 -0.1655
 5318TIP3   OH237444   0.251   6.470  16.205  0.0014 -0.2810 -0.2520
 5318TIP3    H137445   0.270   6.497  16.295  3.5172  0.0326 -1.0096
 5318TIP3    H237446   0.293   6.536  16.151  0.5861 -2.1157 -2.1185
 5319TIP3   OH237447   5.750   4.804   2.027  0.5446 -0.3832 -0.6660
 5319TIP3    H137448   5.655   4.811   2.011  0.2352 -3.5584 -0.6348
 5319TIP3    H237449   5.789   4.814   1.940 -0.1219 -2.6859 -1.2825
 5320TIP3   OH237450   4.234   5.091  15.998  0.6287 -0.2501 -0.4131
 5320TIP3    H137451   4.223   5.001  15.968  3.2695 -0.9655  0.6075
 5320TIP3    H237452   4.329   5.106  15.995  0.5485  1.3260  2.6793
 5321TIP3   OH237453   0.040   2.586   4.383 -0.1652  0.0156  0.5403
 5321TIP3    H137454   0.104   2.657   4.375  2.0000 -1.9798 -0.3233
 5321TIP3    H237455  -0.008   2.606   4.463  0.0480  2.7123  0.0540
 5322TIP3   OH237456   6.195   4.334   0.723  0.3850  0.6046 -0.5104
 5322TIP3    H137457   6.149   4.399   0.669 -0.6343  0.2571 -0.0717
 5322TIP3    H237458   6.130   4.304   0.786  1.9134  1.9422  1.7966
 5323TIP3   OH237459   0.505   3.607   3.401 -0.1940 -0.2605  0.0898
 5323TIP3    H137460   0.436   3.640   3.459 -1.4807  0.3368 -1.7439
 5323TIP3    H237461   0.573   3.576   3.461 -2.7490 -2.4804  2.0065
 5324TIP3   OH237462   0.185   1.646   3.756 -0.5076  0.0577  0.3865
 5324TIP3    H137463   0.248   1.712   3.783 -0.2083  0.2482 -0.7251
 5324TIP3    H237464   0.111   1.696   3.721 -0.5748 -0.1867  0.1767
 5325TIP3   OH237465   2.875   0.196  10.517 -0.2285  0.7423  0.5173
 5325TIP3    H137466   2.890   0.153  10.433 -0.1122  1.4178  0.1944
 5325TIP3    H237467   2.942   0.265  10.521 -1.3482  1.8459  0.3927
 5326TIP3   OH237468   0.274   4.502  12.171 -0.0791  0.3850 -0.4816
 5326TIP3    H137469   0.292   4.592  12.196  2.3783  0.9826 -3.9936
 5326TIP3    H237470   0.304   4.450  12.245 -0.0150  2.3528  0.9014
 5327TIP3   OH237471   5.832   2.467  12.178 -0.1234  0.0024  0.2577
 5327TIP3    H137472   5.822   2.399  12.244  1.5655  0.9419  1.5270
 5327TIP3    H237473   5.764   2.531  12.199 -0.9510 -0.7176 -0.2153
 5328TIP3   OH237474   6.419   5.069  17.275  0.1836 -0.5151  0.3938
 5328TIP3    H137475   6.387   5.149  17.232  1.2062  0.8992  2.1837
 5328TIP3    H237476   6.511   5.064  17.250  0.3740 -0.5710  1.0916
 5329TIP3   OH237477   5.367   5.113  11.510 -0.4127 -0.2436  0.0210
 5329TIP3    H137478   5.372   5.055  11.586 -0.7871  0.4551  0.5869
 5329TIP3    H237479   5.456   5.146  11.499 -0.2228 -0.8429 -0.2372
 5330TIP3   OH237480   0.989   2.309   1.466  0.1351  0.0191 -0.1513
 5330TIP3    H137481   0.950   2.366   1.400  2.1626  0.8691 -0.6804
 5330TIP3    H237482   0.973   2.221   1.434 -2.0659  0.3068  0.1054
 5331TIP3   OH237483   3.592   5.485  12.277 -0.0183  0.4239 -0.0424
 5331TIP3    H137484   3.583   5.420  12.208 -0.3765  2.2257 -1.7350
 5331TIP3    H237485   3.685   5.509  12.275 -0.0171  0.4330  0.1414
 5332TIP3   OH237486   3.732   1.721   1.286  0.0941  0.0393 -0.1514
 5332TIP3    H137487   3.663   1.745   1.225 -0.9121  1.0649  1.3504
 5332TIP3    H237488   3.686   1.672   1.356  0.8146  1.0122  1.0183
 5333TIP3   OH237489   5.212   0.235  12.487 -0.5596 -0.2917  0.3563
 5333TIP3    H137490   5.215   0.147  12.449 -0.9435 -0.0006 -0.3629
 5333TIP3    H237491   5.294   0.243  12.535  1.2765  0.3631 -2.7571
 5334TIP3   OH237492   3.237   0.447  11.676 -0.4843  0.5255 -0.7555
 5334TIP3    H137493   3.306   0.382  11.678 -1.2520 -0.3117 -1.0223
 5334TIP3    H237494   3.279   0.527  11.644  0.8265  0.6271  1.1445
 5335TIP3   OH237495   2.565   4.187  12.539  0.7212  0.1868 -0.3278
 5335TIP3    H137496   2.636   4.225  12.488 -1.1422  0.8486 -2.5406
 5335TIP3    H237497   2.493   4.250  12.530  0.0471 -0.1205  2.4326
 5336TIP3   OH237498   3.154   0.313  15.465  0.2233 -0.0629  0.4308
 5336TIP3    H137499   3.206   0.357  15.398  0.4462  0.0588  0.6811
 5336TIP3    H237500   3.137   0.380  15.531  0.1149 -0.2159  0.5602
 5337TIP3   OH237501   6.490   6.513   3.040 -0.0274  0.6763  0.0676
 5337TIP3    H137502   6.412   6.462   3.020 -0.8991  1.2942  1.7969
 5337TIP3    H237503   6.520   6.546   2.955 -0.4180 -1.3105 -0.8579
 5338TIP3   OH237504   3.942   0.471  13.430  0.0475 -0.3533 -0.1210
 5338TIP3    H137505   3.937   0.495  13.522 -0.6471  0.0421 -0.2618
 5338TIP3    H237506   4.028   0.504  13.402 -0.1641  0.4393  0.1284
 5339TIP3   OH237507   5.473   4.231   0.356 -0.1882  0.4601  0.0426
 5339TIP3    H137508   5.456   4.175   0.432  0.1189  0.9879  0.5038
 5339TIP3    H237509   5.405   4.208   0.294  0.2091 -0.7686  0.0477
 5340TIP3   OH237510   4.796   1.835   3.500 -0.4921  0.4301 -0.6116
 5340TIP3    H137511   4.768   1.878   3.420 -0.2592 -0.2661 -1.0711
 5340TIP3    H237512   4.892   1.840   3.497 -0.4988  0.9086 -0.0967
 5341TIP3   OH237513   4.052   2.741   5.372 -0.2941 -0.3264  0.0348
 5341TIP3    H137514   4.118   2.794   5.417 -0.8639  0.0038  0.4843
 5341TIP3    H237515   4.019   2.798   5.303  0.0891 -0.5935 -0.3773
 5342TIP3   OH237516   2.278   0.549  16.039  0.2632  0.0174  0.0970
 5342TIP3    H137517   2.296   0.483  15.971 -0.9012 -0.2964  0.0969
 5342TIP3    H237518   2.283   0.500  16.121  0.6688  0.1982  0.1855
 5343TIP3   OH237519   4.203   0.163   4.625  0.3444  0.3639 -0.0881
 5343TIP3    H137520   4.135   0.111   4.584  0.7416  1.1534 -1.8124
 5343TIP3    H237521   4.166   0.191   4.708 -1.4120  0.7111 -0.9695
 5344TIP3   OH237522   5.522   3.758  14.185 -0.8208 -0.1403 -0.0864
 5344TIP3    H137523   5.559   3.803  14.109 -0.4207 -0.2343  0.0467
 5344TIP3    H237524   5.556   3.807  14.260 -1.6880  0.3070  0.0164
 5345TIP3   OH237525   2.754   2.137   4.231  0.2460 -0.5758 -0.3826
 5345TIP3    H137526   2.676   2.188   4.210  0.2723 -0.4610 -0.1985
 5345TIP3    H237527   2.827   2.191   4.201  0.3068 -0.2037  0.4292
 5346TIP3   OH237528   5.618   1.182  11.607 -0.0482  0.0124  0.7900
 5346TIP3    H137529   5.708   1.156  11.626  0.1533  0.1583  0.0757
 5346TIP3    H237530   5.564   1.123  11.659  0.4752  0.3431  1.7194
 5347TIP3   OH237531   0.290   1.465   1.495 -0.0365 -0.3734 -0.1272
 5347TIP3    H137532   0.361   1.528   1.508  1.0328 -1.2898 -1.3631
 5347TIP3    H237533   0.274   1.467   1.400  0.1805 -2.1474 -0.2077
 5348TIP3   OH237534   5.313   1.130   6.340  0.2603  0.1581  0.4012
 5348TIP3    H137535   5.287   1.046   6.304 -0.2161  0.6648 -0.4619
 5348TIP3    H237536   5.235   1.163   6.384  0.3674  0.2631  0.5163
 5349TIP3   OH237537   0.969   1.461  14.596 -0.0205 -0.5016 -0.2537
 5349TIP3    H137538   1.035   1.474  14.663  0.3128 -0.6130 -0.5550
 5349TIP3    H237539   0.896   1.419  14.641 -0.0363 -0.0351  0.1586
 5350TIP3   OH237540   5.124   2.618   4.770 -0.0691 -0.0026 -0.5616
 5350TIP3    H137541   5.129   2.714   4.770  0.7165 -0.0248  1.0952
 5350TIP3    H237542   5.046   2.599   4.822 -0.6243 -0.2661 -1.4724
 5351TIP3   OH237543   6.559   4.030   3.184  0.2033 -0.4350 -0.0832
 5351TIP3    H137544   6.506   4.001   3.110  1.0216 -1.5698 -0.2282
 5351TIP3    H237545   6.574   4.123   3.167  0.2632 -0.6556 -1.2683
 5352TIP3   OH237546   5.823   6.811  14.349  0.7331 -0.4184  0.1642
 5352TIP3    H137547   5.860   6.763  14.275  0.7747 -0.5595  0.2786
 5352TIP3    H237548   5.888   6.878  14.368  0.3162  0.1846 -0.5013
 5353TIP3   OH237549   3.481   1.216   5.228 -0.3725 -0.4704  0.5815
 5353TIP3    H137550   3.411   1.269   5.191 -0.6491 -0.1952  1.4690
 5353TIP3    H237551   3.560   1.245   5.182 -0.9322 -1.2506 -0.8820
 5354TIP3   OH237552   4.774   2.203  13.889 -0.2141  0.6411  0.1765
 5354TIP3    H137553   4.867   2.186  13.902  0.0474  0.2454 -1.9753
 5354TIP3    H237554   4.749   2.261  13.961  1.5341  0.2024  1.1461
 5355TIP3   OH237555   2.668   3.980   0.884  0.0396 -0.2949  0.1462
 5355TIP3    H137556   2.670   4.003   0.791  0.3393 -0.1832  0.1788
 5355TIP3    H237557   2.576   3.988   0.909 -0.4593 -2.8703 -0.7695
 5356TIP3   OH237558   4.794   3.891   3.756  0.2084  0.5614 -0.2108
 5356TIP3    H137559   4.840   3.818   3.715 -0.8072 -0.7039  0.8185
 5356TIP3    H237560   4.863   3.952   3.783  1.4478 -1.8722  2.4323
 5357TIP3   OH237561   5.820   5.430  17.242 -0.6972  0.3248  0.0603
 5357TIP3    H137562   5.785   5.344  17.264 -1.8534  0.3347 -1.6586
 5357TIP3    H237563   5.754   5.469  17.184  1.4152  0.9545 -2.0061
 5358TIP3   OH237564   5.406   0.116   5.687 -0.2208 -0.1495 -0.1989
 5358TIP3    H137565   5.370   0.032   5.715 -0.9085 -0.1321 -1.0134
 5358TIP3    H237566   5.348   0.145   5.617  0.5097  0.5980 -0.5071
 5359TIP3   OH237567   6.783   1.795  15.610  0.2667  0.0294  0.3308
 5359TIP3    H137568   6.808   1.706  15.584  1.7166 -0.0200  1.8263
 5359TIP3    H237569   6.729   1.827  15.538  1.8200 -1.1498 -1.3971
 5360TIP3   OH237570   1.910   0.738   0.519  0.3320 -0.6344 -0.1388
 5360TIP3    H137571   1.908   0.665   0.457 -0.8889 -1.0692  0.4037
 5360TIP3    H237572   1.864   0.706   0.596  0.6188  0.3865  0.4738
 5361TIP3   OH237573   1.189   5.175  12.093 -0.2492 -0.3593  0.3184
 5361TIP3    H137574   1.122   5.178  12.161 -0.6624 -0.1221 -0.1007
 5361TIP3    H237575   1.245   5.251  12.110  0.0855 -0.7243  0.8448
 5362TIP3   OH237576   4.061   6.423  17.091 -0.4115 -0.1639 -0.3549
 5362TIP3    H137577   3.979   6.467  17.067 -0.9886 -1.0314 -0.0246
 5362TIP3    H237578   4.033   6.351  17.148  0.8568  1.4021  2.3670
 5363TIP3   OH237579   5.496   1.855  15.040  0.6004 -0.1383 -0.6134
 5363TIP3    H137580   5.568   1.792  15.046 -0.2463 -1.0172  0.3785
 5363TIP3    H237581   5.507   1.911  15.117 -0.9752 -1.5602  0.6706
 5364TIP3   OH237582   0.715   6.335  16.470  1.0028 -0.4595 -0.0187
 5364TIP3    H137583   0.621   6.332  16.450  1.1628 -0.4878 -0.7989
 5364TIP3    H237584   0.754   6.278  16.404  1.7365  0.8132 -0.6964
 5365TIP3   OH237585   4.568   2.248  12.423 -0.7174 -0.1190 -0.4948
 5365TIP3    H137586   4.592   2.340  12.439 -1.2118 -0.1418  0.4431
 5365TIP3    H237587   4.477   2.242  12.452 -0.0384 -1.3989  1.4998
 5366TIP3   OH237588   1.726   4.013   0.409 -0.6782  0.2687 -0.3908
 5366TIP3    H137589   1.797   3.951   0.426 -0.5682  0.1211 -1.3252
 5366TIP3    H237590   1.646   3.962   0.421 -0.6295  0.4252  0.6273
 5367TIP3   OH237591   2.143   0.052   4.811 -0.0616  0.6245  0.0492
 5367TIP3    H137592   2.137   0.108   4.888 -0.2810  0.7142 -0.0316
 5367TIP3    H237593   2.237   0.047   4.792 -0.0256  0.8024  0.1768
 5368TIP3   OH237594   3.022   1.548   3.926  0.4423 -0.5264  0.0389
 5368TIP3    H137595   2.954   1.602   3.884  0.4427 -1.5029 -1.2619
 5368TIP3    H237596   3.047   1.486   3.858  0.9056 -1.7450  1.3178
 5369TIP3   OH237597   2.684   4.244   2.852 -0.2863  0.5160  0.5627
 5369TIP3    H137598   2.680   4.198   2.768 -0.1828 -0.1487  0.9199
 5369TIP3    H237599   2.593   4.244   2.883 -0.0461 -0.8491  1.3077
 5370TIP3   OH237600   4.669   2.434  16.011 -0.0608  0.0460 -0.7253
 5370TIP3    H137601   4.732   2.460  15.944  1.1832 -0.8194  0.0863
 5370TIP3    H237602   4.635   2.350  15.981  0.6071 -0.4123 -0.1903
 5371TIP3   OH237603   5.712   3.255   4.338 -0.2578 -0.3234 -0.6545
 5371TIP3    H137604   5.658   3.329   4.309 -2.7730 -1.9320 -0.2052
 5371TIP3    H237605   5.706   3.257   4.433 -0.6009 -1.3020 -0.6540
 5372TIP3   OH237606   6.231   2.526  12.140 -0.4670 -0.7579  0.1302
 5372TIP3    H137607   6.239   2.517  12.045  1.1062 -1.3216  0.2952
 5372TIP3    H237608   6.175   2.602  12.152 -1.5931 -1.3474 -1.2479
 5373TIP3   OH237609   5.440   3.362  15.621 -0.4808 -0.0120  0.7173
 5373TIP3    H137610   5.482   3.284  15.658  0.2285  0.1759  0.3114
 5373TIP3    H237611   5.452   3.353  15.526  0.1391  0.8873  0.7007
 5374TIP3   OH237612   1.531   6.496  13.745  0.0997  0.0926 -0.0360
 5374TIP3    H137613   1.488   6.536  13.821  1.4107 -2.3609  2.0559
 5374TIP3    H237614   1.625   6.502  13.765  0.4618 -0.5571 -1.4915
 5375TIP3   OH237615   5.685   4.111   5.017 -0.2903  0.6375  0.3945
 5375TIP3    H137616   5.739   4.170   4.964 -0.1329 -0.2493 -0.4419
 5375TIP3    H237617   5.664   4.162   5.095  0.7685  1.4107  0.1910
 5376TIP3   OH237618   4.945   5.968   0.761 -0.0751 -0.3392 -0.4176
 5376TIP3    H137619   5.037   5.942   0.758  0.0919 -0.0002  1.2367
 5376TIP3    H237620   4.947   6.063   0.768 -0.4951 -0.4251  1.1255
 5377TIP3   OH237621   5.043   3.445  15.671  0.1234 -0.2312 -0.2749
 5377TIP3    H137622   5.115   3.412  15.725 -0.0429  0.7787  0.5761
 5377TIP3    H237623   5.035   3.381  15.600  1.8117 -0.4055 -0.3438
 5378TIP3   OH237624   5.914   2.797  12.402 -0.0382 -0.0974 -0.0854
 5378TIP3    H137625   5.841   2.778  12.461  0.3813 -0.8754  0.2014
 5378TIP3    H237626   5.971   2.855  12.453  0.6155 -1.2385  0.5138
 5379TIP3   OH237627   3.398   0.724  14.958 -0.0769 -0.8259 -0.9376
 5379TIP3    H137628   3.451   0.656  14.998 -1.2695 -1.6899 -0.8064
 5379TIP3    H237629   3.459   0.795  14.940  0.7270 -0.9677  1.1518
 5380TIP3   OH237630   5.962   3.243   4.036  0.1603 -0.0571 -0.2362
 5380TIP3    H137631   6.048   3.285   4.033  0.5010 -0.7093  0.2205
 5380TIP3    H237632   5.970   3.167   3.979  0.0181 -0.3580  0.1412
 5381TIP3   OH237633   3.547   6.272  15.202  0.3733 -0.1966  0.2567
 5381TIP3    H137634   3.636   6.289  15.171  0.7471 -1.6079  0.5174
 5381TIP3    H237635   3.548   6.300  15.294  0.7723 -0.8981  0.4718
 5382TIP3   OH237636   5.999   2.967   3.036 -0.7310 -0.0118 -0.4816
 5382TIP3    H137637   6.094   2.976   3.035 -0.6215 -0.6574 -4.2810
 5382TIP3    H237638   5.978   2.940   3.125  2.7042 -0.4461  0.2628
 5383TIP3   OH237639   4.131   1.214  12.147 -0.1627 -0.6092 -0.1940
 5383TIP3    H137640   4.046   1.250  12.170  1.5700  3.6727  0.0452
 5383TIP3    H237641   4.179   1.213  12.230  0.8266 -0.5564 -0.7595
 5384TIP3   OH237642   4.241   5.472  10.365 -0.4385  0.2707 -0.4078
 5384TIP3    H137643   4.276   5.396  10.318 -0.8552  0.7339 -1.4709
 5384TIP3    H237644   4.185   5.434  10.433 -0.2590 -0.3820 -0.6152
 5385TIP3   OH237645   0.133   2.849  12.403 -0.0001  0.3513 -0.3268
 5385TIP3    H137646   0.159   2.834  12.312  0.2073 -1.2433 -0.0223
 5385TIP3    H237647   0.167   2.936  12.424 -0.7318  1.0659 -2.0064
 5386TIP3   OH237648   3.881   2.693  11.232 -0.5416  0.0963  0.4230
 5386TIP3    H137649   3.872   2.750  11.156  0.0741  0.3665  0.5500
 5386TIP3    H237650   3.877   2.604  11.197  0.6281  0.2192 -0.0304
 5387TIP3   OH237651   5.455   0.869   4.236 -0.1046  0.1904  0.4641
 5387TIP3    H137652   5.456   0.812   4.312  0.9651 -1.2748 -0.6221
 5387TIP3    H237653   5.444   0.957   4.272  1.8201 -0.3245  2.4022
 5388TIP3   OH237654   4.585   2.166   1.563  1.0058 -0.2008  0.7459
 5388TIP3    H137655   4.594   2.174   1.658 -1.9636 -1.9333  1.2407
 5388TIP3    H237656   4.608   2.075   1.545 -1.0597 -0.6335  0.1936
 5389TIP3   OH237657   4.775   1.528  13.486 -0.0069  0.0265 -0.8372
 5389TIP3    H137658   4.778   1.473  13.565  0.5256 -0.0581 -0.9170
 5389TIP3    H237659   4.701   1.494  13.436 -1.1534  0.9150  0.2450
 5390TIP3   OH237660   2.103   2.697  14.813 -0.1398  0.6961  0.0153
 5390TIP3    H137661   2.136   2.742  14.734  0.3038 -0.3709 -0.4150
 5390TIP3    H237662   2.182   2.670  14.860 -0.3713  3.2132  1.9480
 5391TIP3   OH237663   0.301   0.438   3.138 -0.6049 -0.3531  0.2303
 5391TIP3    H137664   0.302   0.465   3.047  0.0282 -0.4860  0.1968
 5391TIP3    H237665   0.209   0.425   3.158 -0.5850 -2.5962 -1.0532
 5392TIP3   OH237666   5.981   1.364   1.140  0.0979  0.7126 -0.1947
 5392TIP3    H137667   5.970   1.379   1.046 -1.7902 -0.4463 -0.1859
 5392TIP3    H237668   5.926   1.287   1.158  1.1221  0.4043  1.6934
 5393TIP3   OH237669   0.989   5.738  11.038  0.0537 -0.2774 -0.0193
 5393TIP3    H137670   1.045   5.670  11.076  0.8089  0.6779  0.6022
 5393TIP3    H237671   0.936   5.770  11.112  0.5243  0.6130 -0.0632
 5394TIP3   OH237672   2.436   4.586   5.877 -0.2565  0.7242  0.0321
 5394TIP3    H137673   2.370   4.554   5.938 -1.5726  1.1704 -1.1447
 5394TIP3    H237674   2.468   4.667   5.917 -1.0282  0.9597  0.1804
 5395TIP3   OH237675   0.702   4.009   5.748  0.0646 -0.0805 -0.2306
 5395TIP3    H137676   0.690   4.098   5.779  0.0144  0.2203 -1.1078
 5395TIP3    H237677   0.797   3.999   5.739  0.1759 -0.6535  1.4163
 5396TIP3   OH237678   5.821   3.169   2.719  0.0241  0.0555 -0.0799
 5396TIP3    H137679   5.819   3.079   2.752  1.5669 -0.1412 -0.4553
 5396TIP3    H237680   5.815   3.160   2.624 -1.8724  0.4820 -0.0191
 5397TIP3   OH237681   2.623   3.073  12.807 -0.0258  0.0968  0.3799
 5397TIP3    H137682   2.707   3.119  12.813 -0.7549  1.2307  2.2697
 5397TIP3    H237683   2.599   3.056  12.898 -1.1835 -1.4508 -0.2016
 5398TIP3   OH237684   0.001   6.808   1.518  0.1075 -0.5566 -0.0470
 5398TIP3    H137685  -0.008   6.863   1.596 -1.6696 -2.0009  0.8127
 5398TIP3    H237686   0.048   6.731   1.548  1.2439 -0.2057 -0.8970
 5399TIP3   OH237687   0.582   3.842  12.507 -0.1429  0.2935 -0.8741
 5399TIP3    H137688   0.637   3.920  12.499  1.8144 -1.0633 -0.7838
 5399TIP3    H237689   0.643   3.769  12.511 -1.8977 -1.1453  0.5653
 5400TIP3   OH237690   2.494   1.986   2.077 -0.2310  0.1015  0.7534
 5400TIP3    H137691   2.572   2.038   2.060 -0.2033  0.7601  2.8021
 5400TIP3    H237692   2.527   1.900   2.101 -0.1991 -0.1756 -0.2800
 5401TIP3   OH237693   2.168   4.606   0.063  0.3544 -0.1199 -0.1446
 5401TIP3    H137694   2.171   4.513   0.089 -1.1898  0.0718  0.7737
 5401TIP3    H237695   2.084   4.616   0.018  0.7376  0.7297 -0.6742
 5402TIP3   OH237696   2.912   2.787   4.581  0.1461 -0.0492 -0.1023
 5402TIP3    H137697   2.914   2.731   4.503 -0.7319 -1.2811  0.7381
 5402TIP3    H237698   2.943   2.731   4.652 -0.6449  0.5690  0.7423
 5403TIP3   OH237699   5.493   0.612  16.712 -0.2453  0.2533  0.0722
 5403TIP3    H137700   5.433   0.686  16.716 -0.5729 -0.0608  1.0407
 5403TIP3    H237701   5.480   0.565  16.794  1.3844  0.2313  0.3386
 5404TIP3   OH237702   2.160   2.563  13.158  0.9567  0.3626  0.1326
 5404TIP3    H137703   2.209   2.575  13.077  0.6837  1.3860  0.1054
 5404TIP3    H237704   2.178   2.643  13.208  0.9891 -0.1829  1.0036
 5405TIP3   OH237705   6.401   4.434  12.698  0.0517 -0.1705 -0.3891
 5405TIP3    H137706   6.492   4.428  12.729  0.3584 -1.9897 -1.5641
 5405TIP3    H237707   6.400   4.384  12.616 -2.1475 -0.6815 -0.0858
 5406TIP3   OH237708   1.367   0.324  11.423 -0.0635  0.2932 -0.0076
 5406TIP3    H137709   1.349   0.237  11.387 -0.2196  0.1936  0.3149
 5406TIP3    H237710   1.280   0.363  11.434 -0.1013 -0.2195  1.6395
 5407TIP3   OH237711   2.835   1.798  16.939 -0.4239 -0.9977  0.2180
 5407TIP3    H137712   2.752   1.759  16.914 -0.9107  1.2842 -1.8936
 5407TIP3    H237713   2.813   1.863  17.006 -0.4243 -0.0730 -0.6671
 5408TIP3   OH237714   5.138   6.754  12.418 -0.4783 -0.2083  0.1925
 5408TIP3    H137715   5.100   6.676  12.460 -0.5555 -0.9144 -1.1382
 5408TIP3    H237716   5.072   6.780  12.354  0.7692 -0.7766 -1.3674
 5409TIP3   OH237717   2.211   4.490  11.629  0.3695 -0.2436 -0.6587
 5409TIP3    H137718   2.154   4.421  11.596 -0.0905  0.9651 -2.4692
 5409TIP3    H237719   2.189   4.567  11.576  1.7264  0.9723  0.4901
 5410TIP3   OH237720   4.814   5.291   5.096 -0.2339  0.2958  0.5117
 5410TIP3    H137721   4.720   5.309   5.105 -0.7241 -1.0892 -1.3728
 5410TIP3    H237722   4.818   5.200   5.066  1.8196 -0.3783  2.7138
 5411TIP3   OH237723   2.928   1.556   0.172 -0.2460 -0.0606 -0.0637
 5411TIP3    H137724   2.918   1.607   0.253  1.4534 -1.0758  0.8290
 5411TIP3    H237725   2.891   1.470   0.193  2.8672 -1.2963  0.6876
 5412TIP3   OH237726   5.769   3.445  12.761 -0.8573 -0.1347  0.4789
 5412TIP3    H137727   5.713   3.522  12.748 -0.5340 -0.4296 -3.1548
 5412TIP3    H237728   5.713   3.381  12.803 -2.1860  0.8337  0.2155
 5413TIP3   OH237729   3.242   3.613   2.282  0.9514  1.1742 -0.3496
 5413TIP3    H137730   3.222   3.654   2.199  0.3509  0.7638 -0.4164
 5413TIP3    H237731   3.156   3.595   2.321  1.1504 -1.1923 -0.9135
 5414TIP3   OH237732   4.929   6.666   1.773 -0.5618 -0.4441 -0.1514
 5414TIP3    H137733   4.863   6.631   1.712  0.5417 -0.6923 -1.2319
 5414TIP3    H237734   5.012   6.629   1.742 -0.1251 -1.6719  2.3192
 5415TIP3   OH237735   4.087   5.110  12.207 -0.1625  0.7681 -0.0993
 5415TIP3    H137736   4.119   5.070  12.126 -1.3295  1.2407 -0.8034
 5415TIP3    H237737   4.045   5.039  12.255 -1.1492  0.8885 -0.7843
 5416TIP3   OH237738   6.227   3.532   1.525  0.6422  0.3645  0.0652
 5416TIP3    H137739   6.193   3.473   1.593  0.4499  0.6570  0.2275
 5416TIP3    H237740   6.163   3.526   1.454  0.3067  0.8207  0.3204
 5417TIP3   OH237741   4.862   1.884  13.432 -0.5058 -0.3859  0.7818
 5417TIP3    H137742   4.820   1.952  13.378 -0.5005 -0.9697  0.0394
 5417TIP3    H237743   4.892   1.931  13.510 -1.8300  0.1917  0.9574
 5418TIP3   OH237744   1.800   0.665   2.023  0.6838 -0.5798 -0.4498
 5418TIP3    H137745   1.744   0.727   1.976  1.0878 -1.0147 -1.5195
 5418TIP3    H237746   1.865   0.720   2.067  1.3212 -0.2624 -1.7682
 5419TIP3   OH237747   4.333   0.005  17.267  0.0963  0.1340  0.6167
 5419TIP3    H137748   4.279  -0.024  17.340 -1.4819  0.5994 -0.3505
 5419TIP3    H237749   4.301  -0.044  17.191 -0.7595  2.2871 -0.4801
 5420TIP3   OH237750   6.360   0.898  11.802  0.5029 -0.3045 -0.0956
 5420TIP3    H137751   6.391   0.988  11.794 -1.5817  0.4000 -0.6106
 5420TIP3    H237752   6.356   0.865  11.713  2.0770 -1.2145  0.1545
 5421TIP3   OH237753   4.590   1.978  17.179 -0.0289 -0.0376  0.2599
 5421TIP3    H137754   4.514   2.036  17.170  0.4605  0.7576  1.1389
 5421TIP3    H237755   4.607   1.975  17.273  0.1452 -1.3802  0.1982
 5422TIP3   OH237756   3.047   5.663  15.524  0.0544  0.2610  0.3017
 5422TIP3    H137757   3.102   5.589  15.499  0.5415  1.1470 -1.2766
 5422TIP3    H237758   3.107   5.737  15.529 -0.6777  0.8496  0.4258
 5423TIP3   OH237759   4.824   5.725   2.093 -0.2539 -0.2124  0.3896
 5423TIP3    H137760   4.801   5.650   2.147  0.0356  0.8263  1.9910
 5423TIP3    H237761   4.747   5.741   2.038 -1.4036  0.0924  2.0828
 5424TIP3   OH237762   0.947   2.925   2.693  0.0980 -1.0827 -0.0314
 5424TIP3    H137763   0.921   2.961   2.607  1.6340  1.0836  0.3592
 5424TIP3    H237764   0.888   2.968   2.755  2.1200  1.0916  0.4681
 5425TIP3   OH237765   5.715   2.091  11.242  0.3008  0.1841  0.2414
 5425TIP3    H137766   5.721   2.185  11.224 -0.1152 -0.0849 -1.4158
 5425TIP3    H237767   5.798   2.055  11.212  0.3664 -0.0074  0.6525
 5426TIP3   OH237768   2.613   2.103  16.498 -0.4325 -0.4191  0.4250
 5426TIP3    H137769   2.629   2.052  16.577  0.7768 -1.2585 -0.3500
 5426TIP3    H237770   2.536   2.155  16.519  0.1573 -0.2659  2.3350
 5427TIP3   OH237771   4.211   5.548   1.969 -0.4459  0.2899  0.1919
 5427TIP3    H137772   4.241   5.461   1.995  0.9385  0.6299 -0.2276
 5427TIP3    H237773   4.153   5.532   1.895 -0.6074 -0.3086  0.4431
 5428TIP3   OH237774   3.461   4.009   5.669 -0.3538  0.6346 -0.0875
 5428TIP3    H137775   3.381   4.059   5.681 -0.1318  0.9981 -0.1320
 5428TIP3    H237776   3.430   3.920   5.647 -0.7665  1.4528 -3.1092
 5429TIP3   OH237777   1.533   2.947   2.915  0.0911 -0.1805  0.3591
 5429TIP3    H137778   1.510   2.859   2.943  1.4116 -0.3200  1.0140
 5429TIP3    H237779   1.587   2.982   2.986 -0.3182  1.1203  0.0537
 5430TIP3   OH237780   0.138   5.458   0.356 -0.0311 -0.6947  0.3492
 5430TIP3    H137781   0.155   5.364   0.357  0.4245 -0.6433 -0.8513
 5430TIP3    H237782   0.106   5.475   0.267 -2.1638 -0.0666  1.2082
 5431TIP3   OH237783   4.345   2.077   0.404  0.4044 -0.2892 -0.5060
 5431TIP3    H137784   4.438   2.094   0.417  0.6227  0.8713 -3.2882
 5431TIP3    H237785   4.338   2.048   0.313 -1.8703 -1.0481 -0.1216
 5432TIP3   OH237786   1.474   1.653  14.912 -0.1481  0.9139  0.0902
 5432TIP3    H137787   1.472   1.557  14.910  2.7460  0.8041 -0.9359
 5432TIP3    H237788   1.483   1.674  15.004  0.4366  0.1261  0.2263
 5433TIP3   OH237789   3.001   4.468  16.806 -0.1407 -0.1647  0.6923
 5433TIP3    H137790   3.074   4.435  16.857 -0.2045  3.3521  3.2191
 5433TIP3    H237791   2.931   4.404  16.820  0.5160 -0.3544  3.2610
 5434TIP3   OH237792   1.772   1.652  16.098  0.2079 -0.4032  0.0107
 5434TIP3    H137793   1.811   1.651  16.185  1.7291 -1.7284 -0.6578
 5434TIP3    H237794   1.815   1.723  16.052 -0.0954 -0.1497  0.1162
 5435TIP3   OH237795   1.376   4.308   0.017  0.3518 -0.4091  0.8531
 5435TIP3    H137796   1.460   4.284   0.058  1.2181  0.9981 -0.0577
 5435TIP3    H237797   1.395   4.314  -0.076 -0.4996  0.9567  0.7426
 5436TIP3   OH237798   0.400   3.608  15.328 -0.2746  0.0327 -0.4141
 5436TIP3    H137799   0.464   3.679  15.331  0.0194 -0.2515  0.1943
 5436TIP3    H237800   0.317   3.649  15.350 -0.1959  0.2966 -0.6187
 5437TIP3   OH237801   5.941   4.386   3.276  0.3163 -0.3496  0.5944
 5437TIP3    H137802   5.881   4.449   3.315  1.5064  1.4022 -0.3403
 5437TIP3    H237803   5.915   4.302   3.312 -0.8624  0.7689  2.3974
 5438TIP3   OH237804   2.081   0.758   5.297  0.2711  0.2982 -0.0831
 5438TIP3    H137805   2.176   0.742   5.293  0.4962  1.2705  1.2176
 5438TIP3    H237806   2.059   0.753   5.390 -1.0378 -0.3615 -0.4219
 5439TIP3   OH237807   0.384   5.099  12.301  0.2820 -0.1983  0.2571
 5439TIP3    H137808   0.404   5.118  12.209 -0.7359 -1.1272 -0.1574
 5439TIP3    H237809   0.289   5.095  12.305  0.3022  0.2115  1.4411
 5440TIP3   OH237810   5.539   5.882   3.905  0.5758 -0.7329  0.2179
 5440TIP3    H137811   5.618   5.935   3.899  0.4244 -0.4988  0.2577
 5440TIP3    H237812   5.469   5.941   3.877  0.5998 -1.3945 -1.2663
 5441TIP3   OH237813   1.311   4.173   6.553  0.1470  0.5288  0.3463
 5441TIP3    H137814   1.396   4.177   6.596  0.8819 -0.9118 -0.9213
 5441TIP3    H237815   1.329   4.134   6.467 -1.6905  0.8147 -0.1916
 5442TIP3   OH237816   0.241   1.874   4.536  0.1326 -0.0674  0.2319
 5442TIP3    H137817   0.241   1.800   4.475  0.9183  0.7903 -0.8243
 5442TIP3    H237818   0.334   1.891   4.552 -0.0632  0.0880  1.2060
 5443TIP3   OH237819   4.594   2.094  16.845 -0.3738 -0.4980  0.1381
 5443TIP3    H137820   4.514   2.047  16.822  0.0788 -1.2612  0.1212
 5443TIP3    H237821   4.574   2.135  16.929 -1.1342  0.1652 -0.3498
 5444TIP3   OH237822   3.849   4.885  14.216  0.1731  0.1854 -0.2142
 5444TIP3    H137823   3.793   4.958  14.188  1.2484  0.6219 -1.2413
 5444TIP3    H237824   3.844   4.887  14.312 -3.2219 -1.0808 -0.3001
 5445TIP3   OH237825   3.598   3.955   4.843  0.3188  0.2274 -0.2042
 5445TIP3    H137826   3.644   4.039   4.839 -0.8145  0.9427  1.2885
 5445TIP3    H237827   3.656   3.893   4.798  1.4101  1.6909 -0.8350
 5446TIP3   OH237828   6.478   3.303  12.996 -0.4597 -0.7354 -0.5853
 5446TIP3    H137829   6.453   3.377  12.941  0.6689  0.0599 -0.0577
 5446TIP3    H237830   6.397   3.277  13.039 -1.1734 -0.8276 -1.9831
 5447TIP3   OH237831   3.382   5.633  11.941  0.1775  0.1566  0.4038
 5447TIP3    H137832   3.411   5.707  11.994 -1.0669  0.1028  1.1525
 5447TIP3    H237833   3.460   5.577  11.934  0.8858  1.1129  0.5285
 5448TIP3   OH237834   3.011   5.374   1.971 -0.6859  0.4797 -0.1519
 5448TIP3    H137835   3.021   5.310   2.041  2.4359  1.1889  0.1199
 5448TIP3    H237836   3.029   5.325   1.891 -0.3894  0.5358 -0.1208
 5449TIP3   OH237837   0.823   4.887   2.520 -0.5333  0.0474  0.9956
 5449TIP3    H137838   0.790   4.896   2.610  0.4540  1.9505  1.1812
 5449TIP3    H237839   0.859   4.973   2.499 -2.4654  0.1945 -1.9250
 5450TIP3   OH237840   5.214   2.011   4.278 -0.0811  0.3923 -0.4099
 5450TIP3    H137841   5.214   1.921   4.246 -0.5051  0.8930 -1.8933
 5450TIP3    H237842   5.306   2.029   4.300  0.0638 -0.2766 -0.4678
 5451TIP3   OH237843   5.391   5.990  13.311 -0.5990 -0.1084  0.4178
 5451TIP3    H137844   5.473   6.012  13.355 -0.7426  1.1749  0.0617
 5451TIP3    H237845   5.401   6.025  13.222 -1.9696  1.0896  0.7095
 5452TIP3   OH237846   4.589   6.213   0.850  0.0885 -0.2377  0.0500
 5452TIP3    H137847   4.630   6.153   0.787 -0.9985 -0.1469 -0.7483
 5452TIP3    H237848   4.550   6.281   0.796  0.5708  0.7350  0.9129
 5453TIP3   OH237849   6.594   1.950   1.216 -0.2971 -0.5007  0.4772
 5453TIP3    H137850   6.656   1.970   1.286 -0.7179 -1.0174  0.9996
 5453TIP3    H237851   6.566   1.860   1.233 -2.1516  0.1546  0.9746
 5454TIP3   OH237852   4.774   3.196  13.991  0.0375  0.2650  0.0016
 5454TIP3    H137853   4.779   3.275  13.937  0.9348 -0.1651 -0.5554
 5454TIP3    H237854   4.770   3.124  13.928  1.7101 -0.2812  0.4774
 5455TIP3   OH237855   6.088   4.207  13.552 -0.1778 -0.2174 -0.6154
 5455TIP3    H137856   6.153   4.273  13.577 -1.0830  0.5226 -0.1796
 5455TIP3    H237857   6.016   4.221  13.613 -0.7299 -1.0641 -1.0739
 5456TIP3   OH237858   5.687   1.265  13.851 -0.1321 -0.0335 -0.3146
 5456TIP3    H137859   5.779   1.269  13.875  0.4600 -0.0893 -2.4937
 5456TIP3    H237860   5.641   1.298  13.928  1.7427  0.6437  0.5485
 5457TIP3   OH237861   4.736   0.391  13.805  0.0644  0.4123 -0.3495
 5457TIP3    H137862   4.667   0.457  13.793 -0.0412  0.3020 -0.3527
 5457TIP3    H237863   4.688   0.309  13.817  0.2454 -0.0731 -2.7202
 5458TIP3   OH237864   6.412   5.445   5.508 -0.1136 -0.1957  0.0786
 5458TIP3    H137865   6.325   5.408   5.491  0.3833 -1.6276  0.6408
 5458TIP3    H237866   6.430   5.424   5.599  0.2438  1.3161  0.3678
 5459TIP3   OH237867   6.731   0.717  15.828  0.0733 -0.3339  0.0170
 5459TIP3    H137868   6.742   0.810  15.849 -1.1607 -0.1331 -0.2355
 5459TIP3    H237869   6.727   0.714  15.732  1.0909 -0.7620 -0.0255
 5460TIP3   OH237870   0.932   2.304  11.650 -0.6077  0.0318 -0.5279
 5460TIP3    H137871   0.949   2.278  11.741  1.7522 -1.1293 -1.2401
 5460TIP3    H237872   0.892   2.226  11.611 -0.0808 -0.0609 -0.8866
 5461TIP3   OH237873   0.326   6.166   4.992  0.2368 -0.5868 -0.4743
 5461TIP3    H137874   0.367   6.215   5.063  1.3992 -1.8632 -0.2536
 5461TIP3    H237875   0.371   6.197   4.913 -2.6399  2.5568 -0.9940
 5462TIP3   OH237876   1.826   4.555   6.024  0.0571  0.0663 -0.2388
 5462TIP3    H137877   1.891   4.585   6.087  0.7389  0.5466 -1.1841
 5462TIP3    H237878   1.870   4.487   5.973 -0.0133  0.7874 -1.2547
 5463TIP3   OH237879   0.593   1.613   5.601  0.1778  0.0684  1.1975
 5463TIP3    H137880   0.617   1.668   5.526  1.3139 -0.4392  1.1715
 5463TIP3    H237881   0.535   1.668   5.654  0.2418  0.8165  0.5008
 5464TIP3   OH237882   3.942   2.864   0.199  0.9599 -0.2469  0.3968
 5464TIP3    H137883   3.893   2.910   0.267 -0.0368 -1.5405  0.5790
 5464TIP3    H237884   3.897   2.780   0.190  0.2381  0.3938 -2.7909
 5465TIP3   OH237885   0.195   2.164   0.033  0.3221  0.5562  0.3260
 5465TIP3    H137886   0.269   2.181   0.091  1.5343 -1.7118 -0.5209
 5465TIP3    H237887   0.234   2.142  -0.051 -1.2966 -0.5571 -0.1613
 5466TIP3   OH237888   5.827   1.499  16.637  0.1972  0.1783 -0.2399
 5466TIP3    H137889   5.816   1.519  16.544  0.8698 -2.8235 -1.0085
 5466TIP3    H237890   5.738   1.486  16.670  0.0736 -1.2995 -1.1029
 5467TIP3   OH237891   4.187   6.477   0.406  0.3084  0.6090 -0.3799
 5467TIP3    H137892   4.188   6.570   0.430  0.2630  0.6145 -0.3982
 5467TIP3    H237893   4.260   6.439   0.456 -0.0205  0.5462  0.0514
 5468TIP3   OH237894   3.468   4.748  16.301 -0.2563 -0.6092 -0.1297
 5468TIP3    H137895   3.432   4.749  16.212 -0.1788 -2.1337 -0.1933
 5468TIP3    H237896   3.508   4.834  16.312 -0.5815 -0.2837 -1.4461
 5469TIP3   OH237897   4.423   3.724  15.272 -0.7676  0.1193 -0.6118
 5469TIP3    H137898   4.508   3.683  15.281 -1.5136 -1.2345  0.3737
 5469TIP3    H237899   4.406   3.726  15.177  0.1013 -0.0893 -0.7689
 5470TIP3   OH237900   0.786   3.859   5.248  0.2962  0.6216 -0.2256
 5470TIP3    H137901   0.817   3.814   5.327 -0.3501 -2.2839 -1.5612
 5470TIP3    H237902   0.817   3.805   5.176 -4.9354 -0.6329 -1.7287
 5471TIP3   OH237903   4.361   1.510   0.666  0.5789  0.0639  0.0048
 5471TIP3    H137904   4.436   1.466   0.707  0.5566 -0.1126 -0.1372
 5471TIP3    H237905   4.398   1.550   0.587  0.6436  0.4849  0.2490
 5472TIP3   OH237906   4.981   6.305   4.128 -0.1230 -0.5557  0.0607
 5472TIP3    H137907   4.941   6.285   4.213 -1.1174 -0.8962 -0.4840
 5472TIP3    H237908   4.907   6.323   4.071  0.6207  1.6257 -0.2490
 5473TIP3   OH237909   3.080   4.150   2.829 -0.6554 -0.5245 -0.1748
 5473TIP3    H137910   3.031   4.188   2.756  0.5414 -1.2678 -1.3813
 5473TIP3    H237911   3.061   4.208   2.903 -0.5899  1.1913 -1.4600
 5474TIP3   OH237912   4.792   2.407  14.341 -0.0361  0.1513 -0.1445
 5474TIP3    H137913   4.822   2.400  14.251 -0.8267 -1.4119 -0.3223
 5474TIP3    H237914   4.703   2.441  14.334  0.1025  0.5646  0.0870
 5475TIP3   OH237915   0.008   6.733  12.534 -0.1439 -0.3234  0.1394
 5475TIP3    H137916  -0.048   6.785  12.592 -0.6029 -0.9580  0.2734
 5475TIP3    H237917   0.095   6.772  12.543 -0.6394  0.9451 -0.3966
 5476TIP3   OH237918   0.457   3.181   1.191 -0.0766 -0.0909  0.0234
 5476TIP3    H137919   0.448   3.137   1.107  1.0311  0.5485 -0.4355
 5476TIP3    H237920   0.440   3.113   1.256 -0.6261 -0.6542 -0.7018
 5477TIP3   OH237921   4.442   1.265  11.721  0.2119  0.3744  0.0153
 5477TIP3    H137922   4.430   1.264  11.816  1.2494 -0.1226  0.1434
 5477TIP3    H237923   4.530   1.230  11.707  0.5381  1.5880 -1.0604
 5478TIP3   OH237924   5.766   6.248  12.962  0.7976 -0.0494 -0.7595
 5478TIP3    H137925   5.833   6.228  13.027  1.6872 -0.1270 -1.6962
 5478TIP3    H237926   5.792   6.200  12.884 -0.7669 -0.7079 -0.9010
 5479TIP3   OH237927   0.520   1.495  12.376  0.3701 -0.5227 -0.6754
 5479TIP3    H137928   0.548   1.491  12.285  1.3286  0.1135 -0.4127
 5479TIP3    H237929   0.473   1.413  12.390  1.8320 -1.4649 -1.2107
 5480TIP3   OH237930   0.946   3.917  11.892  0.4402  0.0106 -0.8574
 5480TIP3    H137931   0.861   3.882  11.919  0.9182 -0.0999  0.5738
 5480TIP3    H237932   0.932   4.012  11.886  0.2649  0.0160 -0.4093
 5481TIP3   OH237933   6.339   6.653  13.056 -0.3492  0.1606  0.6162
 5481TIP3    H137934   6.284   6.589  13.101  0.1815  0.5832  1.9002
 5481TIP3    H237935   6.403   6.600  13.008  1.4985 -0.2965  3.4521
 5482TIP3   OH237936   4.594   0.911  12.817 -0.2325 -0.1866 -0.8161
 5482TIP3    H137937   4.553   0.996  12.835  1.4233  0.4099  0.2810
 5482TIP3    H237938   4.545   0.849  12.871 -1.3363  0.0818 -1.4839
 5483TIP3   OH237939   6.642   2.818   1.659 -0.1099  0.1613 -0.3689
 5483TIP3    H137940   6.561   2.819   1.711 -0.0089  0.5196 -0.2203
 5483TIP3    H237941   6.672   2.908   1.659  0.1751  0.0675 -0.6121
 5484TIP3   OH237942   0.054   6.501   3.281 -0.3184  0.5719 -0.5405
 5484TIP3    H137943   0.106   6.526   3.357 -0.9175  1.4218 -0.4070
 5484TIP3    H237944   0.030   6.410   3.297 -2.1368  1.3480  1.2529
 5485TIP3   OH237945   1.857   3.917   0.664 -0.6576  0.7327  0.1083
 5485TIP3    H137946   1.808   3.956   0.736  1.1083 -0.0447  1.7735
 5485TIP3    H237947   1.828   3.826   0.662  0.4740  0.3515  0.8874
 5486TIP3   OH237948   1.012   5.910   2.138  0.3035 -0.2012  0.0055
 5486TIP3    H137949   1.010   6.005   2.150 -0.4077  0.2180 -3.0098
 5486TIP3    H237950   0.920   5.884   2.133  0.5101 -0.8726 -0.4268
 5487TIP3   OH237951   3.705   0.340   4.457  0.1377 -0.2111  0.0192
 5487TIP3    H137952   3.752   0.273   4.408 -1.2673 -0.7929 -0.5568
 5487TIP3    H237953   3.670   0.293   4.533  0.1555  0.1240  0.2339
 5488TIP3   OH237954   5.196   4.456   5.714  0.7178  0.5471 -0.3311
 5488TIP3    H137955   5.208   4.457   5.619  1.4323 -2.0725 -0.3035
 5488TIP3    H237956   5.121   4.399   5.729  0.0471  1.6632  0.6362
 5489TIP3   OH237957   1.033   0.711  12.708 -0.0682  0.4487  0.2975
 5489TIP3    H137958   1.101   0.658  12.665  1.3056  1.5536  1.0903
 5489TIP3    H237959   1.001   0.656  12.779 -1.0957 -0.6762 -0.9911
 5490TIP3   OH237960   1.581   3.406   2.022 -0.4996 -0.8222  0.3017
 5490TIP3    H137961   1.539   3.413   1.936  0.8573 -3.5612 -0.6349
 5490TIP3    H237962   1.556   3.487   2.067 -1.2837  0.6425 -2.6337
 5491TIP3   OH237963   2.025   3.342  12.630  0.6928 -0.2793  0.1546
 5491TIP3    H137964   1.964   3.372  12.562  0.2531 -1.3531  0.0633
 5491TIP3    H237965   2.112   3.363  12.594  0.3950  1.3070  0.3157
 5492TIP3   OH237966   5.485   0.824  11.562  0.5836 -0.0175 -0.6342
 5492TIP3    H137967   5.529   0.892  11.511  1.2301 -0.5786 -0.8427
 5492TIP3    H237968   5.393   0.850  11.562  0.8528  0.9599 -0.5418
 5493TIP3   OH237969   2.465   1.285   3.811 -0.8755  0.6895 -0.9380
 5493TIP3    H137970   2.544   1.326   3.847 -0.8546 -0.9355  0.9911
 5493TIP3    H237971   2.407   1.358   3.792  0.3642  1.8021 -0.5728
 5494TIP3   OH237972   5.773   4.794  17.010 -0.2277 -0.1488  0.1801
 5494TIP3    H137973   5.697   4.853  17.017  0.9095  1.4718 -0.7104
 5494TIP3    H237974   5.849   4.852  17.021  1.0464 -0.7725 -4.3132
 5495TIP3   OH237975   2.964   4.797  13.175  0.3996  0.2270 -0.0427
 5495TIP3    H137976   2.931   4.714  13.210  0.3267 -0.0544 -0.7717
 5495TIP3    H237977   2.940   4.795  13.083  0.2638  1.1311 -0.0319
 5496TIP3   OH237978   3.982   0.890  14.231  0.2437 -0.4882 -0.3117
 5496TIP3    H137979   3.948   0.802  14.214 -1.7557  0.2287 -0.1974
 5496TIP3    H237980   3.925   0.948  14.180 -0.6496  1.0315  2.3264
 5497TIP3   OH237981   1.068   4.258   6.828 -0.3218  0.3558  0.2210
 5497TIP3    H137982   1.063   4.303   6.913 -1.2787  1.4549 -0.4125
 5497TIP3    H237983   1.078   4.328   6.764  0.9158 -0.5106 -0.5489
 5498TIP3   OH237984   5.575   2.606   1.549 -0.1598  0.3493 -0.0628
 5498TIP3    H137985   5.598   2.541   1.616  2.1378 -0.6377 -1.7488
 5498TIP3    H237986   5.549   2.554   1.473 -0.1377  1.4276 -0.8121
 5499TIP3   OH237987   0.354   3.806  15.700  0.1197 -0.1616  0.0341
 5499TIP3    H137988   0.288   3.746  15.735  0.2263  0.3397  1.1165
 5499TIP3    H237989   0.315   3.842  15.620 -1.3070  0.8398  1.1583
 5500TIP3   OH237990   5.117   5.172  14.673 -0.5160 -0.3350  0.1517
 5500TIP3    H137991   5.133   5.082  14.701 -1.0631 -0.1815  0.9918
 5500TIP3    H237992   5.166   5.226  14.736  0.9281 -0.0658 -1.1444
 5501TIP3   OH237993   2.524   5.085   6.130 -0.3000  0.5174 -0.4700
 5501TIP3    H137994   2.442   5.128   6.106  0.6195  2.0081 -0.9469
 5501TIP3    H237995   2.573   5.151   6.178  1.6698  0.4490 -2.3315
 5502TIP3   OH237996   0.747   2.510  14.278  0.8953  0.4905  0.4437
 5502TIP3    H137997   0.799   2.463  14.212  1.0171  0.6549  0.4208
 5502TIP3    H237998   0.656   2.494  14.253  0.9261 -0.1721  0.7422
 5503TIP3   OH237999   6.258   1.157   3.181 -0.0170 -0.0155  0.7039
 5503TIP3    H138000   6.343   1.201   3.182  0.9806 -1.9165  1.6040
 5503TIP3    H238001   6.274   1.073   3.222 -2.1556 -0.7681  0.0634
 5504TIP3   OH238002   1.145   4.705  10.509  0.1705  0.1689 -0.1900
 5504TIP3    H138003   1.066   4.693  10.457  1.1387 -0.3902 -1.5644
 5504TIP3    H238004   1.116   4.751  10.588 -1.3643  0.8066 -1.1170
 5505TIP3   OH238005   1.431   4.184  15.088  0.5827  0.1832 -0.0023
 5505TIP3    H138006   1.491   4.154  15.156 -0.3458  0.1159  0.7999
 5505TIP3    H238007   1.472   4.157  15.006  1.4174 -0.2668  0.5598
 5506TIP3   OH238008   6.338   5.941   0.630  0.0361  0.3017 -0.8646
 5506TIP3    H138009   6.405   5.911   0.691  0.3143  0.7668 -0.9418
 5506TIP3    H238010   6.257   5.943   0.683 -0.1716 -1.4111 -1.0734
 5507TIP3   OH238011   6.217   5.622  11.150  0.1779  0.5133 -0.2676
 5507TIP3    H138012   6.207   5.666  11.066  2.8257  1.5173 -0.0856
 5507TIP3    H238013   6.294   5.566  11.139 -2.4600 -3.3417 -0.1351
 5508TIP3   OH238014   2.041   0.888  14.921 -0.2475  0.1649  0.2822
 5508TIP3    H138015   2.064   0.851  15.007  0.5790  0.4345  0.1798
 5508TIP3    H238016   1.986   0.964  14.942  2.0464  1.7631  0.6939
 5509TIP3   OH238017   0.876   0.514   0.657  0.3372 -0.3113 -0.4856
 5509TIP3    H138018   0.954   0.546   0.612  0.7700  0.7651  0.9806
 5509TIP3    H238019   0.814   0.587   0.652 -0.3289 -0.9183 -1.0614
 5510TIP3   OH238020   4.026   3.113   4.208  0.2466  0.1671  0.7390
 5510TIP3    H138021   4.052   3.203   4.192  1.1008 -0.1849  0.0810
 5510TIP3    H238022   3.961   3.118   4.277 -2.1320  1.5955 -1.5221
 5511TIP3   OH238023   1.402   6.496   1.354 -0.0576 -0.8628 -0.0708
 5511TIP3    H138024   1.340   6.523   1.422  0.0685  1.5396 -0.8880
 5511TIP3    H238025   1.348   6.485   1.276  0.6455  2.5372 -1.1296
 5512TIP3   OH238026   2.802   4.252   5.478 -0.1202  0.4732 -0.0927
 5512TIP3    H138027   2.751   4.332   5.472 -0.2710  0.3717 -0.1674
 5512TIP3    H238028   2.775   4.200   5.402  1.2937  1.1190 -1.0637
 5513TIP3   OH238029   0.189   3.288   0.171 -0.1016 -0.4978 -0.2460
 5513TIP3    H138030   0.223   3.377   0.161 -2.0970  0.2121 -0.7742
 5513TIP3    H238031   0.094   3.297   0.165 -0.4934 -2.2956  2.5737
 5514TIP3   OH238032   2.366   1.049   3.149 -0.1224  0.2840  0.0808
 5514TIP3    H138033   2.320   1.118   3.197 -1.5265  0.4870 -1.4918
 5514TIP3    H238034   2.313   0.970   3.165  1.0082 -0.2707  1.1848
 5515TIP3   OH238035   2.568   5.500  14.615  0.5231  0.7112  0.4268
 5515TIP3    H138036   2.507   5.537  14.679  1.1975  1.3800  0.6933
 5515TIP3    H238037   2.607   5.575  14.572  1.3033  0.2962  0.3946
 5516TIP3   OH238038   3.400   5.268   0.280 -0.5037 -0.0624 -0.3459
 5516TIP3    H138039   3.364   5.309   0.202 -0.2382 -1.8898 -1.4316
 5516TIP3    H238040   3.478   5.222   0.250  0.0036 -0.1966  1.1176
 5517TIP3   OH238041   5.179   6.423  11.947 -0.0643  0.3196 -0.2081
 5517TIP3    H138042   5.142   6.342  11.983 -1.1400  0.4107 -1.0980
 5517TIP3    H238043   5.257   6.439  12.000 -0.3744 -0.7852  0.5973
 5518TIP3   OH238044   0.332   3.601   1.447  0.5683  0.1721 -0.2555
 5518TIP3    H138045   0.347   3.534   1.514  0.0610  0.0761 -0.2366
 5518TIP3    H238046   0.286   3.554   1.377  0.4033  0.4525 -0.3348
 5519TIP3   OH238047   2.656   4.855  15.751 -0.6200 -0.1421 -0.2416
 5519TIP3    H138048   2.660   4.842  15.846 -1.7315 -0.7528 -0.2582
 5519TIP3    H238049   2.721   4.795  15.716  0.9793  1.2889  0.2176
 5520TIP3   OH238050   0.461   1.628   2.548 -0.5103  0.3980 -0.3990
 5520TIP3    H138051   0.414   1.546   2.553  0.6953 -0.3275 -0.7515
 5520TIP3    H238052   0.553   1.604   2.562  0.1921  1.3214 -3.2060
 5521TIP3   OH238053   4.902   6.288   1.801  0.2226  0.3494  0.2656
 5521TIP3    H138054   4.810   6.300   1.777  0.4159  0.7138 -0.2911
 5521TIP3    H238055   4.901   6.216   1.864 -0.4941  0.6437  0.5933
 5522TIP3   OH238056   5.500   0.852   5.889 -0.0494  0.5089  0.6418
 5522TIP3    H138057   5.488   0.929   5.945 -1.3377  2.7964 -2.6106
 5522TIP3    H238058   5.566   0.878   5.825 -0.7451 -0.9613 -0.7205
 5523TIP3   OH238059   2.387   5.148   3.931  0.1658 -0.1747  0.8886
 5523TIP3    H138060   2.415   5.078   3.873  0.2707 -0.2658  1.0475
 5523TIP3    H238061   2.464   5.205   3.939  0.1991 -0.2438  1.0580
 5524TIP3   OH238062   1.679   5.725  12.408 -0.1909 -0.2832 -0.0761
 5524TIP3    H138063   1.616   5.782  12.363  2.4530  2.3897 -0.5885
 5524TIP3    H238064   1.749   5.713  12.344  0.9575 -1.1769  1.3409
 5525TIP3   OH238065   1.348   3.804  14.933 -0.2563 -0.2951 -0.5517
 5525TIP3    H138066   1.407   3.831  15.003 -0.1309 -0.4922 -0.5818
 5525TIP3    H238067   1.274   3.865  14.939 -1.9143 -2.4112  2.0145
 5526TIP3   OH238068   2.146   2.779   0.247  0.5126  0.1712 -0.2585
 5526TIP3    H138069   2.087   2.730   0.303 -0.1023  0.9535 -0.2075
 5526TIP3    H238070   2.223   2.723   0.238  0.7496  0.1666  1.5970
 5527TIP3   OH238071   5.262   5.145   2.157 -0.0534 -0.5557 -0.2101
 5527TIP3    H138072   5.250   5.143   2.062  0.0142 -1.3499 -0.2078
 5527TIP3    H238073   5.209   5.072   2.189  0.2309 -0.5306  0.3265
 5528TIP3   OH238074   4.022   0.246   0.890  0.2757 -0.2118 -0.0015
 5528TIP3    H138075   4.068   0.246   0.974  1.0444  1.6275 -0.4004
 5528TIP3    H238076   4.090   0.266   0.826 -0.6859  0.4055 -0.8361
 5529TIP3   OH238077   2.753   5.791   4.768 -0.2179  0.0907  0.4116
 5529TIP3    H138078   2.834   5.800   4.819  0.4466  1.0423 -0.7895
 5529TIP3    H238079   2.758   5.703   4.731  0.6012  0.3672 -0.1745
 5530TIP3   OH238080   5.888   4.365  13.395 -0.5716  0.2458 -0.5157
 5530TIP3    H138081   5.944   4.348  13.319  2.2069  2.6396  0.8648
 5530TIP3    H238082   5.938   4.331  13.469 -2.2462 -0.1169  0.4612
 5531TIP3   OH238083   2.393   6.149   6.167  0.0151  0.0081  0.3992
 5531TIP3    H138084   2.393   6.142   6.263 -0.4232  0.5506  0.4399
 5531TIP3    H238085   2.398   6.243   6.150  2.8862 -0.1850 -0.1351
 5532TIP3   OH238086   3.960   4.328  16.716 -0.0639 -0.2764  0.5816
 5532TIP3    H138087   3.911   4.274  16.777  0.3955 -0.5060  0.7519
 5532TIP3    H238088   3.894   4.367  16.659 -0.7381  1.8421  2.7002
 5533TIP3   OH238089   4.104   0.378   2.191 -0.0287  0.2143 -0.1205
 5533TIP3    H138090   4.118   0.306   2.130  1.4520  1.3598 -1.1690
 5533TIP3    H238091   4.009   0.393   2.189 -0.0044  0.2602 -2.1812
 5534TIP3   OH238092   0.339   0.049   5.804 -0.2415  0.1634  0.2665
 5534TIP3    H138093   0.336   0.125   5.746 -0.9370  0.3956  0.5917
 5534TIP3    H238094   0.432   0.026   5.810  0.0107  1.1910  0.4125
 5535TIP3   OH238095   2.064   0.749   3.571  0.5471  0.1892 -0.1211
 5535TIP3    H138096   1.973   0.741   3.543  0.3138  0.3883  0.5848
 5535TIP3    H238097   2.101   0.818   3.515  0.6357 -0.8083 -1.3292
 5536TIP3   OH238098   5.201   2.613  14.208 -0.7011  0.2279  0.4270
 5536TIP3    H138099   5.121   2.662  14.189  0.1800  1.5676  0.0625
 5536TIP3    H238100   5.254   2.673  14.260 -0.5922 -1.2369  2.0323
 5537TIP3   OH238101   3.514   5.868   0.747  0.1472 -0.1438 -0.2583
 5537TIP3    H138102   3.537   5.789   0.698  0.3235 -0.0504 -0.3244
 5537TIP3    H238103   3.419   5.872   0.741  0.1635 -0.1696 -0.5346
 5538TIP3   OH238104   3.427   1.406  11.872 -0.6470 -0.3178  0.0589
 5538TIP3    H138105   3.496   1.402  11.937 -0.3063  0.0279 -0.2742
 5538TIP3    H238106   3.471   1.387  11.789 -1.2819 -1.8904  0.0601
 5539TIP3   OH238107   0.485   2.903   1.313 -0.1008 -0.0782  0.6289
 5539TIP3    H138108   0.510   2.868   1.399 -0.2122 -0.8428  0.3508
 5539TIP3    H238109   0.392   2.923   1.321 -0.0788 -0.0127  0.7272
 5540TIP3   OH238110   5.430   2.262   2.244 -0.2878 -0.1564  0.5212
 5540TIP3    H138111   5.479   2.344   2.250 -2.4894  1.2717 -0.4454
 5540TIP3    H238112   5.352   2.277   2.297 -0.9659 -1.4131 -0.1058
 5541TIP3   OH238113   2.248   4.669  16.748 -0.5821  0.6354  0.0779
 5541TIP3    H138114   2.231   4.668  16.842 -0.8501  0.2091  0.0261
 5541TIP3    H238115   2.280   4.581  16.728  0.8861  1.1623  0.0305
 5542TIP3   OH238116   4.203   3.270   4.546  0.0320 -0.2318  0.2007
 5542TIP3    H138117   4.268   3.219   4.498  0.8575 -0.3350  1.4198
 5542TIP3    H238118   4.204   3.356   4.504  2.5867  0.4698  1.6454
 5543TIP3   OH238119   5.828   4.789   0.414  0.3153 -0.0670 -0.2170
 5543TIP3    H138120   5.864   4.786   0.326  1.0003 -1.0303  0.0851
 5543TIP3    H238121   5.902   4.812   0.470  0.3347 -1.4003  0.3301
 5544TIP3   OH238122   0.859   6.243  13.237 -0.2759 -0.3948 -0.1810
 5544TIP3    H138123   0.917   6.224  13.311 -0.8959  0.1068  0.4398
 5544TIP3    H238124   0.853   6.338  13.235 -1.5913 -0.4658  0.1618
 5545TIP3   OH238125   3.222   3.166   2.582 -0.2458 -1.0437 -0.2869
 5545TIP3    H138126   3.137   3.207   2.600 -0.0243 -0.3727 -0.7658
 5545TIP3    H238127   3.234   3.174   2.488 -0.2250 -2.2759 -0.3987
 5546TIP3   OH238128   5.566   6.617  16.008 -0.6987 -0.1509  0.0846
 5546TIP3    H138129   5.592   6.610  15.916 -0.9363  0.2254 -0.0106
 5546TIP3    H238130   5.481   6.574  16.013  0.9266 -3.4862  0.8405
 5547TIP3   OH238131   6.260   5.692   5.597 -0.0111 -0.0313 -0.4500
 5547TIP3    H138132   6.325   5.625   5.575  1.4528  1.3982 -0.5601
 5547TIP3    H238133   6.183   5.668   5.545  0.9489 -0.8512 -1.5370
 5548TIP3   OH238134   1.020   5.110   3.234  0.2445 -0.3466 -0.4501
 5548TIP3    H138135   1.116   5.114   3.233  0.1857  2.9689 -4.1962
 5548TIP3    H238136   0.994   5.184   3.288 -0.2229 -0.4559 -0.5249
 5549TIP3   OH238137   4.522   1.864   4.656 -0.3802 -1.0043  0.1482
 5549TIP3    H138138   4.502   1.787   4.710 -0.0078 -2.3876 -1.6548
 5549TIP3    H238139   4.618   1.864   4.650 -0.3658 -0.2169  0.3960
 5550TIP3   OH238140   0.242   4.594  16.747  0.0832  0.0026 -0.2209
 5550TIP3    H138141   0.310   4.660  16.733  0.2357  0.1494  1.1396
 5550TIP3    H238142   0.235   4.587  16.843 -0.0113 -1.8706 -0.3595
 5551TIP3   OH238143   0.672   4.907  14.279 -0.4252  0.6316 -0.2256
 5551TIP3    H138144   0.725   4.860  14.215 -0.2127 -0.5895  0.8359
 5551TIP3    H238145   0.708   4.996  14.280 -0.3193  0.6076 -1.6558
 5552TIP3   OH238146   4.280   2.806   1.387  0.3207  0.4137  0.0936
 5552TIP3    H138147   4.239   2.857   1.457 -0.1853  0.6169 -0.3475
 5552TIP3    H238148   4.328   2.737   1.433  1.0892  1.3335  0.6986
 5553TIP3   OH238149   6.690   4.164  13.164 -0.0770  0.2748  0.2697
 5553TIP3    H138150   6.666   4.172  13.071 -0.0908 -0.2930  0.2237
 5553TIP3    H238151   6.607   4.171  13.211 -0.1850 -0.4063  0.1836
 5554TIP3   OH238152   3.798   2.058   4.305 -0.2488 -0.2369 -0.0654
 5554TIP3    H138153   3.731   2.077   4.239  1.2273 -1.7562 -2.0423
 5554TIP3    H238154   3.881   2.062   4.256  0.9908  0.1128  2.0296
 5555TIP3   OH238155   4.954   4.257   0.207  0.1637 -0.7783  0.2091
 5555TIP3    H138156   4.923   4.196   0.140 -0.6149  0.6342 -0.7478
 5555TIP3    H238157   4.880   4.315   0.223  1.2232  0.5529  0.3403
 5556TIP3   OH238158   3.614   1.294   6.307  0.0978 -0.3272 -0.3150
 5556TIP3    H138159   3.596   1.201   6.290  1.7555 -0.1115 -3.5125
 5556TIP3    H238160   3.698   1.311   6.264 -0.3881  2.7693 -0.1481
 5557TIP3   OH238161   1.918   5.772  13.685 -0.0358  0.6475 -0.1532
 5557TIP3    H138162   1.835   5.764  13.639 -0.4255 -0.0368  0.6598
 5557TIP3    H238163   1.918   5.700  13.748  0.8627  1.0660  0.3383
 5558TIP3   OH238164   5.996   6.012   1.214 -0.5310 -0.3371 -0.7251
 5558TIP3    H138165   6.012   6.105   1.204  1.1932 -0.4269  0.9224
 5558TIP3    H238166   5.944   6.005   1.294  0.5447 -0.8803 -0.0641
 5559TIP3   OH238167   6.781   5.195  15.929  0.0641  0.0483  0.0874
 5559TIP3    H138168   6.844   5.259  15.897 -0.5232  1.6127  1.9399
 5559TIP3    H238169   6.714   5.190  15.861 -0.4465  2.2610  0.4012
 5560TIP3   OH238170   3.646   5.970   6.528  0.8484  0.2960  0.0308
 5560TIP3    H138171   3.557   5.961   6.562  1.2358 -0.2513  0.9095
 5560TIP3    H238172   3.692   5.892   6.559  1.4416  0.1985 -1.0445
 5561TIP3   OH238173   6.757   6.686  14.868  0.4088 -0.2409 -0.2097
 5561TIP3    H138174   6.791   6.664  14.781 -0.2721  0.1057 -0.5691
 5561TIP3    H238175   6.835   6.698  14.922  0.8151 -1.6171 -0.4867
 5562TIP3   OH238176   1.717   6.483  13.480  0.0080  0.4674 -0.5723
 5562TIP3    H138177   1.784   6.542  13.444  0.8205 -0.7706 -1.1166
 5562TIP3    H238178   1.659   6.541  13.529  1.3262  1.6072 -0.3073
 5563TIP3   OH238179   3.995   1.449   3.168  0.1997  0.4799 -0.3883
 5563TIP3    H138180   4.010   1.480   3.257  1.2017  0.1475 -0.4404
 5563TIP3    H238181   3.996   1.528   3.114 -0.3207  0.6727 -0.1206
 5564TIP3   OH238182   3.252   4.990  15.344 -0.0879 -0.2424  0.0391
 5564TIP3    H138183   3.301   4.933  15.402 -0.9036  1.1631  2.2078
 5564TIP3    H238184   3.311   5.063  15.325 -0.2742 -0.0350  0.2334
 5565TIP3   OH238185   5.206   0.628   0.950 -0.0264  0.4475  0.0836
 5565TIP3    H138186   5.222   0.536   0.932  2.9853  0.2824  3.1749
 5565TIP3    H238187   5.284   0.673   0.917 -1.0027  1.7932 -0.4640
 5566TIP3   OH238188   5.224   6.337  13.033  0.4332 -0.0088  0.2866
 5566TIP3    H138189   5.226   6.360  12.940  1.9464 -0.7283  0.1469
 5566TIP3    H238190   5.192   6.417  13.076 -0.5920  0.2191 -0.8678
 5567TIP3   OH238191   6.499   0.682  12.737 -0.1163 -0.2274  0.1773
 5567TIP3    H138192   6.579   0.657  12.784 -0.4860 -0.7152  0.5545
 5567TIP3    H238193   6.430   0.632  12.779 -0.8489  1.2811  0.8067
 5568TIP3   OH238194   3.592   5.612   5.403  0.3928 -0.8556  0.0508
 5568TIP3    H138195   3.612   5.588   5.493 -0.2391 -0.8114  0.2027
 5568TIP3    H238196   3.497   5.603   5.396  0.3343 -0.0216 -0.3549
 5569TIP3   OH238197   3.758   0.947  11.777 -0.0373  0.4054 -0.2111
 5569TIP3    H138198   3.818   0.944  11.852 -0.4130  0.4886  0.0917
 5569TIP3    H238199   3.768   1.035  11.742 -1.7143  1.2033  1.2596
 5570TIP3   OH238200   1.118   2.233  15.757  0.0537  0.3440  0.2695
 5570TIP3    H138201   1.143   2.141  15.765  0.9530  0.4069 -1.4690
 5570TIP3    H238202   1.024   2.234  15.775  0.1430 -0.8345  0.8229
 5571TIP3   OH238203   2.737   0.699   0.245  0.0370  0.8563  0.3431
 5571TIP3    H138204   2.816   0.677   0.196 -0.4538  0.9288 -0.4888
 5571TIP3    H238205   2.670   0.642   0.208 -0.4254  1.1846  0.6722
 5572TIP3   OH238206   1.355   3.787   3.476  0.0043 -0.5645  0.2019
 5572TIP3    H138207   1.341   3.755   3.565 -2.3217 -0.7388 -0.1978
 5572TIP3    H238208   1.288   3.744   3.424 -0.6724  1.9142 -1.0575
 5573TIP3   OH238209   1.195   1.234   6.413  0.4919  0.6403  0.6034
 5573TIP3    H138210   1.239   1.191   6.486 -2.2411 -1.1246  1.2737
 5573TIP3    H238211   1.157   1.314   6.450  1.8180  1.3988  0.3572
 5574TIP3   OH238212   0.028   4.634   2.187 -0.2449  0.0771  0.0617
 5574TIP3    H138213  -0.008   4.579   2.256 -1.8165  0.0464 -0.7727
 5574TIP3    H238214   0.110   4.590   2.162  1.8978  1.6572  3.9055
 5575TIP3   OH238215   1.755   3.608   4.357 -0.1432 -0.5157  0.0341
 5575TIP3    H138216   1.713   3.534   4.313 -1.3309  0.1662 -0.0025
 5575TIP3    H238217   1.735   3.595   4.450  0.8970 -1.0260  0.1922
 5576TIP3   OH238218   3.927   5.968  10.235  0.3540 -0.0503  0.2103
 5576TIP3    H138219   3.861   5.992  10.300  0.1794 -0.4405  0.1732
 5576TIP3    H238220   3.924   5.873  10.231 -0.9239  0.0619 -1.7104
 5577TIP3   OH238221   0.123   0.892  16.964 -0.0582 -0.5878 -0.0207
 5577TIP3    H138222   0.041   0.928  16.933  0.3629 -0.1323 -0.6174
 5577TIP3    H238223   0.108   0.873  17.057 -1.1071 -1.3421 -0.3346
 5578TIP3   OH238224   6.246   1.177  15.165 -0.2023  0.2962 -0.1208
 5578TIP3    H138225   6.219   1.267  15.181 -2.1559 -0.2920  0.0027
 5578TIP3    H238226   6.164   1.128  15.155  0.6958 -2.1895  3.6028
 5579TIP3   OH238227   0.331   3.997  14.849  0.1095  0.3617 -0.2347
 5579TIP3    H138228   0.240   3.987  14.822 -0.1251 -1.0344  0.9820
 5579TIP3    H238229   0.370   3.911  14.836  1.1879  0.8666 -0.4646
 5580TIP3   OH238230   3.426   2.086   4.622  0.1206 -0.6632 -0.6304
 5580TIP3    H138231   3.460   2.156   4.565 -1.0088  1.3999  1.1206
 5580TIP3    H238232   3.461   2.107   4.708 -2.6708 -0.4621  0.5251
 5581TIP3   OH238233   1.104   5.539  11.192 -0.0143  0.4512  0.1573
 5581TIP3    H138234   1.084   5.465  11.249  3.7912 -0.4868  0.3970
 5581TIP3    H238235   1.141   5.499  11.113  0.6925  2.0519 -0.3383
 5582TIP3   OH238236   1.813   6.223   5.967 -0.4852 -0.1623 -0.1444
 5582TIP3    H138237   1.875   6.180   5.908  0.9944 -0.8309  1.8116
 5582TIP3    H238238   1.854   6.307   5.988 -0.2323 -0.5921  1.1334
 5583TIP3   OH238239   2.050   0.441   0.145 -0.2268  0.2520 -0.8772
 5583TIP3    H138240   2.099   0.457   0.226 -0.0451 -0.2448 -0.8849
 5583TIP3    H238241   2.066   0.348   0.126  1.5312  0.8707 -2.6511
 5584TIP3   OH238242   3.048   1.664  13.495  0.1474 -0.5595  0.7324
 5584TIP3    H138243   3.013   1.716  13.567 -1.3534 -1.8113  0.9505
 5584TIP3    H238244   2.970   1.634  13.447  1.0313 -1.3958 -0.2228
 5585TIP3   OH238245   1.668   6.815   4.726 -0.0822  0.2487  0.2205
 5585TIP3    H138246   1.673   6.875   4.800  1.9018 -1.6542  1.6888
 5585TIP3    H238247   1.634   6.734   4.763 -1.1472 -0.0679 -1.4075
 5586TIP3   OH238248   2.785   1.758   4.640 -0.1862  0.0039 -0.1985
 5586TIP3    H138249   2.847   1.775   4.710 -1.6495  0.4330  1.0094
 5586TIP3    H238250   2.720   1.699   4.679 -1.6548  1.1713 -0.8155
 5587TIP3   OH238251   2.639   0.682  14.979  0.2833  0.6134  0.5349
 5587TIP3    H138252   2.639   0.603  14.927  2.6875  0.9467 -0.0698
 5587TIP3    H238253   2.550   0.690  15.013 -0.6016 -1.0425 -1.3246
 5588TIP3   OH238254   0.907   3.047  14.881 -0.5707 -0.2462 -0.9710
 5588TIP3    H138255   0.816   3.060  14.907  0.2046  3.8541  0.0042
 5588TIP3    H238256   0.902   3.014  14.791 -3.0229 -2.3517 -0.1138
 5589TIP3   OH238257   1.375   4.598   5.818 -0.6407 -0.2050 -0.4037
 5589TIP3    H138258   1.442   4.607   5.886 -2.0471  0.9096  0.8862
 5589TIP3    H238259   1.329   4.682   5.820 -1.3204 -0.5252 -2.0843
 5590TIP3   OH238260   5.392   1.471  12.336 -0.3192 -0.3976  0.5693
 5590TIP3    H138261   5.485   1.493  12.342 -0.0871 -0.9019 -0.7797
 5590TIP3    H238262   5.391   1.392  12.282 -1.5177 -0.5589  0.8232
 5591TIP3   OH238263   1.075   5.747   1.925 -0.0218  0.2606  0.9561
 5591TIP3    H138264   1.060   5.821   1.982  1.2713  0.7713  0.6445
 5591TIP3    H238265   1.152   5.771   1.873 -1.5092  0.0899 -1.4394
 5592TIP3   OH238266   3.874   5.690  11.465 -0.5976 -0.2089  0.3608
 5592TIP3    H138267   3.912   5.777  11.452 -0.7514 -0.3181 -0.8536
 5592TIP3    H238268   3.793   5.691  11.415 -0.0224 -1.4300 -0.6301
 5593TIP3   OH238269   1.330   1.343  12.619  0.3016 -0.4409 -0.4831
 5593TIP3    H138270   1.249   1.362  12.666  0.4185 -0.7837 -0.1436
 5593TIP3    H238271   1.304   1.340  12.527  0.3966  1.9941 -0.6159
 5594TIP3   OH238272   1.925   5.130  10.629 -0.3421 -0.6471 -0.1524
 5594TIP3    H138273   1.841   5.157  10.592  0.3540 -0.7009 -1.8239
 5594TIP3    H238274   1.914   5.036  10.645  0.2234 -1.2287 -2.8232
 5595TIP3   OH238275   2.667   0.125  16.426  0.1419 -0.4392  0.2075
 5595TIP3    H138276   2.702   0.040  16.400  1.3747  0.2698 -0.5090
 5595TIP3    H238277   2.574   0.109  16.442  0.8780 -2.4618  2.6093
 5596TIP3   OH238278   3.180   5.991   2.327  0.0530 -0.1540  0.4890
 5596TIP3    H138279   3.263   6.015   2.368  0.2950  1.0373 -0.6581
 5596TIP3    H238280   3.205   5.957   2.240 -0.5773 -0.8896  0.5919
 5597TIP3   OH238281   2.922   1.190  17.070  0.0508  0.1553  0.3170
 5597TIP3    H138282   2.970   1.246  17.131 -0.2749 -0.0965  0.8074
 5597TIP3    H238283   2.942   1.101  17.098  1.0510  0.0124 -0.8330
 5598TIP3   OH238284   2.202   3.478   5.855  0.4698 -0.8281  0.2916
 5598TIP3    H138285   2.144   3.483   5.931  1.4053 -1.0033  1.0156
 5598TIP3    H238286   2.280   3.527   5.880  0.6348 -0.5726 -0.6918
 5599TIP3   OH238287   4.372   1.292  11.976 -0.6462  0.0293 -0.5505
 5599TIP3    H138288   4.280   1.270  11.993 -0.9031  1.7196  0.3307
 5599TIP3    H238289   4.399   1.342  12.053  0.6216  0.7205 -1.4344
 5600TIP3   OH238290   2.997   2.502   2.599 -0.3195 -0.1725 -0.0552
 5600TIP3    H138291   3.007   2.534   2.510 -1.6767  0.0875 -0.1204
 5600TIP3    H238292   3.026   2.575   2.654 -1.7128  0.5415 -0.2440
 5601TIP3   OH238293   1.404   4.171   6.861 -0.1474 -0.4429  0.1187
 5601TIP3    H138294   1.453   4.212   6.933  2.3517 -1.9942 -0.6532
 5601TIP3    H238295   1.461   4.183   6.784 -0.6947 -2.7921 -0.6825
 5602TIP3   OH238296   4.731   4.749  13.034  0.4091 -0.1643 -0.6757
 5602TIP3    H138297   4.698   4.833  13.001 -2.7816 -0.7536  0.9082
 5602TIP3    H238298   4.663   4.685  13.011  0.2374 -1.3768  2.8812
 5603TIP3   OH238299   2.451   1.526   3.330  0.3251 -0.2036 -0.1380
 5603TIP3    H138300   2.459   1.516   3.235 -0.4937 -2.3266 -0.0104
 5603TIP3    H238301   2.510   1.460   3.366  1.2276  1.1244  0.8438
 5604TIP3   OH238302   2.718   1.318  13.311 -0.1061 -0.7494 -0.8838
 5604TIP3    H138303   2.811   1.331  13.330 -0.0299 -2.1165 -0.2224
 5604TIP3    H238304   2.717   1.248  13.246 -0.7009 -1.4339 -0.1545
 5605TIP3   OH238305   4.767   1.463   0.479  0.0220  0.6592  0.2583
 5605TIP3    H138306   4.754   1.437   0.388  1.2729  3.1687 -0.6945
 5605TIP3    H238307   4.828   1.398   0.514 -0.8825 -0.6268 -0.5262
 5606TIP3   OH238308   3.417   6.099  11.788 -0.4124  0.4055 -0.2227
 5606TIP3    H138309   3.500   6.054  11.801 -0.7433  0.1343  0.9934
 5606TIP3    H238310   3.413   6.116  11.694 -0.0767 -1.6592 -0.6129
 5607TIP3   OH238311   4.205   4.808  13.364 -0.4694  0.3815 -0.1608
 5607TIP3    H138312   4.244   4.751  13.431 -0.7535 -1.2574 -1.3674
 5607TIP3    H238313   4.179   4.748  13.294 -0.3352  2.0716 -1.6712
 5608TIP3   OH238314   1.696   4.840   2.530 -0.5272  0.0351  0.3654
 5608TIP3    H138315   1.787   4.858   2.506 -0.2449 -2.4997 -0.6293
 5608TIP3    H238316   1.650   4.833   2.446 -1.2471 -0.6082  0.8092
 5609TIP3   OH238317   3.777   4.499   4.478 -0.4372  0.2024 -0.3665
 5609TIP3    H138318   3.849   4.535   4.426  3.3038 -1.2928  3.4222
 5609TIP3    H238319   3.786   4.404   4.469 -1.6582 -0.0107  0.5147
 5610TIP3   OH238320   2.582   5.608  16.933  0.0070  0.3758 -0.0716
 5610TIP3    H138321   2.628   5.531  16.902  1.2530  1.0034  0.2045
 5610TIP3    H238322   2.528   5.635  16.858 -0.8142 -1.0410  0.0044
 5611TIP3   OH238323   1.158   5.795  11.783 -0.6382  0.7532 -0.1419
 5611TIP3    H138324   1.107   5.801  11.864  1.0034 -0.6514  1.0310
 5611TIP3    H238325   1.130   5.713  11.743 -0.2651  0.6408 -0.1719
 5612TIP3   OH238326   5.442   1.072   6.042  0.5847 -0.4964  0.1476
 5612TIP3    H138327   5.432   1.164   6.069  0.7100 -0.0642 -1.2619
 5612TIP3    H238328   5.375   1.025   6.091 -1.1511  0.7252 -1.0277
 5613TIP3   OH238329   0.821   1.795   1.436  0.3723 -0.1165 -0.0638
 5613TIP3    H138330   0.760   1.860   1.470  0.1077 -0.0579 -0.6300
 5613TIP3    H238331   0.800   1.790   1.342  1.5042  0.1853 -0.3419
 5614TIP3   OH238332   2.763   5.106  10.528 -0.4970 -0.1528 -0.2777
 5614TIP3    H138333   2.850   5.145  10.530 -0.5676  0.0686 -1.3483
 5614TIP3    H238334   2.705   5.177  10.502 -0.9398 -0.4183 -0.0251
 5615TIP3   OH238335   5.360   2.624  12.139 -0.9313 -0.6235  0.1437
 5615TIP3    H138336   5.314   2.656  12.061 -1.1871 -1.4757 -0.0616
 5615TIP3    H238337   5.364   2.529  12.127 -2.4975 -0.9593  1.9955
 5616TIP3   OH238338   2.783   5.176  14.061 -0.1433  0.2739 -0.0628
 5616TIP3    H138339   2.713   5.118  14.089  1.3466 -0.7390  1.7355
 5616TIP3    H238340   2.748   5.264  14.075 -1.4416 -0.2159 -0.2201
 5617TIP3   OH238341   2.028   3.181   0.109  0.0311  0.2090 -0.4075
 5617TIP3    H138342   2.040   3.155   0.200 -0.4759 -0.4056 -0.5070
 5617TIP3    H238343   2.009   3.099   0.063 -0.4477  0.6064 -0.9366
 5618TIP3   OH238344   1.956   3.622   5.576  0.8046 -0.4717 -0.5875
 5618TIP3    H138345   1.881   3.655   5.527  0.4557  1.2907  1.0847
 5618TIP3    H238346   2.029   3.678   5.549  1.3623 -1.6382 -1.5680
 5619TIP3   OH238347   4.609   3.393  12.614  0.6561 -0.5114 -0.2120
 5619TIP3    H138348   4.692   3.348  12.632  0.4745  0.0344  2.1042
 5619TIP3    H238349   4.542   3.327  12.632  0.5367 -0.6895 -1.2656
 5620TIP3   OH238350   4.002   3.078   5.383  0.2585  0.0777  0.6197
 5620TIP3    H138351   3.910   3.105   5.380 -0.2589 -1.4889  1.6295
 5620TIP3    H238352   4.011   3.013   5.314  0.2694 -0.7002  1.3359
 5621TIP3   OH238353   4.493   2.391   3.567 -0.6228  0.1983  0.1401
 5621TIP3    H138354   4.490   2.319   3.504 -0.3948  0.3137 -0.0001
 5621TIP3    H238355   4.521   2.467   3.516  1.8441 -0.2062  0.8681
 5622TIP3   OH238356   1.601   2.313  11.344  0.0728  0.0119 -0.4689
 5622TIP3    H138357   1.589   2.332  11.437 -1.7818 -0.2363 -0.6277
 5622TIP3    H238358   1.664   2.378  11.313  0.5495  0.2165  0.9191
 5623TIP3   OH238359   1.490   1.157  14.325  0.8735  0.0472  0.1617
 5623TIP3    H138360   1.413   1.167  14.269  1.7183  0.6530 -0.9090
 5623TIP3    H238361   1.491   1.063  14.347  1.0737 -0.3995 -1.6575
 5624TIP3   OH238362   4.090   3.117   3.274  0.4405  0.7347  0.1051
 5624TIP3    H138363   4.072   3.171   3.351 -2.8325 -1.4510  0.9892
 5624TIP3    H238364   4.105   3.029   3.310  1.7557  0.2512 -1.5660
 5625TIP3   OH238365   5.434   6.032  11.355  0.6713  0.0501 -0.3003
 5625TIP3    H138366   5.453   6.026  11.261 -0.1013 -2.1000 -0.3429
 5625TIP3    H238367   5.338   6.030  11.360  0.7305 -0.6694  0.5833
 5626TIP3   OH238368   3.501   2.302   0.666  0.1313  0.3863 -0.1265
 5626TIP3    H138369   3.573   2.319   0.727  0.5335  1.7845 -0.9563
 5626TIP3    H238370   3.433   2.364   0.691 -0.9475 -1.1819  0.8836
 5627TIP3   OH238371   1.804   4.905  13.753  0.4091  0.3027 -0.7454
 5627TIP3    H138372   1.747   4.828  13.763  1.5909 -0.2454  2.1987
 5627TIP3    H238373   1.888   4.869  13.725  0.1062  0.8565 -2.4204
 5628TIP3   OH238374   5.459   4.327  11.130 -0.4166 -0.8058 -0.6604
 5628TIP3    H138375   5.495   4.394  11.072  0.6531  0.3980  1.3208
 5628TIP3    H238376   5.534   4.270  11.150 -1.1135 -2.0829 -1.6136
 5629TIP3   OH238377   2.992   5.286  13.752 -0.3209  0.1026 -0.5283
 5629TIP3    H138378   3.050   5.354  13.717 -0.7734 -0.0360 -1.5842
 5629TIP3    H238379   2.975   5.313  13.842 -1.3007  1.9158 -1.2352
 5630TIP3   OH238380   4.146   1.395   0.784  0.1158 -0.2041 -0.3442
 5630TIP3    H138381   4.226   1.431   0.745 -0.3053 -0.7808 -1.7637
 5630TIP3    H238382   4.075   1.440   0.739 -0.3695  0.0304  0.6480
 5631TIP3   OH238383   1.814   3.179   2.440 -0.0784 -0.4854 -0.1648
 5631TIP3    H138384   1.824   3.223   2.355 -2.9991 -1.7536 -1.2245
 5631TIP3    H238385   1.896   3.129   2.449  0.1352 -0.6406 -2.4446
 5632TIP3   OH238386   4.529   4.555   0.324  0.1687  0.1878  0.5569
 5632TIP3    H138387   4.500   4.592   0.241 -0.9399 -0.3986  0.6735
 5632TIP3    H238388   4.478   4.602   0.390  1.2833  0.8863  0.9384
 5633TIP3   OH238389   6.778   2.207  13.846  0.3912 -0.4636  0.1296
 5633TIP3    H138390   6.714   2.152  13.891  0.7759 -1.1790 -0.1870
 5633TIP3    H238391   6.726   2.280  13.811  0.3057  0.8644  2.9252
 5634TIP3   OH238392   1.513   6.721   1.175  0.2213 -0.8880 -0.0538
 5634TIP3    H138393   1.495   6.657   1.244 -2.7326 -0.0763  0.0190
 5634TIP3    H238394   1.517   6.805   1.220  1.0868 -0.6742 -0.5211
 5635TIP3   OH238395   2.685   1.784  11.308  0.4959  0.1190  0.0330
 5635TIP3    H138396   2.646   1.860  11.266  1.6719  1.3393  1.0910
 5635TIP3    H238397   2.777   1.787  11.282  1.1208  0.5796  2.2105
 5636TIP3   OH238398   3.087   3.889  15.644  0.2791  0.2445  0.1153
 5636TIP3    H138399   3.110   3.975  15.611 -1.2078  1.0427  1.1214
 5636TIP3    H238400   3.070   3.836  15.566  1.3576  0.8044 -0.5049
 5637TIP3   OH238401   1.772   4.814  15.355  0.0035 -0.2806  0.4537
 5637TIP3    H138402   1.753   4.752  15.284  1.7208 -2.8857  2.1902
 5637TIP3    H238403   1.702   4.799  15.418  0.2645 -0.2456  0.7481
 5638TIP3   OH238404   4.026   0.380  12.033  0.3842  0.1206  0.3337
 5638TIP3    H138405   3.986   0.387  11.946  0.0792 -1.5170  0.3223
 5638TIP3    H238406   4.116   0.355  12.015  0.0868 -1.1205  0.4886
 5639TIP3   OH238407   5.325   2.478  11.884  0.5918  0.4993  0.1504
 5639TIP3    H138408   5.303   2.480  11.791 -0.8181  0.7074  0.4810
 5639TIP3    H238409   5.384   2.403  11.892  2.1041  1.5081 -1.1859
 5640TIP3   OH238410   3.362   0.286   0.418  0.4321  0.3199  0.1956
 5640TIP3    H138411   3.291   0.227   0.391  0.9503 -0.5983  0.8173
 5640TIP3    H238412   3.435   0.263   0.360  0.7768  0.0267  0.7392
 5641TIP3   OH238413   0.287   6.646   4.410 -0.4018 -0.2275  0.2105
 5641TIP3    H138414   0.330   6.671   4.491 -0.9951  0.6125  0.2767
 5641TIP3    H238415   0.343   6.578   4.373  0.8268  0.6430  0.4379
 5642TIP3   OH238416   4.863   3.356  12.765 -0.0100 -0.1508  0.1881
 5642TIP3    H138417   4.861   3.447  12.794 -1.9143 -0.3303  0.7309
 5642TIP3    H238418   4.910   3.358  12.682  0.0714  1.3130  0.2514
 5643TIP3   OH238419   3.632   3.423  14.480  0.9628  0.3616  0.3124
 5643TIP3    H138420   3.666   3.470  14.403  0.3085  0.1501 -0.1075
 5643TIP3    H238421   3.650   3.331  14.462  2.1941  0.4453  1.1113
 5644TIP3   OH238422   4.970   6.727  13.437 -0.1162  0.4404  0.3758
 5644TIP3    H138423   5.001   6.752  13.523 -1.1557  2.0359  0.3170
 5644TIP3    H238424   4.928   6.641  13.449  1.2937 -0.1523  1.0879
 5645TIP3   OH238425   1.900   4.391   4.307 -0.1958  0.0061  0.3485
 5645TIP3    H138426   1.912   4.463   4.369 -0.7332  0.2468  0.1706
 5645TIP3    H238427   1.886   4.314   4.363 -0.8082  0.2463  0.5278
 5646TIP3   OH238428   3.756   6.817   6.045 -0.4727  0.6720  0.3673
 5646TIP3    H138429   3.714   6.846   5.964 -0.2779  0.2572  0.1213
 5646TIP3    H238430   3.710   6.866   6.114  0.5164  2.3228 -0.1189
 5647TIP3   OH238431   3.837   0.048  13.237 -0.3518  0.0971  0.0773
 5647TIP3    H138432   3.930   0.047  13.213 -0.1547  0.0937  0.8123
 5647TIP3    H238433   3.791   0.023  13.157  0.2654  0.3519 -0.3635
 5648TIP3   OH238434   4.317   2.761  14.890 -0.0609  0.1930 -0.0777
 5648TIP3    H138435   4.235   2.745  14.936 -0.7641  1.4244 -0.8585
 5648TIP3    H238436   4.373   2.803  14.955 -0.3253  0.0669  0.2340
 5649TIP3   OH238437   2.399   5.765  12.357  0.9033 -0.1220 -0.4222
 5649TIP3    H138438   2.398   5.805  12.270  0.5068  1.5748  0.3215
 5649TIP3    H238439   2.444   5.830  12.412  0.9951 -1.0926  0.6636
 5650TIP3   OH238440   2.233   2.201   0.716 -0.1386 -0.5621 -0.3918
 5650TIP3    H138441   2.295   2.273   0.721 -2.7255  1.6924  0.2760
 5650TIP3    H238442   2.208   2.183   0.806  2.5005 -4.2176 -0.2601
 5651TIP3   OH238443   0.691   3.034  10.604 -0.2649  0.7605  0.8606
 5651TIP3    H138444   0.712   3.116  10.648  1.5535  0.0675  1.3168
 5651TIP3    H238445   0.604   3.011  10.637 -1.4535  3.2453 -0.4108
 5652TIP3   OH238446   1.482   2.558   2.721  0.0619  0.2580 -0.4466
 5652TIP3    H138447   1.404   2.614   2.724 -0.0075  0.1226  0.2582
 5652TIP3    H238448   1.526   2.585   2.640 -1.4189 -0.6128 -1.5825
 5653TIP3   OH238449   0.832   6.187   4.234  0.4007  0.2812 -0.0024
 5653TIP3    H138450   0.842   6.280   4.214 -1.1630  0.5656  0.4343
 5653TIP3    H238451   0.836   6.143   4.149 -2.9668  1.1702 -0.7229
 5654TIP3   OH238452   6.422   4.297  15.838 -0.1989  0.1374  0.2619
 5654TIP3    H138453   6.481   4.251  15.897  1.3239  2.0159  0.2631
 5654TIP3    H238454   6.454   4.277  15.750 -0.6910 -0.2981  0.1753
 5655TIP3   OH238455   5.806   6.474  15.490  0.1967 -0.4949 -0.0519
 5655TIP3    H138456   5.731   6.420  15.514  0.3471 -0.4078  0.6050
 5655TIP3    H238457   5.768   6.553  15.452 -0.0711  0.2926  1.8476
 5656TIP3   OH238458   2.523   6.677  14.497 -0.3635 -0.4839 -0.7096
 5656TIP3    H138459   2.436   6.704  14.469 -0.1430  0.4660 -0.5095
 5656TIP3    H238460   2.540   6.596  14.449 -1.9029 -1.4285  0.2930
 5657TIP3   OH238461   6.083   1.906  12.833  0.4650  0.5462 -0.2336
 5657TIP3    H138462   6.074   1.813  12.851 -1.8781  0.6487 -0.7463
 5657TIP3    H238463   6.131   1.941  12.908  1.7110 -1.1202 -0.2263
 5658TIP3   OH238464   6.805   6.476   1.682  0.2318 -0.2259 -0.4539
 5658TIP3    H138465   6.712   6.482   1.659  0.4575 -0.4123 -1.4698
 5658TIP3    H238466   6.851   6.481   1.597  1.0863 -1.5292 -0.0848
 5659TIP3   OH238467   3.894   6.050  16.352 -0.3094 -1.0691 -0.1231
 5659TIP3    H138468   3.972   5.996  16.364  0.9196  0.2786 -1.7155
 5659TIP3    H238469   3.898   6.114  16.424 -0.7319 -1.8837  0.6356
 5660TIP3   OH238470   0.619   1.800  12.895 -0.1221  0.1562  0.0867
 5660TIP3    H138471   0.676   1.727  12.872 -2.3898 -1.5140 -0.4272
 5660TIP3    H238472   0.596   1.785  12.986 -0.0353  0.6413  0.1934
 5661TIP3   OH238473   2.980   6.106   5.917 -0.1048  0.0208  0.1230
 5661TIP3    H138474   2.981   6.199   5.939  1.2284  0.6285 -2.3222
 5661TIP3    H238475   2.945   6.063   5.995  0.0798  2.4797  1.6076
 5662TIP3   OH238476   0.621   3.720   0.209 -0.1394  0.1865 -0.5081
 5662TIP3    H138477   0.548   3.751   0.155 -0.7710  2.7598  1.7155
 5662TIP3    H238478   0.699   3.756   0.166 -0.4753  0.4788 -0.8772
 5663TIP3   OH238479   0.251   5.947  14.287  0.2853  0.0579  0.4421
 5663TIP3    H138480   0.165   5.915  14.258  0.0940 -0.0967  1.1807
 5663TIP3    H238481   0.309   5.872  14.275  0.0940 -0.1762  0.9701
 5664TIP3   OH238482   5.060   5.089   0.534 -0.2323 -1.1392 -0.1627
 5664TIP3    H138483   5.141   5.085   0.484 -0.1570  0.2467 -0.1726
 5664TIP3    H238484   5.052   5.002   0.574  1.9619 -0.8787  0.9389
 5665TIP3   OH238485   3.182   4.915   5.207  0.5509  0.7375  0.3728
 5665TIP3    H138486   3.197   4.861   5.130 -0.1563  0.1508  0.6456
 5665TIP3    H238487   3.248   4.886   5.270  1.3916  1.4926 -0.1423
 5666TIP3   OH238488   1.894   5.249   5.905 -0.1618 -0.0531  0.9005
 5666TIP3    H138489   1.881   5.234   5.999 -0.3278 -1.9110  0.5965
 5666TIP3    H238490   1.951   5.178   5.877 -0.1805  0.4499 -0.4399
 5667TIP3   OH238491   1.791   0.195   6.241 -0.1671  0.0679  0.5039
 5667TIP3    H138492   1.790   0.185   6.336 -0.4517 -1.2540  0.3844
 5667TIP3    H238493   1.707   0.236   6.220 -1.8489 -3.1711  0.5263
 5668TIP3   OH238494   1.842   2.387  13.701  0.3251  0.5346  0.5037
 5668TIP3    H138495   1.797   2.380  13.617  0.5788  0.8004  0.3482
 5668TIP3    H238496   1.784   2.341  13.762  0.3042  0.0538  0.1263
 5669TIP3   OH238497   0.807   5.655  16.217  0.4854 -0.5239 -0.3892
 5669TIP3    H138498   0.773   5.743  16.235  0.0728 -0.4879 -1.3272
 5669TIP3    H238499   0.756   5.625  16.142  1.3223 -1.1712 -0.6994
 5670TIP3   OH238500   0.146   5.566  16.915  0.4270  0.3297  0.0298
 5670TIP3    H138501   0.178   5.636  16.858 -0.2501  1.2726  0.7863
 5670TIP3    H238502   0.171   5.595  17.003  1.4349 -1.0910  0.2187
 5671TIP3   OH238503   3.131   1.619  12.207  0.3330 -0.2093  0.1455
 5671TIP3    H138504   3.156   1.705  12.241 -0.9821 -0.0871  0.8329
 5671TIP3    H238505   3.210   1.566  12.214  1.0380  0.8282  0.0959
 5672TIP3   OH238506   2.884   4.476  17.199  0.2171  0.1510  0.2119
 5672TIP3    H138507   2.832   4.554  17.222  0.0411 -0.1260  0.7791
 5672TIP3    H238508   2.856   4.454  17.110 -0.8052 -0.1189  0.5880
 5673TIP3   OH238509   4.687   3.600   4.241 -0.1327 -0.0456 -0.1766
 5673TIP3    H138510   4.736   3.669   4.287  0.3434 -0.6350  0.2083
 5673TIP3    H238511   4.750   3.529   4.231  0.4175  0.8457 -3.5964
 5674TIP3   OH238512   1.755   4.106  13.016  0.2814 -0.0113 -0.5033
 5674TIP3    H138513   1.788   4.103  12.926 -0.5008 -0.3423 -0.7832
 5674TIP3    H238514   1.800   4.180  13.056  1.0559 -0.2143 -1.0012
 5675TIP3   OH238515   1.818   3.789  17.064 -0.2287  0.2491 -0.0916
 5675TIP3    H138516   1.833   3.872  17.110 -0.0769  0.6847 -0.9032
 5675TIP3    H238517   1.905   3.759  17.039 -0.3030 -0.0160 -0.0290
 5676TIP3   OH238518   3.786   0.609  11.781  0.2718 -0.9830  0.2158
 5676TIP3    H138519   3.842   0.564  11.718  2.0679  0.6195  0.6159
 5676TIP3    H238520   3.847   0.647  11.844 -1.2461  1.2491  0.3934
 5677TIP3   OH238521   0.761   3.421   2.146  0.5279  0.5333 -0.8230
 5677TIP3    H138522   0.761   3.500   2.093 -0.2550  0.2332 -1.2801
 5677TIP3    H238523   0.672   3.414   2.179  0.7020  0.0703 -0.4404
 5678TIP3   OH238524   5.197   0.455  16.866  0.3781  0.3515 -0.1161
 5678TIP3    H138525   5.270   0.486  16.919  0.3037 -0.8655  0.7058
 5678TIP3    H238526   5.194   0.516  16.792  3.2736 -0.5657 -1.0421
 5679TIP3   OH238527   6.212   4.574  14.382  0.1809 -0.0945  0.1865
 5679TIP3    H138528   6.175   4.657  14.351  0.3664  0.9246  2.5853
 5679TIP3    H238529   6.298   4.598  14.418  0.0521 -1.2409  1.2785
 5680TIP3   OH238530   2.997   2.840  13.321 -0.2417  0.2175  0.4856
 5680TIP3    H138531   3.086   2.813  13.347 -0.1271 -0.4328 -0.5521
 5680TIP3    H238532   2.999   2.935  13.326 -0.0257  0.1250  2.2161
 5681TIP3   OH238533   2.913   5.052   5.392 -0.4838 -0.6872  0.5489
 5681TIP3    H138534   2.832   5.050   5.442 -1.6307 -2.2984 -1.3158
 5681TIP3    H238535   2.926   4.962   5.362  0.8793 -0.0286 -0.9204
 5682TIP3   OH238536   1.475   2.618   0.313 -0.2138  0.3368  0.4842
 5682TIP3    H138537   1.472   2.522   0.313 -0.8450  0.3534 -0.3829
 5682TIP3    H238538   1.497   2.641   0.223 -0.0432  1.0063  0.6995
 5683TIP3   OH238539   6.204   1.818  13.184 -0.0486  0.0827  0.1940
 5683TIP3    H138540   6.289   1.808  13.229 -0.0350 -0.7702  0.0007
 5683TIP3    H238541   6.169   1.900  13.217  0.2699 -0.1984  1.2599
 5684TIP3   OH238542   5.467   2.892   0.557 -0.1799 -0.3356  0.0407
 5684TIP3    H138543   5.412   2.934   0.623 -0.0211 -0.3851  0.2059
 5684TIP3    H238544   5.445   2.937   0.475  1.4416  1.4694  0.5456
 5685TIP3   OH238545   4.555   0.841  14.824 -0.0694  0.1828 -0.4363
 5685TIP3    H138546   4.501   0.906  14.779 -0.6670 -0.1728 -0.2430
 5685TIP3    H238547   4.562   0.874  14.914  0.9412  0.7810 -0.7249
 5686TIP3   OH238548   2.123   1.368   4.477 -0.1854 -0.3658  0.1110
 5686TIP3    H138549   2.031   1.378   4.450 -0.6094 -2.2750  0.7610
 5686TIP3    H238550   2.118   1.348   4.570  0.9418 -0.0856  0.2366
 5687TIP3   OH238551   6.203   5.005   2.643  0.3135  0.2319  0.1339
 5687TIP3    H138552   6.158   5.033   2.564  1.1655  1.5873  0.1115
 5687TIP3    H238553   6.193   4.910   2.644 -3.5843  0.5792  0.7986
 5688TIP3   OH238554   1.131   3.030   5.259  0.5423 -0.4685 -0.2829
 5688TIP3    H138555   1.036   3.014   5.263  0.5518 -0.6127 -0.6319
 5688TIP3    H238556   1.139   3.125   5.265  0.2939 -0.3548 -1.6409
 5689TIP3   OH238557   4.421   2.257   5.939 -1.4452 -0.2294 -0.4246
 5689TIP3    H138558   4.427   2.266   6.034  1.1969  3.9701 -0.8919
 5689TIP3    H238559   4.451   2.167   5.922 -0.3908 -0.4936  2.5477
 5690TIP3   OH238560   4.729   2.187   3.069  0.3219 -0.4416 -0.0184
 5690TIP3    H138561   4.740   2.281   3.084 -1.9576  0.0989 -1.3186
 5690TIP3    H238562   4.778   2.170   2.988  0.8976 -0.4040  0.3246
 5691TIP3   OH238563   4.521   2.191  15.243  0.6316  0.1304 -0.0525
 5691TIP3    H138564   4.595   2.154  15.194  0.8372 -2.0407  1.8209
 5691TIP3    H238565   4.458   2.218  15.175  2.0694 -0.2742 -1.5818
 5692TIP3   OH238566   2.023   5.383  11.203  0.2961 -0.0663  0.1794
 5692TIP3    H138567   1.988   5.294  11.209 -2.3576  0.8014 -1.8873
 5692TIP3    H238568   2.084   5.380  11.128  0.9797 -0.3665  0.7387
 5693TIP3   OH238569   2.950   3.182  17.277 -0.4531  0.2193 -0.0552
 5693TIP3    H138570   3.026   3.135  17.312 -1.6532  0.8404  3.6416
 5693TIP3    H238571   2.883   3.115  17.266 -0.3015  0.1395 -0.5057
 5694TIP3   OH238572   1.325   3.021  16.466  0.4926  0.3583 -0.1368
 5694TIP3    H138573   1.399   3.070  16.500  0.1633  0.5778  0.2699
 5694TIP3    H238574   1.364   2.953  16.412  1.0649 -0.5700  1.4079
 5695TIP3   OH238575   0.012   5.603  15.670  0.0173 -0.0617  0.1455
 5695TIP3    H138576  -0.075   5.614  15.634  0.3668 -3.2333 -1.9207
 5695TIP3    H238577   0.066   5.575  15.596  2.4911  0.5290  1.6357
 5696TIP3   OH238578   0.290   5.158  16.144 -0.3182 -0.1421 -0.0003
 5696TIP3    H138579   0.274   5.223  16.212 -1.9578  1.1341 -1.5678
 5696TIP3    H238580   0.318   5.208  16.068 -1.9691 -1.1932 -1.3556
 5697TIP3   OH238581   2.120   1.991  12.695  0.0877  0.1791  0.1173
 5697TIP3    H138582   2.045   1.945  12.732  0.2666  0.1326  0.4260
 5697TIP3    H238583   2.120   1.967  12.602  0.2874 -0.5936  0.3140
 5698TIP3   OH238584   4.992   3.433  13.811  0.5907  0.5021  0.0946
 5698TIP3    H138585   4.905   3.401  13.836  0.5149  2.2095  2.1285
 5698TIP3    H238586   5.010   3.504  13.872  2.1411  2.2021 -2.2698
 5699TIP3   OH238587   2.978   4.599  15.396 -0.7396 -0.2469  0.1592
 5699TIP3    H138588   2.989   4.547  15.476 -0.4821 -0.6251 -0.1226
 5699TIP3    H238589   3.068   4.613  15.365 -0.8011  0.3923  0.2474
 5700TIP3   OH238590   1.076   1.154  13.382  0.2379  0.7094 -0.2575
 5700TIP3    H138591   1.056   1.110  13.464  1.6183 -0.7962 -0.6956
 5700TIP3    H238592   1.160   1.197  13.397  0.4523  0.5041 -0.8295
 5701TIP3   OH238593   6.523   1.830  13.062 -0.2520  0.1179 -0.1574
 5701TIP3    H138594   6.575   1.756  13.094  0.7408  0.4590 -0.9590
 5701TIP3    H238595   6.485   1.868  13.141 -2.2743 -2.3296  0.1167
 5702TIP3   OH238596   5.320   5.915  14.528 -0.6474  0.7009 -0.4661
 5702TIP3    H138597   5.301   5.821  14.530 -0.2618  0.6022 -1.1543
 5702TIP3    H238598   5.280   5.950  14.607  0.6796 -0.3249  0.6805
 5703TIP3   OH238599   5.136   3.986  14.552 -0.0125 -0.1722 -0.1641
 5703TIP3    H138600   5.066   4.040  14.590 -0.5113 -2.0629  1.6502
 5703TIP3    H238601   5.091   3.930  14.489 -0.2943 -1.8333  1.4553
 5704TIP3   OH238602   1.841   6.170   0.679 -0.1882 -0.5070  0.2956
 5704TIP3    H138603   1.813   6.145   0.591 -0.2955 -0.1583  0.2280
 5704TIP3    H238604   1.761   6.201   0.721 -0.0056  0.0068  0.2738
 5705TIP3   OH238605   3.414   4.076  12.762  0.0421 -0.0772 -0.6413
 5705TIP3    H138606   3.389   3.996  12.716  0.9773 -1.3716  1.0760
 5705TIP3    H238607   3.510   4.072  12.767 -0.0081  0.3113  0.9067
 5706TIP3   OH238608   1.491   4.174   3.737  0.1007  0.1820 -0.2173
 5706TIP3    H138609   1.489   4.246   3.800 -1.1455 -0.7846  0.8830
 5706TIP3    H238610   1.418   4.192   3.677  0.2633  0.2448 -0.3950
 5707TIP3   OH238611   0.589   5.762  13.015 -0.3754 -0.1719  0.1271
 5707TIP3    H138612   0.498   5.789  13.018 -0.4481 -0.4644  0.7606
 5707TIP3    H238613   0.629   5.805  13.091  0.1311  0.3789 -0.4543
 5708TIP3   OH238614   0.533   6.442  13.452  0.2743 -0.3334 -0.1472
 5708TIP3    H138615   0.606   6.449  13.513 -1.1025 -1.0748  1.6393
 5708TIP3    H238616   0.561   6.379  13.386  1.8806  0.6782 -0.4563
 5709TIP3   OH238617   0.936   4.551  14.005 -0.2420 -0.1929 -0.4193
 5709TIP3    H138618   0.886   4.607  13.946  2.6649 -0.2493 -3.1034
 5709TIP3    H238619   0.922   4.463  13.971  0.5420 -0.3447 -0.3524
 5710TIP3   OH238620   0.485   2.567   5.292 -0.2054 -0.4168  0.1016
 5710TIP3    H138621   0.567   2.528   5.259  0.3299  0.9477 -0.2124
 5710TIP3    H238622   0.513   2.622   5.365 -0.9926 -0.7873  0.6868
 5711TIP3   OH238623   4.381   3.158   4.382 -0.3587 -0.2038  0.2785
 5711TIP3    H138624   4.336   3.106   4.316 -0.7626  1.0030 -0.4324
 5711TIP3    H238625   4.445   3.209   4.332  0.0709 -0.0758  0.9595
 5712TIP3   OH238626   1.510   0.305  10.495 -0.1754  0.0925 -0.4561
 5712TIP3    H138627   1.435   0.302  10.553 -0.2521 -0.5205 -0.5804
 5712TIP3    H238628   1.581   0.265  10.546 -0.3326 -0.7821 -0.9022
 5713TIP3   OH238629   2.307   6.664   3.864 -0.0954 -0.3658  0.4064
 5713TIP3    H138630   2.240   6.625   3.809 -0.0251 -0.5662  0.4644
 5713TIP3    H238631   2.350   6.728   3.807 -0.0681 -0.5234  0.2492
 5714TIP3   OH238632   2.711   0.468   3.025  0.5521  0.0969 -0.2027
 5714TIP3    H138633   2.796   0.485   2.986  1.2910 -0.9618  0.9100
 5714TIP3    H238634   2.648   0.505   2.963  1.7139 -1.0992 -2.1494
 5715TIP3   OH238635   2.855   0.487   5.767  0.3182 -0.2979  0.0557
 5715TIP3    H138636   2.869   0.402   5.809 -0.6380 -1.1427 -1.3017
 5715TIP3    H238637   2.857   0.468   5.674 -1.7337  0.8630 -0.2454
 5716TIP3   OH238638   2.653   2.714  14.360 -0.3310 -0.3914 -0.5642
 5716TIP3    H138639   2.640   2.794  14.310 -0.4741 -0.7188 -1.0544
 5716TIP3    H238640   2.712   2.661  14.307 -1.8756 -1.4740 -1.2282
 5717TIP3   OH238641   2.806   0.226   4.469  0.6240  0.0868  0.2575
 5717TIP3    H138642   2.802   0.131   4.457 -0.1269  0.0189  0.9705
 5717TIP3    H238643   2.760   0.261   4.393 -2.1508 -0.2622  1.7004
 5718TIP3   OH238644   3.388   5.207   6.036  0.2227  0.2363  0.4000
 5718TIP3    H138645   3.440   5.280   6.071  1.8549 -1.1377  0.9240
 5718TIP3    H238646   3.425   5.129   6.079 -1.4595 -0.9043 -0.1850
 5719TIP3   OH238647   3.094   2.967   4.786 -0.0484 -0.1032 -0.0046
 5719TIP3    H138648   3.176   3.016   4.791 -1.2850  1.8209  2.5217
 5719TIP3    H238649   3.098   2.922   4.702  1.9346  2.9280 -1.6082
 5720TIP3   OH238650   2.391   2.422  15.908 -0.2328  0.3453 -0.2377
 5720TIP3    H138651   2.475   2.453  15.872  0.1932 -0.8452 -0.3186
 5720TIP3    H238652   2.394   2.327  15.895 -2.0585  0.4010 -1.2013
 5721TIP3   OH238653   5.060   0.482  16.416  0.0559  0.5694  0.1230
 5721TIP3    H138654   5.045   0.472  16.322 -0.8131  2.0007  0.0849
 5721TIP3    H238655   5.107   0.566  16.423  0.4058  0.3025  0.9348
 5722TIP3   OH238656   6.411   3.340  13.883 -0.2395 -0.5335 -0.2135
 5722TIP3    H138657   6.412   3.264  13.825 -0.5520  0.2775 -1.2876
 5722TIP3    H238658   6.323   3.375  13.876  0.0316  0.1901 -0.0554
 5723TIP3   OH238659   2.003   5.581  16.686  0.2430 -0.4299  0.6670
 5723TIP3    H138660   2.028   5.523  16.758  0.0508 -0.5051  0.6726
 5723TIP3    H238661   2.084   5.627  16.664  0.3050 -0.4093  0.9284
 5724TIP3   OH238662   5.917   4.874  16.653 -0.5893  0.5164  0.3533
 5724TIP3    H138663   5.919   4.796  16.598  2.3013  1.2578 -0.6923
 5724TIP3    H238664   5.988   4.862  16.716  0.8991  2.9024 -0.7780
 5725TIP3   OH238665   0.535   1.874   4.260 -0.6393 -0.5538  0.2386
 5725TIP3    H138666   0.446   1.869   4.225 -0.7576 -1.3415  0.6327
 5725TIP3    H238667   0.540   1.801   4.322  0.7778 -1.4723 -0.9278
 5726TIP3   OH238668   4.011   0.216  12.525 -0.2812 -0.2483  0.5445
 5726TIP3    H138669   4.003   0.242  12.433  0.8643 -1.8497 -0.0299
 5726TIP3    H238670   3.935   0.160  12.540 -0.8400  0.5689  0.7729
 5727TIP3   OH238671   2.181   4.454  13.611 -0.3646 -0.1548 -0.0212
 5727TIP3    H138672   2.197   4.492  13.697 -1.7717 -3.1510  1.6388
 5727TIP3    H238673   2.258   4.479  13.559  0.8502  1.0978  2.3064
 5728TIP3   OH238674   2.090   1.009   4.970  0.1876  0.8489 -0.3830
 5728TIP3    H138675   2.113   0.917   4.959  1.1854  0.9467  0.7987
 5728TIP3    H238676   2.047   1.033   4.888  2.0868 -0.0292 -1.6758
 5729TIP3   OH238677   5.566   4.929   3.855 -0.3183  0.3929  0.3159
 5729TIP3    H138678   5.652   4.919   3.896 -0.4330  0.0122  0.4631
 5729TIP3    H238679   5.537   4.839   3.837 -1.2088  0.4657  1.3530
 5730TIP3   OH238680   6.168   4.975   3.288 -0.2524  0.3197  0.1084
 5730TIP3    H138681   6.081   4.949   3.260  0.4373 -1.1238 -0.7323
 5730TIP3    H238682   6.186   4.920   3.365  0.3842 -0.2240 -0.4258
 5731TIP3   OH238683   2.457   5.064  11.695 -0.2302  0.3110 -0.3209
 5731TIP3    H138684   2.407   5.139  11.664 -1.9029 -0.4947  0.3412
 5731TIP3    H238685   2.420   5.043  11.780  0.2295 -1.2384 -0.4736
 5732TIP3   OH238686   5.093   2.133  14.634  0.5560 -0.2360 -0.0325
 5732TIP3    H138687   5.162   2.071  14.656 -0.2245 -1.3815 -0.7880
 5732TIP3    H238688   5.098   2.143  14.539 -1.5754 -1.8764 -0.3665
 5733TIP3   OH238689   6.213   5.384  14.579  0.1904  0.1868  0.5425
 5733TIP3    H138690   6.237   5.345  14.663 -0.5929 -0.6913  0.3647
 5733TIP3    H238691   6.128   5.347  14.559  0.2499  0.6078 -0.5139
 5734TIP3   OH238692   3.922   1.748   0.298  0.3770 -0.1520 -0.4402
 5734TIP3    H138693   3.898   1.808   0.369 -1.2427 -1.3458  0.0351
 5734TIP3    H238694   3.883   1.787   0.220 -0.0620 -0.2129 -0.2503
 5735TIP3   OH238695   2.121   3.048   1.199 -0.0279 -0.1032 -0.1527
 5735TIP3    H138696   2.113   3.106   1.274  1.8671  0.9324 -0.7225
 5735TIP3    H238697   2.159   3.102   1.130 -0.4279 -1.4055 -1.4251
 5736TIP3   OH238698   0.211   3.811  11.290 -0.6948  0.5118  0.7376
 5736TIP3    H138699   0.141   3.823  11.355 -0.4689  0.8122  0.9280
 5736TIP3    H238700   0.290   3.799  11.343 -0.8051 -1.2038  0.5513
 5737TIP3   OH238701   2.346   2.076   6.446 -0.1261  0.2476 -0.0420
 5737TIP3    H138702   2.333   2.112   6.534  0.9354  0.4160  0.0594
 5737TIP3    H238703   2.299   1.992   6.448 -0.5712  0.5027  0.5084
 5738TIP3   OH238704   3.948   1.421  12.603 -0.2257  0.1920  0.8146
 5738TIP3    H138705   3.859   1.441  12.576  0.1182  0.1450 -0.3560
 5738TIP3    H238706   3.993   1.506  12.602  0.7799 -0.3299 -2.4736
 5739TIP3   OH238707   6.684   3.923   5.708 -1.2391  0.1417 -0.3281
 5739TIP3    H138708   6.656   3.962   5.791  3.6900  0.1937  1.4464
 5739TIP3    H238709   6.775   3.949   5.698 -0.7649 -2.5596 -4.1690
 5740TIP3   OH238710   2.602   0.382  16.426 -0.1782 -0.3810 -0.0801
 5740TIP3    H138711   2.645   0.415  16.346  0.6952 -1.7169 -0.1770
 5740TIP3    H238712   2.628   0.290  16.431 -0.1186 -0.2762  1.8211
 5741TIP3   OH238713   4.769   0.238  14.858  0.3941 -0.1661  0.2243
 5741TIP3    H138714   4.807   0.216  14.773 -0.5898  0.9723 -0.5198
 5741TIP3    H238715   4.700   0.301  14.839 -1.4798 -1.7204  1.5950
 5742TIP3   OH238716   5.660   0.547  13.387  1.0858 -0.4200  0.5925
 5742TIP3    H138717   5.682   0.486  13.457  0.9883 -1.3798 -0.2010
 5742TIP3    H238718   5.564   0.541  13.380  0.9426  0.7843  1.3714
 5743TIP3   OH238719   0.760   6.406   2.796  0.5457 -0.3200  0.1061
 5743TIP3    H138720   0.668   6.417   2.822  0.7716  0.0399  0.7756
 5743TIP3    H238721   0.756   6.360   2.712 -0.1804 -2.5772  1.3344
 5744TIP3   OH238722   1.842   0.468  14.454  0.0734  0.3549  0.1228
 5744TIP3    H138723   1.822   0.521  14.531  0.5246 -1.1487  1.3046
 5744TIP3    H238724   1.759   0.428  14.429 -0.2751  1.6076 -0.7936
 5745TIP3   OH238725   1.666   1.898   6.153  0.0008 -0.0188 -0.0596
 5745TIP3    H138726   1.650   1.819   6.101 -0.5322  0.1689 -0.1870
 5745TIP3    H238727   1.680   1.866   6.242  1.0896 -0.3559 -0.3468
 5746TIP3   OH238728   6.129   1.872  14.364  0.2904 -0.2550 -0.0615
 5746TIP3    H138729   6.129   1.912  14.277 -0.3377  2.3356  1.0695
 5746TIP3    H238730   6.185   1.795  14.355 -0.4375 -0.5030 -2.9394
 5747TIP3   OH238731   4.921   5.472   5.282  0.9277 -0.0237  0.0473
 5747TIP3    H138732   4.927   5.554   5.234  3.4755 -0.1440  0.0815
 5747TIP3    H238733   4.867   5.416   5.228  1.5506  0.7309 -1.3851
 5748TIP3   OH238734   6.604   3.860   4.848  0.1239 -0.1507 -0.1155
 5748TIP3    H138735   6.511   3.867   4.829  0.0561  1.1250  0.6609
 5748TIP3    H238736   6.608   3.833   4.940  0.5245  0.9903  0.2089
 5749TIP3   OH238737   4.705   6.068  16.505  0.1618  0.3078 -0.1538
 5749TIP3    H138738   4.610   6.056  16.498  0.1643 -0.4093  0.7744
 5749TIP3    H238739   4.741   6.028  16.426 -0.2234 -0.8166  0.2252
 5750TIP3   OH238740   3.993   5.562   0.836  0.3737  0.2711 -0.0632
 5750TIP3    H138741   3.935   5.634   0.860  0.7290  1.2691 -2.0439
 5750TIP3    H238742   4.067   5.604   0.792  0.2439 -1.3244 -1.9039
 5751TIP3   OH238743   6.803   1.907   6.573  0.3077  0.0285 -0.2895
 5751TIP3    H138744   6.717   1.947   6.559  0.1910 -0.5130 -1.1543
 5751TIP3    H238745   6.841   1.957   6.645 -1.0837 -0.2761  0.6902
 5752TIP3   OH238746   5.786   1.150   0.610 -0.2449  0.0713 -0.1061
 5752TIP3    H138747   5.753   1.079   0.554  1.9824 -1.3105  0.2790
 5752TIP3    H238748   5.804   1.108   0.694 -1.9525  1.7983  1.1792
 5753TIP3   OH238749   4.903   2.559  12.824 -0.2975  0.2720 -0.5739
 5753TIP3    H138750   4.952   2.633  12.789 -1.1204  0.2794 -1.7216
 5753TIP3    H238751   4.924   2.486  12.766  0.5357 -0.4164  0.5737
 5754TIP3   OH238752   0.862   2.696  13.318  0.1557  0.4552 -0.7564
 5754TIP3    H138753   0.832   2.787  13.310  2.5271  1.2952 -0.3866
 5754TIP3    H238754   0.802   2.656  13.381  1.4735  2.8540  2.1191
 5755TIP3   OH238755   2.558   3.583   1.233  0.0863 -0.5097 -0.1101
 5755TIP3    H138756   2.591   3.640   1.163 -1.0116  1.3980  0.8624
 5755TIP3    H238757   2.630   3.579   1.296  0.2187 -0.2774 -0.2417
 5756TIP3   OH238758   6.409   0.051   3.632  0.2624 -0.6279 -0.0190
 5756TIP3    H138759   6.344   0.091   3.691 -0.4729 -2.2121  0.2604
 5756TIP3    H238760   6.397   0.097   3.549 -0.2713  0.0439  0.4259
 5757TIP3   OH238761   1.021   0.830   5.101  0.3206  0.1702 -0.1413
 5757TIP3    H138762   0.935   0.866   5.120  1.0487  1.4599  0.7934
 5757TIP3    H238763   1.030   0.755   5.160 -0.4341 -0.3800 -0.7286
 5758TIP3   OH238764   0.555   0.933   0.542  0.0470  0.2434 -0.5504
 5758TIP3    H138765   0.476   0.953   0.491  0.3788  0.0015 -1.1624
 5758TIP3    H238766   0.531   0.954   0.632 -0.7750  0.0101 -0.7108
 5759TIP3   OH238767   3.080   2.815   1.980 -0.2223  0.0211  0.0476
 5759TIP3    H138768   3.151   2.847   2.035  1.7011 -3.9023  0.0448
 5759TIP3    H238769   3.001   2.826   2.033  0.1451  5.1648 -0.2442
 5760TIP3   OH238770   4.285   3.957   2.037  0.4018  0.4172 -0.2120
 5760TIP3    H138771   4.304   4.050   2.030  0.2405  0.3973 -0.9118
 5760TIP3    H238772   4.308   3.921   1.952 -0.5749  0.0044 -0.3064
 5761TIP3   OH238773   2.284   4.390   3.944  0.0138 -0.8243  0.2856
 5761TIP3    H138774   2.358   4.331   3.955  0.0796 -0.7826  0.0876
 5761TIP3    H238775   2.206   4.335   3.953  0.0875 -1.2063 -1.3293
 5762TIP3   OH238776   6.101   4.075   2.593  0.3055  0.0590 -0.0893
 5762TIP3    H138777   6.191   4.043   2.592 -0.2047 -1.4213  0.2843
 5762TIP3    H238778   6.093   4.125   2.512  1.1127 -0.7915 -0.7152
 5763TIP3   OH238779   0.014   0.763  17.239 -0.7089 -0.0326 -0.3395
 5763TIP3    H138780  -0.056   0.697  17.236 -0.5872 -0.2905  1.8156
 5763TIP3    H238781  -0.014   0.823  17.308  1.4355 -0.4083  0.8761
 5764TIP3   OH238782   3.343   2.364  15.872  0.0977  0.0090 -0.6892
 5764TIP3    H138783   3.249   2.354  15.886  0.0721 -1.5942 -1.9281
 5764TIP3    H238784   3.359   2.458  15.882 -1.1485 -0.0644  2.3064
 5765TIP3   OH238785   0.550   2.129  12.079 -0.2518  0.1065 -0.2418
 5765TIP3    H138786   0.558   2.222  12.062  1.2791  0.0954  0.3519
 5765TIP3    H238787   0.553   2.121  12.175 -2.3082 -0.3916 -0.1871
 5766TIP3   OH238788   4.085   2.442  11.908 -0.2906  0.2080 -0.1263
 5766TIP3    H138789   4.180   2.442  11.922 -0.2948  3.0740  0.3664
 5766TIP3    H238790   4.075   2.453  11.814 -0.1443 -0.3451 -0.2089
 5767TIP3   OH238791   5.973   2.027   1.167  0.1334 -0.0099  0.1396
 5767TIP3    H138792   5.918   2.041   1.090  0.2387 -0.0415  0.0571
 5767TIP3    H238793   5.970   2.110   1.215 -1.8252 -0.7618  1.3390
 5768TIP3   OH238794   6.441   6.418  16.711 -0.6418 -0.1750 -0.0729
 5768TIP3    H138795   6.438   6.479  16.784  1.9622 -0.4587  0.3209
 5768TIP3    H238796   6.399   6.464  16.639  0.5452  1.7757  0.4590
 5769TIP3   OH238797   6.770   2.400   2.579 -0.5141 -0.5769 -0.2472
 5769TIP3    H138798   6.684   2.413   2.619 -0.5041 -1.8776  0.2279
 5769TIP3    H238799   6.751   2.358   2.495 -0.3760 -0.3816 -0.3744
 5770TIP3   OH238800   0.313   5.055  13.418 -0.1326 -0.4782  0.1986
 5770TIP3    H138801   0.315   5.118  13.347  0.3368 -0.0494  0.5845
 5770TIP3    H238802   0.405   5.044  13.443 -0.3839  0.3404  1.5680
 5771TIP3   OH238803   3.771   1.815   5.458  0.0619 -0.0663  0.6322
 5771TIP3    H138804   3.734   1.829   5.371 -0.9183  0.9243  1.1829
 5771TIP3    H238805   3.806   1.726   5.456  2.0729  0.7451 -1.4807
 5772TIP3   OH238806   6.373   3.952  13.309  0.3814  0.3452 -0.4310
 5772TIP3    H138807   6.342   4.037  13.338  0.3701  0.5093 -0.9343
 5772TIP3    H238808   6.378   3.900  13.390  0.6518  0.8990 -0.0885
 5773TIP3   OH238809   6.297   4.461   6.276  0.0665  0.2320  0.3261
 5773TIP3    H138810   6.366   4.439   6.337 -0.7253 -0.5185  0.9667
 5773TIP3    H238811   6.259   4.377   6.250 -0.4151  0.6141 -0.2450
 5774TIP3   OH238812   2.512   3.930   4.929  0.0181  0.0012  0.5262
 5774TIP3    H138813   2.585   3.870   4.946 -0.1552 -0.1286  0.8228
 5774TIP3    H238814   2.477   3.950   5.015  2.4167  3.5313  0.8073
 5775TIP3   OH238815   0.255   1.123  15.751  0.2973  0.1343  0.2059
 5775TIP3    H138816   0.199   1.098  15.825 -0.5001 -1.7686 -0.9967
 5775TIP3    H238817   0.341   1.086  15.772 -0.0137 -0.6933  0.0284
 5776TIP3   OH238818   1.821   5.521  13.278 -0.3271  0.3317 -0.0294
 5776TIP3    H138819   1.912   5.549  13.269 -0.5494  1.0720 -0.0281
 5776TIP3    H238820   1.786   5.523  13.189 -0.5437  0.7742  0.0591
 5777TIP3   OH238821   3.192   5.487  15.407 -0.1627  0.1814  0.3413
 5777TIP3    H138822   3.235   5.549  15.348 -1.2477 -0.2855 -0.9792
 5777TIP3    H238823   3.242   5.405  15.396  0.3920  0.4236  1.0126
 5778TIP3   OH238824   5.551   3.918  13.198 -0.4808  0.1156 -0.4323
 5778TIP3    H138825   5.573   4.006  13.168  0.1053  1.5727  3.8529
 5778TIP3    H238826   5.633   3.871  13.198 -0.3208  0.3948 -0.2006
 5779TIP3   OH238827   1.080   3.472   1.814  0.1008 -0.8807 -1.3197
 5779TIP3    H138828   1.074   3.566   1.796 -1.5894 -0.9530 -1.1990
 5779TIP3    H238829   0.990   3.446   1.836  0.8139 -2.2175  0.1386
 5780TIP3   OH238830   3.504   0.001   0.310 -0.0674 -0.1946  0.4122
 5780TIP3    H138831   3.529   0.091   0.290 -1.5567  0.5728  1.8431
 5780TIP3    H238832   3.496  -0.001   0.406 -0.5763 -1.6940  0.3568
 5781TIP3   OH238833   3.543   1.877  12.787 -0.0856 -0.0835 -0.0734
 5781TIP3    H138834   3.589   1.926  12.719  0.1049 -1.7793 -1.2229
 5781TIP3    H238835   3.460   1.924  12.799 -0.5552 -0.2692 -2.2178
 5782TIP3   OH238836   5.804   5.346   1.780  1.1767  0.3934 -0.2784
 5782TIP3    H138837   5.775   5.319   1.868 -0.4411  0.5530 -0.7346
 5782TIP3    H238838   5.760   5.284   1.721  1.0925  1.1814 -1.0524
 5783TIP3   OH238839   4.400   1.835  12.923 -0.2879  0.3833  0.2212
 5783TIP3    H138840   4.410   1.768  12.992 -2.0565 -1.1771 -0.9646
 5783TIP3    H238841   4.385   1.784  12.843 -1.0325  2.2004 -0.8206
 5784TIP3   OH238842   5.168   5.267  12.871 -0.6399 -0.5972 -0.1457
 5784TIP3    H138843   5.247   5.215  12.879  0.5641  1.2656  0.5240
 5784TIP3    H238844   5.160   5.312  12.956 -0.7076  1.5610 -1.2560
 5785TIP3   OH238845   5.831   2.771   1.561  0.1648  0.5839  0.3018
 5785TIP3    H138846   5.787   2.846   1.521  0.1326 -0.9439 -2.7346
 5785TIP3    H238847   5.763   2.703   1.566  0.9899 -0.2891 -0.1246
 5786TIP3   OH238848   5.046   3.819  16.409  0.4737 -0.2580  0.3517
 5786TIP3    H138849   5.090   3.797  16.327 -0.2770 -1.4828  0.2582
 5786TIP3    H238850   5.100   3.778  16.477  0.9528  0.5358  0.4566
 5787TIP3   OH238851   5.660   4.165  12.376 -0.2755  0.4380  0.3545
 5787TIP3    H138852   5.711   4.241  12.348  0.5979 -0.6058 -0.9173
 5787TIP3    H238853   5.721   4.115  12.430  0.1180 -0.9048 -1.3155
 5788TIP3   OH238854   0.426   4.891  13.138  0.2048  0.6006  0.1604
 5788TIP3    H138855   0.520   4.892  13.122  0.2951  0.0484  0.6445
 5788TIP3    H238856   0.399   4.982  13.129  0.1623  0.3033 -3.6266
 5789TIP3   OH238857   5.630   6.312   0.142  0.3010  0.2175  0.2373
 5789TIP3    H138858   5.719   6.318   0.179 -0.0404 -0.8187  1.2446
 5789TIP3    H238859   5.632   6.372   0.067  1.1345  2.0697  1.6742
 5790TIP3   OH238860   5.699   1.311   4.290  0.0081  0.1037 -0.8045
 5790TIP3    H138861   5.793   1.322   4.275  0.2795  1.1487  1.5251
 5790TIP3    H238862   5.671   1.393   4.331 -1.1977 -1.5221  1.7661
 5791TIP3   OH238863   3.309   1.573  14.851  0.0071 -0.2971  0.0209
 5791TIP3    H138864   3.311   1.516  14.927  1.1534 -1.7566 -1.0596
 5791TIP3    H238865   3.399   1.573  14.819 -0.3015  0.9019 -0.8820
 5792TIP3   OH238866   6.524   5.509   4.357 -0.6912 -0.2667  0.0150
 5792TIP3    H138867   6.549   5.437   4.415 -0.9548 -0.2349  0.1671
 5792TIP3    H238868   6.464   5.470   4.294  1.4865 -0.8555 -1.7471
 5793TIP3   OH238869   4.790   1.646   1.319  0.4531  0.2632  0.5109
 5793TIP3    H138870   4.789   1.614   1.409  3.6559 -1.9608 -0.1498
 5793TIP3    H238871   4.846   1.724   1.322 -0.5729  1.0003  0.6709
 5794TIP3   OH238872   4.416   2.887  13.846  0.2555  0.0744  0.2842
 5794TIP3    H138873   4.355   2.955  13.818 -1.6466 -1.2845  1.0355
 5794TIP3    H238874   4.448   2.917  13.931  0.3368  0.6008  0.0691
 5795TIP3   OH238875   6.123   0.270  16.165  0.4492 -0.4488 -0.2387
 5795TIP3    H138876   6.067   0.287  16.240  0.9717 -1.9764  0.5036
 5795TIP3    H238877   6.146   0.178  16.172 -0.2242 -0.8384 -2.7790
 5796TIP3   OH238878   6.046   4.905   0.507 -0.1609  0.1368  0.1289
 5796TIP3    H138879   6.112   4.848   0.467 -0.5529 -0.1323 -0.1305
 5796TIP3    H238880   6.095   4.984   0.531  0.5620 -0.6549  1.2864
 5797TIP3   OH238881   1.093   6.163   5.825  0.0656  0.0420  0.5401
 5797TIP3    H138882   1.041   6.199   5.897 -0.3703 -0.3565  0.4270
 5797TIP3    H238883   1.028   6.124   5.766  0.4062  0.5090 -0.1496
 5798TIP3   OH238884   2.055   0.783   6.712  0.8075 -0.5300 -0.0914
 5798TIP3    H138885   1.972   0.829   6.699  0.8454 -0.3944  0.1516
 5798TIP3    H238886   2.113   0.848   6.751  0.3949 -1.2068  1.6709
 5799TIP3   OH238887   5.674   2.751  12.974  0.3647  0.2359 -0.0151
 5799TIP3    H138888   5.602   2.771  12.913  0.7788  0.0911 -0.5530
 5799TIP3    H238889   5.714   2.673  12.938 -0.3348 -0.7382  1.2966
 5800TIP3   OH238890   2.303   5.694   4.271  0.6536 -0.2881 -0.3392
 5800TIP3    H138891   2.290   5.691   4.366  0.4063 -1.4873 -0.4033
 5800TIP3    H238892   2.379   5.750   4.260  1.3965 -1.0703  0.6555
 5801TIP3   OH238893   6.038   3.295   5.633 -0.1187  0.0968  0.6401
 5801TIP3    H138894   5.944   3.308   5.647 -0.4147 -0.4386 -0.7222
 5801TIP3    H238895   6.076   3.383   5.642 -0.7800  0.3468  1.0149
 5802TIP3   OH238896   2.432   0.024   6.415 -0.1540  0.8251 -0.2487
 5802TIP3    H138897   2.403   0.111   6.442 -0.1035  0.5061  0.8612
 5802TIP3    H238898   2.512   0.008   6.465 -0.4007 -0.0435 -0.1152
 5803TIP3   OH238899   4.634   3.537  15.389 -0.0201 -0.4715 -0.0690
 5803TIP3    H138900   4.678   3.456  15.417  1.2436  0.1396 -0.2504
 5803TIP3    H238901   4.551   3.537  15.438  0.0617 -1.7670  0.0925
 5804TIP3   OH238902   4.262   1.682   1.336 -0.4266 -0.2900  0.4897
 5804TIP3    H138903   4.174   1.672   1.299 -0.6496 -1.1446  1.2413
 5804TIP3    H238904   4.320   1.658   1.264 -0.7605  1.4527 -0.3915
 5805TIP3   OH238905   3.483   3.772   3.902  0.2157 -0.0601 -0.3149
 5805TIP3    H138906   3.530   3.721   3.837  1.2850 -0.4335  0.7297
 5805TIP3    H238907   3.416   3.712   3.935 -0.3413  0.1369 -1.0760
 5806TIP3   OH238908   5.672   2.912  15.203 -0.0586 -0.4947 -0.3861
 5806TIP3    H138909   5.587   2.952  15.222  0.7545  0.6477  1.0171
 5806TIP3    H238910   5.656   2.818  15.207 -1.6323 -0.3211 -1.9648
 5807TIP3   OH238911   3.327   0.070   5.562  0.3255  0.4110  0.1765
 5807TIP3    H138912   3.336   0.019   5.482 -0.7545  0.5769 -0.0570
 5807TIP3    H238913   3.232   0.074   5.578  0.5379  0.0543  1.6590
 5808TIP3   OH238914   2.266   4.327  10.733 -0.3007  0.0152 -0.4884
 5808TIP3    H138915   2.275   4.408  10.685  1.4867  0.5948  0.7598
 5808TIP3    H238916   2.172   4.310  10.736 -0.6536  1.8531 -1.0460
 5809TIP3   OH238917   3.007   2.236   3.355 -0.4270 -0.0492  0.0929
 5809TIP3    H138918   2.981   2.309   3.411  0.1846 -0.6942  1.2193
 5809TIP3    H238919   3.090   2.264   3.316 -0.6327  0.2160 -0.1573
 5810TIP3   OH238920   4.041   5.019   6.504 -0.2003  0.3728  0.6673
 5810TIP3    H138921   4.048   5.090   6.568  1.2963  3.1323 -2.4258
 5810TIP3    H238922   4.131   4.997   6.483 -0.6029  1.5738 -2.6130
 5811TIP3   OH238923   2.759   5.122   2.600  0.0737 -0.6708 -0.6710
 5811TIP3    H138924   2.722   5.115   2.512  0.8020 -0.2438 -1.0172
 5811TIP3    H238925   2.791   5.212   2.604  1.7532 -1.2600 -0.6459
 5812TIP3   OH238926   1.281   0.120  16.570  0.2717 -0.2223  0.3052
 5812TIP3    H138927   1.364   0.080  16.598 -1.0239 -2.1964  1.4171
 5812TIP3    H238928   1.226   0.047  16.543 -0.6894  1.1778 -1.6911
 5813TIP3   OH238929   4.533   3.414  16.671 -0.2351 -0.0669 -0.0006
 5813TIP3    H138930   4.609   3.379  16.625 -0.4676  0.4886 -0.8201
 5813TIP3    H238931   4.569   3.451  16.751  0.4735  0.8941 -0.7522
 5814TIP3   OH238932   6.408   1.930   4.497  0.2200 -0.5054 -0.3414
 5814TIP3    H138933   6.323   1.886   4.496 -0.2845  0.4193  0.3213
 5814TIP3    H238934   6.397   2.001   4.560  1.7713 -0.9083  0.3972
 5815TIP3   OH238935   0.957   0.445  17.284  0.6236 -0.0500 -0.6210
 5815TIP3    H138936   0.969   0.391  17.206  3.0507  1.3386 -1.2545
 5815TIP3    H238937   0.862   0.460  17.289 -0.0042 -3.5198 -0.9554
 5816TIP3   OH238938   0.396   5.284  13.632  0.1430  0.6458  0.0582
 5816TIP3    H138939   0.353   5.352  13.579 -0.6325 -0.5960 -0.9505
 5816TIP3    H238940   0.441   5.229  13.567 -0.3199 -0.5559  0.7518
 5817TIP3   OH238941   0.035   1.227   1.505  0.3280 -0.3960  0.8659
 5817TIP3    H138942  -0.043   1.256   1.553  0.4589 -0.9020  1.3803
 5817TIP3    H238943   0.103   1.220   1.572  0.8494  0.1644  0.3964
 5818TIP3   OH238944   3.201   2.014  14.411  0.2195 -0.4618  0.0614
 5818TIP3    H138945   3.268   2.057  14.465 -0.4544 -0.9742  1.3294
 5818TIP3    H238946   3.127   2.075  14.413  1.3648  1.1697 -3.1641
 5819TIP3   OH238947   0.123   2.925   4.779  0.0945  0.2741 -0.0773
 5819TIP3    H138948   0.151   2.985   4.711  2.3027 -1.0013 -0.3269
 5819TIP3    H238949   0.079   2.980   4.843  1.5643  2.0653 -0.5717
 5820TIP3   OH238950   4.959   5.693  14.564  0.3789 -0.1904 -0.1078
 5820TIP3    H138951   4.901   5.769  14.564  1.2597  0.4959  1.0261
 5820TIP3    H238952   4.937   5.646  14.645  0.9292 -0.2876 -0.0122
 5821TIP3   OH238953   1.165   6.145  15.293 -0.4421  0.0952 -0.1809
 5821TIP3    H138954   1.150   6.230  15.334  0.5553  0.0206  0.3703
 5821TIP3    H238955   1.243   6.158  15.239  0.4167 -0.7550  0.8218
 5822TIP3   OH238956   1.169   2.980  10.721 -0.9134 -0.2202 -0.4017
 5822TIP3    H138957   1.089   3.010  10.678 -1.7509 -0.4041  1.0179
 5822TIP3    H238958   1.163   2.884  10.717 -1.2088 -0.2398  0.5196
 5823TIP3   OH238959   1.453   2.936   0.459  0.4606 -0.2654  0.1165
 5823TIP3    H138960   1.436   2.842   0.453  0.9455 -0.3914  0.6611
 5823TIP3    H238961   1.442   2.956   0.552 -0.6784  0.4153 -0.1550
 5824TIP3   OH238962   2.156   5.856   0.885 -0.2773 -0.0077  0.3538
 5824TIP3    H138963   2.118   5.769   0.897 -0.2116  0.3507  3.4750
 5824TIP3    H238964   2.080   5.915   0.885 -0.3022 -0.0189 -1.5067
 5825TIP3   OH238965   3.453   2.997  12.787 -0.1411 -0.1120  0.2001
 5825TIP3    H138966   3.428   2.978  12.696 -0.9257  0.1330  0.3572
 5825TIP3    H238967   3.413   2.925  12.837  0.4790 -0.3692  0.3291
 5826TIP3   OH238968   2.629   4.658  13.351  0.3973  0.3692  0.2523
 5826TIP3    H138969   2.594   4.746  13.339 -0.6885 -0.2243 -0.9858
 5826TIP3    H238970   2.692   4.667  13.423 -0.1966  2.0137  0.5793
 5827TIP3   OH238971   0.768   5.999  12.857 -0.2641 -0.1779  0.0338
 5827TIP3    H138972   0.835   6.002  12.789 -1.2774  0.9695 -0.9340
 5827TIP3    H238973   0.808   6.044  12.932  0.1013  0.4015 -0.5008
 5828TIP3   OH238974   0.355   0.996   4.532  0.2816 -0.2543  0.1522
 5828TIP3    H138975   0.285   1.050   4.495 -0.3243 -0.4100  1.0420
 5828TIP3    H238976   0.422   0.994   4.464  0.1354  1.2709 -0.0696
 5829TIP3   OH238977   0.268   2.244  10.973 -0.4225  0.1006  0.1230
 5829TIP3    H138978   0.178   2.277  10.967 -0.9004 -1.3378 -0.9749
 5829TIP3    H238979   0.259   2.157  11.013  0.5848  0.3097  0.8435
 5830TIP3   OH238980   4.991   6.799   5.085  0.3874  0.6651 -0.0203
 5830TIP3    H138981   5.022   6.772   4.998 -0.0826  0.5010 -0.1388
 5830TIP3    H238982   4.912   6.849   5.068 -0.4612 -0.5050  0.3825
 5831TIP3   OH238983   4.184   2.206   6.198 -0.1459 -0.7958 -0.0808
 5831TIP3    H138984   4.274   2.231   6.214 -0.5145 -0.0149  0.7914
 5831TIP3    H238985   4.187   2.111   6.188  0.6169 -0.8967  1.0166
 5832TIP3   OH238986   0.175   2.026   0.810 -0.6752 -0.0998 -0.2763
 5832TIP3    H138987   0.159   1.995   0.899  0.5473 -0.8187 -0.2985
 5832TIP3    H238988   0.099   1.997   0.760 -1.7794  1.0599  0.7080
 5833TIP3   OH238989   6.743   0.538  12.846  0.1838  0.4796  0.7137
 5833TIP3    H138990   6.790   0.455  12.853  1.5474  1.2831  1.3983
 5833TIP3    H238991   6.723   0.562  12.936  1.1031  1.6001  0.6358
 5834TIP3   OH238992   3.785   5.887  13.943 -0.5842  0.6678  0.4822
 5834TIP3    H138993   3.840   5.809  13.940 -1.0074  0.3672  0.5127
 5834TIP3    H238994   3.740   5.889  13.858 -1.6607  0.0841  1.0282
 5835TIP3   OH238995   4.591   2.906   3.358  0.6955  0.0715 -0.2851
 5835TIP3    H138996   4.578   2.826   3.410  1.3664  0.7751  0.9932
 5835TIP3    H238997   4.603   2.975   3.423  0.2761  1.1936 -1.3853
 5836TIP3   OH238998   2.221   5.564  14.676 -0.2030  0.4254 -0.9170
 5836TIP3    H138999   2.229   5.473  14.703  0.1288  1.2275  1.8345
 5836TIP3    H239000   2.137   5.569  14.632 -0.2335 -1.2082 -1.0612
 5837TIP3   OH239001   2.697   2.226   6.396 -0.0342  0.9384 -0.4477
 5837TIP3    H139002   2.604   2.244   6.408 -0.2895 -1.1554  1.0881
 5837TIP3    H239003   2.717   2.257   6.308 -2.4727  0.3421 -1.2387
 5838TIP3   OH239004   5.994   3.700  12.183  0.0388  0.5108 -0.4006
 5838TIP3    H139005   6.050   3.754  12.239 -0.9053  0.9462  0.1245
 5838TIP3    H239006   5.929   3.662  12.242 -0.0642 -0.2082 -0.9678
 5839TIP3   OH239007   3.810   3.616   1.392 -0.4918  0.4025 -1.0472
 5839TIP3    H139008   3.790   3.709   1.403 -0.0716  0.3288  0.5287
 5839TIP3    H239009   3.844   3.608   1.303  1.0944  2.0571 -0.6055
 5840TIP3   OH239010   6.074   1.719  15.931  0.5318 -0.5551  0.1719
 5840TIP3    H139011   6.057   1.655  15.862 -3.1498  1.6480 -1.1026
 5840TIP3    H239012   6.024   1.688  16.006  2.2120 -1.4206  0.9453
 5841TIP3   OH239013   5.377   5.905   0.729  0.2771  0.4165  0.6837
 5841TIP3    H139014   5.416   5.842   0.669 -0.9898 -1.5971  1.9274
 5841TIP3    H239015   5.297   5.934   0.685  1.2623  1.8100 -0.2442
 5842TIP3   OH239016   1.247   4.633  15.173  0.7772  0.1576 -0.5729
 5842TIP3    H139017   1.257   4.599  15.085 -3.8842  1.3396 -1.7027
 5842TIP3    H239018   1.203   4.563  15.222 -1.9044  1.6183 -0.8244
 5843TIP3   OH239019   2.106   4.112  16.307  0.2343 -0.3562 -0.6214
 5843TIP3    H139020   2.134   4.098  16.397 -2.5648 -1.8813  0.0744
 5843TIP3    H239021   2.182   4.151  16.264  2.3099 -1.4924  1.8704
 5844TIP3   OH239022   6.134   0.576  13.639 -0.1650  0.0738 -0.5530
 5844TIP3    H139023   6.136   0.482  13.623  0.0738  0.3078 -1.9734
 5844TIP3    H239024   6.051   0.605  13.600 -1.2575  0.1458  1.7497
 5845TIP3   OH239025   2.550   1.600   4.730  0.3583 -0.4808  0.7976
 5845TIP3    H139026   2.479   1.572   4.788 -0.0441  0.5763  0.8219
 5845TIP3    H239027   2.554   1.532   4.662 -2.1907  0.6010 -0.4836
 5846TIP3   OH239028   4.455   3.461  17.197  0.9337 -0.7612  0.1064
 5846TIP3    H139029   4.387   3.460  17.129 -1.5206 -1.6459  2.4916
 5846TIP3    H239030   4.533   3.430  17.152 -0.3185 -0.2341 -2.6023
 5847TIP3   OH239031   5.083   3.480   5.449 -0.2236  0.0508 -0.4995
 5847TIP3    H139032   5.155   3.540   5.431 -1.1605  0.8216 -1.7934
 5847TIP3    H239033   5.004   3.533   5.438 -0.9911 -0.7315  1.0644
 5848TIP3   OH239034   2.168   4.135   2.304  0.3880  0.0614  0.1639
 5848TIP3    H139035   2.148   4.172   2.390  0.0392 -0.3394  0.2549
 5848TIP3    H239036   2.180   4.042   2.320 -1.1452 -0.2579 -0.4455
 5849TIP3   OH239037   1.389   6.289  11.721 -0.2895 -0.1035  0.1073
 5849TIP3    H139038   1.401   6.194  11.722 -0.2597 -0.0905  1.3110
 5849TIP3    H239039   1.475   6.325  11.742 -0.6718  0.1531  1.2462
 5850TIP3   OH239040   6.627   4.976  16.624 -0.3290 -0.2699 -0.6680
 5850TIP3    H139041   6.688   4.973  16.550 -0.8197 -1.7938 -1.0359
 5850TIP3    H239042   6.656   4.906  16.682 -0.0777  0.7871  0.5001
 5851TIP3   OH239043   5.172   0.941   5.395  0.1849  0.5593  0.1326
 5851TIP3    H139044   5.208   0.936   5.307  0.6938  2.0842  0.2432
 5851TIP3    H239045   5.179   0.851   5.429 -1.7854 -0.4580 -2.0459
 5852TIP3   OH239046   2.071   4.465  14.137  0.4633  0.5433  0.1649
 5852TIP3    H139047   2.047   4.386  14.185 -2.4682  1.3443  0.1145
 5852TIP3    H239048   2.075   4.533  14.204  1.4309  0.6736 -0.0173
 5853TIP3   OH239049   2.749   5.638   2.675 -0.4635 -0.5306  0.2857
 5853TIP3    H139050   2.680   5.620   2.612 -0.9697 -1.2448  1.0383
 5853TIP3    H239051   2.820   5.577   2.651  0.1283  0.5684 -0.8148
 5854TIP3   OH239052   1.566   4.346   3.927  0.0715  0.4423 -0.6518
 5854TIP3    H139053   1.494   4.386   3.974  0.2754  0.3636 -0.2673
 5854TIP3    H239054   1.644   4.371   3.976  0.0689 -1.7006  0.4990
 5855TIP3   OH239055   3.307   5.666   5.304 -0.1083  0.1218  0.0321
 5855TIP3    H139056   3.296   5.572   5.311  0.7543 -0.0497 -0.9666
 5855TIP3    H239057   3.288   5.699   5.393  0.1723 -1.0344  0.5219
 5856TIP3   OH239058   4.953   6.708   2.958  0.1598 -0.1100 -0.4501
 5856TIP3    H139059   5.005   6.763   3.016 -0.2372 -1.0495  0.8180
 5856TIP3    H239060   5.017   6.659   2.906  0.5269 -0.2948  0.1846
 5857TIP3   OH239061   3.012   3.597   2.442  0.2841  0.2825  0.4488
 5857TIP3    H139062   3.029   3.540   2.517 -1.3691  0.0727  0.6929
 5857TIP3    H239063   2.935   3.558   2.399 -1.4496  2.7858  1.1264
 5858TIP3   OH239064   3.632   0.127   3.834  0.1725  0.2934  0.0299
 5858TIP3    H139065   3.543   0.097   3.814  0.9557 -2.8904  1.0550
 5858TIP3    H239066   3.620   0.208   3.883 -2.2538 -0.9169  1.5317
 5859TIP3   OH239067   6.424   1.314   3.936 -0.3301 -0.2193  0.1306
 5859TIP3    H139068   6.469   1.391   3.900  0.1600 -0.2900  0.6041
 5859TIP3    H239069   6.416   1.254   3.861  0.6137 -0.3299  0.1212
 5860TIP3   OH239070   0.603   6.707   5.730  0.1948 -0.1341 -0.3503
 5860TIP3    H139071   0.678   6.763   5.712 -2.0230  2.4497 -1.9183
 5860TIP3    H239072   0.596   6.650   5.654 -0.1823  0.4951 -0.7895
 5861TIP3   OH239073   6.588   4.291  12.936 -0.1414  0.5068 -0.1642
 5861TIP3    H139074   6.508   4.239  12.925 -1.3090  1.8324  1.7582
 5861TIP3    H239075   6.620   4.304  12.846 -1.0311 -1.6303 -0.8174
 5862TIP3   OH239076   5.853   4.080   2.718 -0.2019 -0.1788 -0.1670
 5862TIP3    H139077   5.937   4.082   2.673 -0.2128  1.1223 -0.1360
 5862TIP3    H239078   5.807   4.005   2.680 -0.7067  1.5816 -3.2309
 5863TIP3   OH239079   4.340   0.871  17.038  0.4739 -0.5270  0.1181
 5863TIP3    H139080   4.331   0.964  17.019 -0.0738 -0.5046  0.4783
 5863TIP3    H239081   4.413   0.842  16.984  1.0162  0.2389  0.4361
 5864TIP3   OH239082   0.619   2.427  10.960 -0.0328 -0.0503 -0.5216
 5864TIP3    H139083   0.609   2.404  10.867 -0.3553 -1.3833 -0.1687
 5864TIP3    H239084   0.711   2.450  10.970  0.1435 -0.5382 -1.0345
 5865TIP3   OH239085   3.055   4.457   4.320 -0.3847  0.0737 -0.3524
 5865TIP3    H139086   2.961   4.466   4.334 -0.4224  0.2656 -0.7532
 5865TIP3    H239087   3.093   4.539   4.351 -0.3951  0.1971 -0.6696
 5866TIP3   OH239088   4.853   5.129  14.716  0.2284  0.5048 -0.1298
 5866TIP3    H139089   4.806   5.163  14.792 -1.1962  1.1905 -1.2888
 5866TIP3    H239090   4.944   5.156  14.729 -0.7748  4.4629 -0.8091
 5867TIP3   OH239091   5.227   6.344   5.552  0.3774  1.2503 -0.3205
 5867TIP3    H139092   5.244   6.317   5.642  1.4557 -1.0567 -1.1883
 5867TIP3    H239093   5.134   6.328   5.539  0.9423 -2.0685 -0.7514
 5868TIP3   OH239094   0.564   6.324   3.102  0.1205  0.2368 -0.6583
 5868TIP3    H139095   0.542   6.377   3.179 -0.2097 -2.1093  0.8904
 5868TIP3    H239096   0.480   6.311   3.058  0.1046  0.5014 -0.7049
 5869TIP3   OH239097   5.432   6.199  16.987 -0.0278 -0.0528  0.1041
 5869TIP3    H139098   5.522   6.165  16.983 -0.1594 -0.5727  1.2667
 5869TIP3    H239099   5.410   6.196  17.080 -0.9636  0.8402 -0.0889
 5870TIP3   OH239100   4.976   6.120  11.827  0.1167  0.2477  0.1491
 5870TIP3    H139101   5.031   6.113  11.749  0.1517 -3.6908  0.4259
 5870TIP3    H239102   4.911   6.187  11.804  1.4532  0.7666 -2.3706
 5871TIP3   OH239103   0.311   6.252   4.279 -0.0602  0.3118  0.0027
 5871TIP3    H139104   0.233   6.298   4.309  0.5318  0.4678  1.3715
 5871TIP3    H239105   0.277   6.181   4.224 -1.0925  1.0444 -0.3225
 5872TIP3   OH239106   1.025   6.818   6.125 -0.1725 -0.6782 -0.5824
 5872TIP3    H139107   1.008   6.827   6.032 -0.3916 -1.0896 -0.5830
 5872TIP3    H239108   0.999   6.729   6.146 -0.6006 -0.4300 -0.0300
 5873TIP3   OH239109   5.915   3.816   1.671 -0.0028 -0.1857  0.0923
 5873TIP3    H139110   5.955   3.880   1.612  1.0707 -0.0828  0.9096
 5873TIP3    H239111   5.851   3.770   1.616 -0.1582  0.9795 -0.7301
 5874TIP3   OH239112   3.919   3.923   4.654  0.2007 -0.2980  0.1379
 5874TIP3    H139113   3.929   3.877   4.737  2.1218 -1.9693 -0.9725
 5874TIP3    H239114   3.938   4.015   4.674  0.6148 -0.6833  1.5462
 5875TIP3   OH239115   3.850   3.500  12.772  0.2634  0.0448  0.4443
 5875TIP3    H139116   3.913   3.530  12.838 -0.5893  3.9807 -0.4189
 5875TIP3    H239117   3.765   3.513  12.813 -0.1716 -0.2238 -0.3649
 5876TIP3   OH239118   0.030   2.197   6.287  0.2937  0.2949  0.4352
 5876TIP3    H139119   0.038   2.247   6.368 -1.4374  2.3336 -0.5875
 5876TIP3    H239120  -0.044   2.138   6.301 -0.5642  1.2633  0.0619
 5877TIP3   OH239121   1.327   2.747  15.456  0.1913 -0.0850  0.6612
 5877TIP3    H139122   1.283   2.693  15.390 -1.8796 -0.6103  2.3887
 5877TIP3    H239123   1.378   2.810  15.405 -0.9501 -0.7833 -1.4302
 5878TIP3   OH239124   1.462   6.476  15.433  0.1013  0.6963 -0.5646
 5878TIP3    H139125   1.443   6.539  15.363 -1.4573 -0.2128 -0.9945
 5878TIP3    H239126   1.516   6.409  15.391 -0.9905  0.0539 -0.9620
 5879TIP3   OH239127   0.456   1.270   0.403 -0.1904  0.0004 -0.0832
 5879TIP3    H139128   0.494   1.256   0.490 -0.1693 -0.1465 -0.1158
 5879TIP3    H239129   0.511   1.337   0.363  0.6180 -0.8768 -0.4876
 5880TIP3   OH239130   1.352   3.350   3.761  0.4907 -0.1484  0.6993
 5880TIP3    H139131   1.274   3.298   3.779  0.4030 -0.3299 -0.1652
 5880TIP3    H239132   1.367   3.400   3.841 -2.2976  2.2431 -0.1912
 5881TIP3   OH239133   1.887   1.787  11.751 -0.0713  0.0260 -0.4154
 5881TIP3    H139134   1.940   1.853  11.707  2.1150 -2.3850 -1.5822
 5881TIP3    H239135   1.819   1.765  11.688 -0.0640  0.3062 -0.5205
 5882TIP3   OH239136   3.215   2.973  12.108  0.5526 -0.4228  0.3783
 5882TIP3    H139137   3.225   2.954  12.015  0.0764  3.5533 -0.5834
 5882TIP3    H239138   3.288   2.927  12.150  0.9821 -1.9692 -1.9778
 5883TIP3   OH239139   3.934   4.066   0.711  0.2119  0.3511 -0.2209
 5883TIP3    H139140   4.018   4.108   0.689  0.6614 -0.7473 -0.6278
 5883TIP3    H239141   3.933   4.065   0.807  0.5604  0.5816 -0.2118
 5884TIP3   OH239142   1.400   2.897  11.426 -0.5414 -0.8743  0.2711
 5884TIP3    H139143   1.466   2.916  11.492  0.9827 -2.5388 -0.7346
 5884TIP3    H239144   1.422   2.955  11.353 -1.1947 -0.2633  0.5502
 5885TIP3   OH239145   0.590   6.316   4.903 -0.1524  0.4332 -0.0476
 5885TIP3    H139146   0.575   6.401   4.860  0.7293  0.4977 -0.2326
 5885TIP3    H239147   0.680   6.322   4.936  0.0286 -0.5743 -0.3713
 5886TIP3   OH239148   2.474   5.211  16.194  0.0558  0.2866 -0.0656
 5886TIP3    H139149   2.516   5.145  16.250 -1.8006 -0.6710  0.2368
 5886TIP3    H239150   2.425   5.266  16.255  0.1377  0.8406 -0.4997
 5887TIP3   OH239151   6.222   0.615  14.932 -0.2064  0.2841 -0.3332
 5887TIP3    H139152   6.271   0.599  15.012 -0.0350  1.3072 -0.2241
 5887TIP3    H239153   6.167   0.537  14.921 -1.2306  0.7177  1.5166
 5888TIP3   OH239154   6.224   1.016  11.404 -0.0936  0.0774 -0.0077
 5888TIP3    H139155   6.190   1.105  11.409 -1.7556 -0.6016  1.6943
 5888TIP3    H239156   6.161   0.970  11.348  0.3618 -0.1949 -0.2954
 5889TIP3   OH239157   1.239   3.834   1.567  0.9131 -0.6094  0.1282
 5889TIP3    H139158   1.201   3.746   1.567 -1.1929  0.2667  1.3293
 5889TIP3    H239159   1.250   3.855   1.660 -1.0701  1.4067 -0.0456
 5890TIP3   OH239160   2.133   4.030  14.428  0.3217 -0.3706  0.0277
 5890TIP3    H139161   2.140   3.955  14.369  0.5298 -0.3364  0.0100
 5890TIP3    H239162   2.114   3.991  14.514 -1.7564 -0.3287 -0.3776
 5891TIP3   OH239163   0.665   1.609  14.063  0.1844 -0.4133  0.9280
 5891TIP3    H139164   0.742   1.658  14.032  0.1844  0.0273  1.6180
 5891TIP3    H239165   0.701   1.532  14.106  0.1762 -1.2099 -0.4445
 5892TIP3   OH239166   2.290   2.083   3.563  0.6617 -0.0586 -0.4292
 5892TIP3    H139167   2.217   2.050   3.615 -0.3853  1.2052 -1.0692
 5892TIP3    H239168   2.363   2.024   3.584  0.2661  0.4112  2.3924
 5893TIP3   OH239169   5.672   2.358  11.931  0.1858 -0.2686  0.1995
 5893TIP3    H139170   5.749   2.381  11.983 -1.4828  0.5693  2.3795
 5893TIP3    H239171   5.615   2.435  11.937 -1.2265 -1.2202 -0.5906
 5894TIP3   OH239172   0.046   6.673   4.311 -0.0620 -0.2190  0.7483
 5894TIP3    H139173   0.138   6.692   4.329 -0.3460  1.6438  0.3044
 5894TIP3    H239174   0.037   6.684   4.217 -1.0246  0.8938  0.9569
 5895TIP3   OH239175   6.642   6.738  13.281 -0.0164 -0.2507  0.4187
 5895TIP3    H139176   6.705   6.786  13.227 -0.3656 -0.2240  0.0249
 5895TIP3    H239177   6.600   6.677  13.220  1.4628 -2.1332  1.2117
 5896TIP3   OH239178   3.291   2.032   5.489  0.0672  0.2118  0.0791
 5896TIP3    H139179   3.249   2.028   5.402 -0.1105 -0.1163  0.1773
 5896TIP3    H239180   3.271   2.120   5.521  0.7210  0.5816 -0.5027
 5897TIP3   OH239181   6.389   0.602  12.133 -0.4382  0.2611  1.0717
 5897TIP3    H139182   6.423   0.649  12.057  0.0250 -0.0090  1.1093
 5897TIP3    H239183   6.331   0.665  12.176  0.4017  0.9084  1.2875
 5898TIP3   OH239184   4.430   3.227   0.333  0.0757 -0.0158  0.0035
 5898TIP3    H139185   4.475   3.191   0.256 -0.5536 -0.4613 -0.1567
 5898TIP3    H239186   4.483   3.199   0.407  0.6797  0.4025 -0.2671
 5899TIP3   OH239187   2.574   1.562  13.045 -0.0739 -0.2174 -0.0904
 5899TIP3    H139188   2.609   1.488  12.994 -1.3836 -1.4530  0.7482
 5899TIP3    H239189   2.578   1.532  13.135  1.5530  1.6822  0.4907
 5900TIP3   OH239190   2.462   6.217  11.860  0.5341 -0.5988  0.0750
 5900TIP3    H139191   2.483   6.144  11.802 -0.2354 -0.4679 -0.3773
 5900TIP3    H239192   2.458   6.293  11.802 -0.0419 -0.4328  0.3270
 5901TIP3   OH239193   2.586   4.026   3.107 -0.3395 -0.0239 -0.5409
 5901TIP3    H139194   2.506   4.039   3.056 -0.5473 -1.3601 -0.5719
 5901TIP3    H239195   2.564   4.058   3.194 -0.7648  0.0622 -0.6768
 5902TIP3   OH239196   3.956   5.330  15.382  0.2565 -0.1361  0.5058
 5902TIP3    H139197   3.975   5.362  15.294 -1.7950  2.1552  0.8522
 5902TIP3    H239198   3.968   5.406  15.438 -1.4473 -0.7963  1.8146
 5903TIP3   OH239199   3.348   5.401   4.200 -0.0503  0.0986 -0.0876
 5903TIP3    H139200   3.256   5.388   4.176 -0.6543  1.2135  1.5855
 5903TIP3    H239201   3.345   5.433   4.290  1.8566  2.3935 -0.8048
 5904TIP3   OH239202   5.573   0.206   5.464 -0.0707  0.2952 -0.7714
 5904TIP3    H139203   5.567   0.171   5.376 -0.6302  0.3960 -0.7798
 5904TIP3    H239204   5.517   0.149   5.517 -1.0098  1.1747 -0.7909
 5905TIP3   OH239205   2.392   2.917   1.190 -0.2552 -0.0834 -0.5754
 5905TIP3    H139206   2.423   2.882   1.273  0.1179  1.0186 -0.2469
 5905TIP3    H239207   2.336   2.991   1.213  2.1854  2.1214 -1.3253
 5906TIP3   OH239208   3.844   1.079  12.096 -0.2664 -0.6004 -0.2375
 5906TIP3    H139209   3.908   1.009  12.085 -0.3095 -0.5769 -0.6451
 5906TIP3    H239210   3.821   1.076  12.189 -1.0680 -1.8217 -0.4733
 5907TIP3   OH239211   2.230   2.594   4.875  0.1802 -0.4129 -0.3326
 5907TIP3    H139212   2.166   2.537   4.917  0.2275 -0.0754  0.2069
 5907TIP3    H239213   2.264   2.543   4.802  1.9018 -1.9822  1.4945
 5908TIP3   OH239214   1.221   3.504   5.865  0.1808  0.3958 -0.0531
 5908TIP3    H139215   1.259   3.514   5.952 -0.1312  1.8933 -0.0817
 5908TIP3    H239216   1.281   3.444   5.820  1.0776  0.6711  0.7509
 5909TIP3   OH239217   0.089   1.543  16.474  0.3366 -0.4092 -0.6768
 5909TIP3    H139218   0.034   1.609  16.431  1.6423  0.0842 -1.6568
 5909TIP3    H239219   0.130   1.496  16.401  1.1702 -0.7868  0.0301
 5910TIP3   OH239220   4.165   5.864  12.249  0.3575  0.0790  0.4717
 5910TIP3    H139221   4.212   5.868  12.332  0.1935  0.6926  0.5337
 5910TIP3    H239222   4.234   5.866  12.183  0.3810  1.9601  0.5375
 5911TIP3   OH239223   0.724   5.660   4.241  0.4029  0.3575 -0.2885
 5911TIP3    H139224   0.733   5.624   4.152  0.6368 -1.2702  0.3699
 5911TIP3    H239225   0.797   5.621   4.289 -0.8145 -0.2729  1.0832
 5912TIP3   OH239226   6.635   4.154  16.398  0.2645 -1.3712 -0.3772
 5912TIP3    H139227   6.676   4.233  16.361  0.2621 -0.7225  0.9688
 5912TIP3    H239228   6.704   4.088  16.395  0.0069 -1.5652 -2.3021
 5913TIP3   OH239229   0.032   3.234   4.501 -0.1584 -0.0380 -0.2276
 5913TIP3    H139230   0.042   3.319   4.458 -0.3492  0.6775  1.1076
 5913TIP3    H239231   0.037   3.254   4.595 -1.8639 -1.2879  0.1462
 5914TIP3   OH239232   2.347   5.966  13.952 -0.1954 -0.4931 -0.0361
 5914TIP3    H139233   2.351   6.000  14.041 -2.2517 -1.6031  0.5089
 5914TIP3    H239234   2.319   5.875  13.962  0.6266 -0.9666 -1.7583
 5915TIP3   OH239235   4.480   4.541   1.686 -0.2565  0.1259 -0.8988
 5915TIP3    H139236   4.514   4.600   1.754 -0.0789  0.4090 -1.2320
 5915TIP3    H239237   4.507   4.454   1.714  1.4550  0.4131 -1.5704
 5916TIP3   OH239238   2.562   2.134   0.941 -0.5408 -0.3703 -0.4015
 5916TIP3    H139239   2.527   2.078   1.010 -3.0933  1.2835 -0.2886
 5916TIP3    H239240   2.532   2.093   0.859  1.3676 -1.5906 -0.5312
 5917TIP3   OH239241   4.698   6.473  13.957 -0.1147  0.4655  0.3106
 5917TIP3    H139242   4.762   6.415  13.916  0.0336  1.2153 -0.5501
 5917TIP3    H239243   4.664   6.525  13.884  0.9715  2.6153  1.2961
 5918TIP3   OH239244   0.586   3.201   3.132  0.2275 -0.6399 -0.1200
 5918TIP3    H139245   0.658   3.137   3.136 -0.0896 -0.9522  0.6075
 5918TIP3    H239246   0.575   3.230   3.222 -1.0479 -1.1231 -0.1183
 5919TIP3   OH239247   3.119   0.943   5.676 -0.5936 -0.4385 -0.0232
 5919TIP3    H139248   3.035   0.921   5.636 -0.8035  0.3489 -0.0197
 5919TIP3    H239249   3.159   1.004   5.614 -0.6088  0.2233  0.6114
 5920TIP3   OH239250   0.835   1.371  12.938  0.0281  1.0019 -0.3707
 5920TIP3    H139251   0.788   1.288  12.938  1.4002  0.2116  0.7153
 5920TIP3    H239252   0.905   1.360  13.002  1.3188  2.3678 -1.4931
 5921TIP3   OH239253   5.456   4.492   5.153  0.0526 -0.2284  0.3842
 5921TIP3    H139254   5.376   4.455   5.116  0.7610 -0.7667 -0.6276
 5921TIP3    H239255   5.510   4.416   5.174  0.2175  0.1246  1.2804
 5922TIP3   OH239256   3.254   5.644  13.969  0.0724  0.1943  0.2739
 5922TIP3    H139257   3.291   5.682  13.889  2.9818  0.7454  1.7855
 5922TIP3    H239258   3.230   5.720  14.022  0.6436 -0.1163  0.9896
 5923TIP3   OH239259   0.473   2.833   3.103  0.0455  0.2308  0.8251
 5923TIP3    H139260   0.566   2.856   3.102 -0.2367  1.3886 -0.6371
 5923TIP3    H239261   0.427   2.917   3.103 -0.9996 -0.3234  0.0084
 5924TIP3   OH239262   3.667   3.457   0.331  0.2934  0.5582  0.4550
 5924TIP3    H139263   3.595   3.464   0.269  0.9182 -0.6219 -0.4250
 5924TIP3    H239264   3.712   3.541   0.325 -0.3629  0.8905  0.1894
 5925TIP3   OH239265   3.025   0.532  11.821 -0.2384 -0.0144 -0.0460
 5925TIP3    H139266   3.101   0.518  11.764  1.0605 -0.3548  1.7328
 5925TIP3    H239267   3.021   0.454  11.876 -2.7938 -0.6761 -1.1049
 5926TIP3   OH239268   1.694   2.154  16.048  0.2628  0.2888 -0.4971
 5926TIP3    H139269   1.775   2.102  16.049 -0.5364 -0.9958 -0.4589
 5926TIP3    H239270   1.637   2.108  15.987 -0.2929  1.4188 -0.8369
 5927TIP3   OH239271   1.353   0.117  14.009 -0.2851 -0.2893  0.1702
 5927TIP3    H139272   1.264   0.131  14.041 -0.2144  0.6654 -0.0364
 5927TIP3    H239273   1.344   0.053  13.939 -0.9213  0.3872 -0.3757
 5928TIP3   OH239274   5.100   4.428  16.471 -0.2809  0.0401 -0.8616
 5928TIP3    H139275   5.139   4.515  16.475  1.7409 -0.8828  0.4702
 5928TIP3    H239276   5.009   4.440  16.498 -0.4612  1.9671 -2.2737
 5929TIP3   OH239277   0.354   1.275   6.070 -0.1720  0.2980 -1.0119
 5929TIP3    H139278   0.407   1.233   6.003 -1.5011 -0.7611 -1.4220
 5929TIP3    H239279   0.265   1.243   6.054 -0.5193  0.0896  1.2045
 5930TIP3   OH239280   5.792   6.178   3.940  0.8662 -0.1820  0.0548
 5930TIP3    H139281   5.732   6.231   3.888  0.3148 -0.8731 -0.0209
 5930TIP3    H239282   5.827   6.113   3.879  0.9460 -0.3910  0.3208
 5931TIP3   OH239283   6.422   4.986  14.614 -0.8227 -0.2569  0.4258
 5931TIP3    H139284   6.462   5.055  14.562 -0.7975 -2.0444 -2.0001
 5931TIP3    H239285   6.328   4.995  14.597 -0.8818 -0.3990  0.6693
 5932TIP3   OH239286   0.662   3.343  11.381  0.1390 -0.5815  0.1955
 5932TIP3    H139287   0.575   3.375  11.360 -0.8506 -1.6918  2.4652
 5932TIP3    H239288   0.716   3.422  11.387 -1.2946  0.3196  1.3929
 5933TIP3   OH239289   1.329   2.160   3.464  0.5024  0.4952  0.3735
 5933TIP3    H139290   1.242   2.148   3.428  1.0251  0.0264 -0.7500
 5933TIP3    H239291   1.345   2.254   3.457  1.1039  0.2407 -1.8069
 5934TIP3   OH239292   3.417   1.345   2.066  0.0838  0.1478  0.0785
 5934TIP3    H139293   3.484   1.407   2.037  1.9034 -2.0641 -0.6139
 5934TIP3    H239294   3.388   1.302   1.986 -0.3976 -0.6118  0.6577
 5935TIP3   OH239295   0.270   0.771   1.223  0.4012  0.6970  0.3955
 5935TIP3    H139296   0.201   0.762   1.158  0.3985  1.3195  0.3141
 5935TIP3    H239297   0.326   0.841   1.190  2.6866 -1.7112 -0.9708
 5936TIP3   OH239298   2.084   4.789  14.727  0.1470  0.1697 -0.0243
 5936TIP3    H139299   2.146   4.735  14.677  0.0881 -0.3688  0.4816
 5936TIP3    H239300   2.081   4.749  14.814 -0.5453  0.4769  0.1008
 5937TIP3   OH239301   5.000   4.844   2.471 -0.0309  0.0040 -0.1646
 5937TIP3    H139302   5.025   4.876   2.384 -1.0521 -0.3905 -0.6103
 5937TIP3    H239303   4.990   4.749   2.459 -0.8812  0.0439  0.2188
 5938TIP3   OH239304   6.437   5.714  16.720  0.3156  0.2532 -0.4336
 5938TIP3    H139305   6.413   5.621  16.718  0.3182  0.2500 -0.2755
 5938TIP3    H239306   6.449   5.737  16.628 -0.2863  0.2533 -0.5108
 5939TIP3   OH239307   6.702   6.045   5.702 -0.1654 -0.0149 -0.7335
 5939TIP3    H139308   6.619   5.998   5.705 -0.1744  0.0702  0.6373
 5939TIP3    H239309   6.758   5.993   5.645 -0.6837 -0.8413 -0.4856
 5940TIP3   OH239310   3.398   3.003  11.175 -0.2004  0.0356 -0.2801
 5940TIP3    H139311   3.435   3.077  11.224 -0.6551  1.4876 -2.0976
 5940TIP3    H239312   3.474   2.950  11.149  0.0879 -0.4522  1.4659
 5941TIP3   OH239313   0.494   4.491   1.935 -0.2394 -0.4019 -0.0188
 5941TIP3    H139314   0.557   4.518   1.868 -0.8549  0.3712 -0.2857
 5941TIP3    H239315   0.495   4.563   1.999 -0.9779 -0.3140 -0.1054
 5942TIP3   OH239316   4.214   2.625  13.068 -0.1578 -0.1047 -0.3474
 5942TIP3    H139317   4.268   2.704  13.071  0.1932 -0.2400 -2.4044
 5942TIP3    H239318   4.272   2.555  13.096  0.0636  0.0969 -0.2978
 5943TIP3   OH239319   2.654   1.714   2.101 -0.4889  0.1472  0.5514
 5943TIP3    H139320   2.731   1.759   2.137 -0.0603 -0.7529  0.7786
 5943TIP3    H239321   2.612   1.674   2.177 -2.0687  1.9509  0.6355
 5944TIP3   OH239322   2.883   1.510  11.044 -0.7213 -0.2704  0.0841
 5944TIP3    H139323   2.916   1.590  11.002 -0.3230  0.1105  1.1056
 5944TIP3    H239324   2.962   1.458  11.061 -0.8975 -0.5035  0.1854
 5945TIP3   OH239325   0.263   3.878   1.532 -0.0170  0.6718 -0.2013
 5945TIP3    H139326   0.186   3.858   1.479  0.1964  0.7343 -0.5349
 5945TIP3    H239327   0.336   3.835   1.487 -0.0774 -0.6157  0.9042
 5946TIP3   OH239328   6.415   1.042   5.886  0.3182 -0.0900 -0.3990
 5946TIP3    H139329   6.387   1.044   5.977 -0.0760 -2.1664 -0.4423
 5946TIP3    H239330   6.498   0.993   5.887 -0.5749 -1.6873 -1.3313
 5947TIP3   OH239331   4.465   4.251   5.262  0.3081 -0.0181  0.5014
 5947TIP3    H139332   4.433   4.326   5.312 -0.0385  0.6427 -0.6848
 5947TIP3    H239333   4.387   4.199   5.243  0.3750 -0.0416  0.2827
 5948TIP3   OH239334   3.102   0.803  14.316 -0.1164  0.1784  0.1177
 5948TIP3    H139335   3.138   0.881  14.359  1.4507 -0.3150 -0.2799
 5948TIP3    H239336   3.133   0.730  14.369  0.8661 -0.3557 -1.1757
 5949TIP3   OH239337   6.088   2.289  15.755 -0.2561 -0.2471 -0.0924
 5949TIP3    H139338   6.147   2.239  15.812 -1.7807  0.6204  2.3172
 5949TIP3    H239339   6.130   2.375  15.748  0.3449 -0.6026 -0.9843
 5950TIP3   OH239340   3.768   3.848   0.704  0.6290  0.6355 -0.1591
 5950TIP3    H139341   3.771   3.815   0.794 -1.4519  1.1261  0.1205
 5950TIP3    H239342   3.810   3.934   0.708 -0.1410  0.9840  0.5009
 5951TIP3   OH239343   2.163   5.173   1.193  0.2056 -0.5828 -0.4716
 5951TIP3    H139344   2.225   5.243   1.211 -0.4283 -0.3362  0.7838
 5951TIP3    H239345   2.216   5.104   1.152  0.9584  0.3295 -1.0617
 5952TIP3   OH239346   0.367   2.894  13.223 -0.3968  0.0191  1.0114
 5952TIP3    H139347   0.378   2.866  13.132  0.3990  0.3096  1.0182
 5952TIP3    H239348   0.427   2.968  13.233 -0.8014  0.2680  1.6503
 5953TIP3   OH239349   3.672   1.846  16.966  0.2915 -0.4562 -0.1966
 5953TIP3    H139350   3.677   1.903  16.889 -0.5678 -0.3605 -0.1932
 5953TIP3    H239351   3.684   1.757  16.931  2.0773 -0.2531 -0.1463
 5954TIP3   OH239352   5.312   3.668  14.798  0.2384 -0.5137  0.0612
 5954TIP3    H139353   5.371   3.739  14.824 -4.3856  4.5426 -2.1827
 5954TIP3    H239354   5.276   3.635  14.880  0.4282  1.7092  1.0787
 5955TIP3   OH239355   6.342   4.599   3.645  0.2489  0.0388  0.2872
 5955TIP3    H139356   6.337   4.594   3.740  0.5057 -0.9482  0.2518
 5955TIP3    H239357   6.339   4.508   3.616  2.6051  0.1997 -0.5380
 5956TIP3   OH239358   0.964   1.332  16.382  0.0104  0.2712 -0.0347
 5956TIP3    H139359   0.948   1.284  16.463 -2.4181 -1.7234 -1.6186
 5956TIP3    H239360   1.059   1.335  16.373  0.2930  0.3020  2.7311
 5957TIP3   OH239361   4.992   5.334   4.817  0.0578 -0.3118  0.1860
 5957TIP3    H139362   4.933   5.344   4.892 -0.2704 -0.5864 -0.0339
 5957TIP3    H239363   5.008   5.240   4.812 -1.6565 -0.5329 -1.4140
 5958TIP3   OH239364   0.190   4.255  11.402 -0.4821  0.4927 -0.1365
 5958TIP3    H139365   0.244   4.308  11.343 -1.6719  0.1337 -1.5756
 5958TIP3    H239366   0.142   4.320  11.454 -1.0708  0.8184 -1.0868
 5959TIP3   OH239367   4.496   4.237  13.145 -0.1028  0.6796 -0.4777
 5959TIP3    H139368   4.409   4.208  13.121 -0.6394  2.3462 -0.6078
 5959TIP3    H239369   4.484   4.326  13.180  1.2686  0.1638  1.4263
 5960TIP3   OH239370   6.154   3.256  16.653  0.0003 -0.8722 -0.4919
 5960TIP3    H139371   6.241   3.286  16.626 -0.3042  2.6788  2.0490
 5960TIP3    H239372   6.171   3.196  16.726  0.3909  1.7953  1.7455
 5961TIP3   OH239373   1.533   0.073  16.700  0.9976  0.1479 -0.4850
 5961TIP3    H139374   1.555   0.166  16.708 -0.1673  0.3422  0.7624
 5961TIP3    H239375   1.542   0.038  16.789 -0.3872 -0.4944 -0.5748
 5962TIP3   OH239376   1.846   1.048  13.974  0.6989  0.4133 -0.4417
 5962TIP3    H139377   1.762   1.053  14.019  1.7873 -0.2671  1.7436
 5962TIP3    H239378   1.904   1.105  14.024  2.0246 -0.5937 -0.7914
 5963TIP3   OH239379   5.168   3.513   1.798  0.4068  0.2013 -0.4243
 5963TIP3    H139380   5.180   3.548   1.710  0.9851  0.1852 -0.3533
 5963TIP3    H239381   5.244   3.545   1.847  0.1365  0.1362  0.0454
 5964TIP3   OH239382   0.925   6.005  16.035  0.2545 -0.6022  0.4788
 5964TIP3    H139383   0.931   6.056  15.954  0.1474 -0.2416  0.6976
 5964TIP3    H239384   0.833   5.978  16.039  0.5580 -1.8046 -0.2363
 5965TIP3   OH239385   0.294   6.700   1.505 -0.4351  0.3189 -0.3405
 5965TIP3    H139386   0.239   6.625   1.482 -1.2720  0.6347  0.5878
 5965TIP3    H239387   0.287   6.705   1.600  2.0413 -0.2653 -0.1084
 5966TIP3   OH239388   5.988   5.514  16.484  0.2892 -0.5106  0.2131
 5966TIP3    H139389   5.898   5.542  16.467  0.6189 -0.1727 -1.0726
 5966TIP3    H239390   5.995   5.428  16.442  0.4438 -0.7420  0.7040
 5967TIP3   OH239391   4.648   4.033  15.060  0.1396  0.3967  0.9303
 5967TIP3    H139392   4.562   4.004  15.092 -0.5416  2.0602  0.6629
 5967TIP3    H239393   4.658   3.989  14.976 -1.7745  2.3633 -0.4203
 5968TIP3   OH239394   1.282   1.484  17.182  0.1998  0.3866 -0.3810
 5968TIP3    H139395   1.362   1.436  17.203 -1.4742 -2.7558 -0.7540
 5968TIP3    H239396   1.273   1.477  17.087 -1.2559 -0.6174 -0.1950
 5969TIP3   OH239397   6.157   2.670  11.843  0.0252 -0.3557  0.2886
 5969TIP3    H139398   6.213   2.748  11.847 -0.7050  0.2408 -0.7702
 5969TIP3    H239399   6.069   2.705  11.831 -0.1740 -1.3861 -1.2892
 5970TIP3   OH239400   0.144   0.971   5.340 -0.0059  0.6298 -0.1950
 5970TIP3    H139401   0.080   1.037   5.365 -0.5355  0.0517 -0.0264
 5970TIP3    H239402   0.166   0.993   5.249  1.7246  2.5627  0.6482
 5971TIP3   OH239403   5.353   3.931   2.385 -0.2578 -0.1711 -0.1289
 5971TIP3    H139404   5.293   3.931   2.460  0.4283 -0.5327  0.4318
 5971TIP3    H239405   5.400   3.848   2.393  0.5575  0.2655 -0.3679
 5972TIP3   OH239406   0.986   2.731   1.258  0.5639 -0.2414 -0.1646
 5972TIP3    H139407   0.996   2.818   1.218 -0.5590  0.1840  0.4683
 5972TIP3    H239408   0.980   2.748   1.352 -0.9624 -0.8891 -0.1312
 5973TIP3   OH239409   4.328   5.408  13.430  0.4349  0.7258 -0.1900
 5973TIP3    H139410   4.270   5.371  13.496 -0.0648 -0.7413 -1.4131
 5973TIP3    H239411   4.416   5.385  13.460  0.2100  0.0635 -0.0274
 5974TIP3   OH239412   5.441   1.104   3.741 -0.0763 -0.0105  0.0063
 5974TIP3    H139413   5.418   1.189   3.779 -3.9062 -1.1022  0.3690
 5974TIP3    H239414   5.442   1.044   3.815 -4.1967 -1.5033 -0.9951
 5975TIP3   OH239415   4.127   6.086   2.566 -0.3592  0.1113 -0.1635
 5975TIP3    H139416   4.117   6.064   2.658 -2.3624  1.6685  0.0037
 5975TIP3    H239417   4.138   6.001   2.522  1.8973 -0.5642  1.6175
 5976TIP3   OH239418   6.596   1.665   5.534 -0.0546 -0.1866 -0.8015
 5976TIP3    H139419   6.687   1.686   5.550 -0.7324  3.5366 -1.3904
 5976TIP3    H239420   6.596   1.622   5.448  1.3065 -1.9189  0.0403
 5977TIP3   OH239421   2.815   1.732  10.882 -0.4638  0.0813 -0.1606
 5977TIP3    H139422   2.877   1.786  10.834  0.8226 -2.4103 -1.4308
 5977TIP3    H239423   2.747   1.793  10.913  2.2508  2.7629  0.7116
 5978TIP3   OH239424   3.593   5.950   3.926 -0.0087 -0.0025  0.5248
 5978TIP3    H139425   3.626   5.919   4.011 -0.3447 -0.0328  0.6443
 5978TIP3    H239426   3.501   5.970   3.942  0.1043  0.6872  0.3555
 5979TIP3   OH239427   4.679   2.906   4.463 -0.0938 -0.1745 -0.3415
 5979TIP3    H139428   4.592   2.911   4.424 -0.7775 -1.3802  0.9577
 5979TIP3    H239429   4.663   2.882   4.554  1.6196 -0.7683 -0.1751
 5980TIP3   OH239430   6.471   3.973   6.535 -0.2122 -0.2591 -0.3829
 5980TIP3    H139431   6.401   4.004   6.593 -1.3303 -0.2528 -1.7156
 5980TIP3    H239432   6.539   4.039   6.542  0.2544 -0.9609  1.9955
 5981TIP3   OH239433   5.292   5.400  14.597  0.3379 -0.4324 -0.1660
 5981TIP3    H139434   5.248   5.323  14.560 -0.0872  0.8244 -2.3011
 5981TIP3    H239435   5.371   5.364  14.638  0.7057 -1.8787 -2.0658
 5982TIP3   OH239436   2.505   2.135  16.960  0.0006 -0.3837  0.6742
 5982TIP3    H139437   2.596   2.163  16.966  0.1035 -1.1031  3.0635
 5982TIP3    H239438   2.503   2.078  16.883  1.8161 -1.1565  1.1523
 5983TIP3   OH239439   3.526   0.937   4.956 -0.1892 -0.0166 -0.7791
 5983TIP3    H139440   3.536   0.873   4.885  0.4328  1.4344 -2.0102
 5983TIP3    H239441   3.546   1.021   4.916  0.1298  0.8329  1.1181
 5984TIP3   OH239442   2.963   0.467   2.882  0.5497 -0.2246  0.3255
 5984TIP3    H139443   2.979   0.561   2.872 -1.2021 -0.0646 -1.3349
 5984TIP3    H239444   3.048   0.426   2.866  1.2059  1.0429  0.5089
 5985TIP3   OH239445   4.849   4.987  10.816 -0.0018  0.2190  0.1833
 5985TIP3    H139446   4.934   4.995  10.860  0.0222 -0.7540  0.3271
 5985TIP3    H239447   4.864   5.022  10.728  0.9155 -1.2069 -0.2418
 5986TIP3   OH239448   6.162   6.066   2.130 -0.6621  0.1276 -0.0636
 5986TIP3    H139449   6.102   6.090   2.200 -0.7897  0.4849 -0.2919
 5986TIP3    H239450   6.108   6.016   2.069 -1.1614  1.9166 -1.1259
 5987TIP3   OH239451   6.042   3.578   5.239 -1.1400 -0.2889  0.2537
 5987TIP3    H139452   6.128   3.543   5.260 -1.3146 -0.1610  1.2153
 5987TIP3    H239453   6.028   3.555   5.147  0.0874  0.0559 -0.0207
 5988TIP3   OH239454   1.226   1.116  15.526 -0.2484  0.3636  0.2807
 5988TIP3    H139455   1.255   1.050  15.463 -1.5995 -0.0648  0.0893
 5988TIP3    H239456   1.293   1.184  15.523  0.0942 -0.0261 -1.0543
 5989TIP3   OH239457   1.111   0.888   5.553  0.0058  0.0573 -0.3596
 5989TIP3    H139458   1.032   0.841   5.527 -0.2118 -0.2210  0.7951
 5989TIP3    H239459   1.104   0.973   5.508 -1.3226  0.3243  0.3349
 5990TIP3   OH239460   1.071   4.431   3.325  0.0797 -0.1815 -0.4149
 5990TIP3    H139461   1.102   4.407   3.238  0.8294  1.0050 -0.4838
 5990TIP3    H239462   1.138   4.491   3.359  0.0896 -1.0855  1.2047
 5991TIP3   OH239463   3.896   5.912  12.810  0.5539  0.5323  0.5664
 5991TIP3    H139464   3.813   5.896  12.767  0.3817 -0.3557  1.2116
 5991TIP3    H239465   3.875   5.916  12.903  1.1290  0.9977  0.6845
 5992TIP3   OH239466   3.453   3.316  11.703 -0.7195 -0.1397 -0.2041
 5992TIP3    H139467   3.423   3.391  11.652  0.0642 -0.2647 -0.8652
 5992TIP3    H239468   3.431   3.338  11.793 -1.0628  0.6058 -0.4635
 5993TIP3   OH239469   4.131   4.328  11.633 -0.1151  0.1796 -0.0735
 5993TIP3    H139470   4.099   4.418  11.638  0.5957  0.4809 -0.8698
 5993TIP3    H239471   4.115   4.302  11.542  1.3193  0.1220 -0.3199
 5994TIP3   OH239472   4.788   4.105   2.957  0.0928 -0.0278 -0.3306
 5994TIP3    H139473   4.707   4.094   2.906 -0.4373  1.7529  0.0907
 5994TIP3    H239474   4.813   4.016   2.981 -0.4965 -0.7989 -2.3845
 5995TIP3   OH239475   5.043   1.008  11.257 -0.4663  0.0005  0.7460
 5995TIP3    H139476   4.981   1.020  11.328 -0.1278  0.9097  0.8895
 5995TIP3    H239477   5.108   1.077  11.269  0.4309 -0.7865  0.4489
 5996TIP3   OH239478   2.536   1.772   5.699 -0.1932  0.1400 -0.1199
 5996TIP3    H139479   2.504   1.690   5.736  0.0619 -0.2608 -0.7819
 5996TIP3    H239480   2.625   1.781   5.735 -0.3104  0.2592  0.1473
 5997TIP3   OH239481   0.402   5.467  11.940  0.3122 -0.2472  0.5748
 5997TIP3    H139482   0.461   5.539  11.963  0.3607 -0.4103  0.9715
 5997TIP3    H239483   0.315   5.506  11.938  0.3957 -0.0742  0.3063
 5998TIP3   OH239484   0.316   6.160  11.378 -0.8579 -0.0973 -0.0526
 5998TIP3    H139485   0.283   6.227  11.318  0.2240  0.4257 -0.0681
 5998TIP3    H239486   0.410   6.178  11.386 -0.7803 -0.8603  0.9080
 5999TIP3   OH239487   1.932   0.977  11.691  0.2311  0.0451  0.2397
 5999TIP3    H139488   2.009   0.946  11.644  0.9492 -0.1200  1.4776
 5999TIP3    H239489   1.951   0.957  11.783 -1.1674  0.2648  0.5934
 6000TIP3   OH239490   2.056   2.329  13.494  0.2972 -0.3898 -0.3075
 6000TIP3    H139491   2.142   2.338  13.452  0.0399  0.6886 -0.6004
 6000TIP3    H239492   1.996   2.376  13.436  0.0511  1.7677  1.6433
 6001TIP3   OH239493   2.653   5.989   1.963 -1.1815  0.1401  0.3172
 6001TIP3    H139494   2.637   5.956   2.052 -1.2784  2.3277  1.1473
 6001TIP3    H239495   2.629   6.082   1.967  0.4765  0.6905 -1.5247
 6002TIP3   OH239496   4.315   6.034   0.067 -0.1241  0.3462  0.1356
 6002TIP3    H139497   4.243   6.078   0.113 -0.7864 -0.4877 -0.0946
 6002TIP3    H239498   4.377   6.011   0.136 -1.0176 -0.7146  0.6094
 6003TIP3   OH239499   4.305   4.856   5.494 -0.6372  0.2858  0.8105
 6003TIP3    H139500   4.400   4.851   5.490 -0.6314  1.5288 -0.6998
 6003TIP3    H239501   4.286   4.949   5.508 -1.6805  0.3033 -0.6582
 6004TIP3   OH239502   6.373   3.094   3.837  0.7792  0.0673 -0.1276
 6004TIP3    H139503   6.464   3.123   3.850  0.5543  0.4084  0.7687
 6004TIP3    H239504   6.381   3.008   3.796  1.5126  0.1774 -0.2220
 6005TIP3   OH239505   2.257   0.278   3.593  0.2961  0.4950 -0.6324
 6005TIP3    H139506   2.224   0.361   3.559 -0.7300 -1.0446 -3.4894
 6005TIP3    H239507   2.352   0.283   3.578  0.3692  1.5424  0.1201
 6006TIP3   OH239508   3.325   2.438  17.171  0.0109  0.0150  0.0644
 6006TIP3    H139509   3.392   2.443  17.104  0.1598 -0.7793  0.1507
 6006TIP3    H239510   3.373   2.434  17.253 -0.1760  1.5269  0.2667
 6007TIP3   OH239511   5.763   2.619   0.317  0.0022 -0.1583 -0.1382
 6007TIP3    H139512   5.822   2.574   0.376 -0.7311  0.2600  0.9265
 6007TIP3    H239513   5.711   2.676   0.374 -1.7474 -0.8706 -0.9898
 6008TIP3   OH239514   5.025   5.731   0.448  0.4099  0.7043  0.7935
 6008TIP3    H139515   4.962   5.664   0.422  1.0241  0.6894 -0.7653
 6008TIP3    H239516   4.976   5.813   0.447  0.0325  0.4764  1.1264
 6009TIP3   OH239517   5.855   0.541   4.765  0.2836  0.1347  0.2579
 6009TIP3    H139518   5.912   0.604   4.720  0.4062  0.1888  0.4870
 6009TIP3    H239519   5.775   0.539   4.712 -0.3659  1.7167  1.1288
 6010TIP3   OH239520   3.774   1.618  10.919 -0.3469 -0.4863  0.5017
 6010TIP3    H139521   3.742   1.625  10.829  1.2451 -3.0666 -0.3320
 6010TIP3    H239522   3.869   1.631  10.911 -0.4058  0.9221  2.0374
 6011TIP3   OH239523   1.298   4.399  12.353 -0.3067  0.1288 -0.4235
 6011TIP3    H139524   1.258   4.486  12.359 -0.0078  0.2946 -0.8535
 6011TIP3    H239525   1.384   4.414  12.316 -0.2362 -0.3506 -0.4614
 6012TIP3   OH239526   1.997   0.804  11.153 -0.0153 -0.0145  0.4094
 6012TIP3    H139527   1.994   0.734  11.218 -0.9685  1.2621  1.7952
 6012TIP3    H239528   2.010   0.759  11.069 -0.2780 -1.8049  1.3003
 6013TIP3   OH239529   0.527   0.138  13.989  0.6715  0.0702  0.0582
 6013TIP3    H139530   0.531   0.182  14.074  0.4035  1.9520 -0.8868
 6013TIP3    H239531   0.440   0.098  13.987 -0.3115  2.2160 -0.3931
 6014TIP3   OH239532   2.170   6.771   3.043 -0.3252 -0.1771 -0.2834
 6014TIP3    H139533   2.215   6.748   3.124 -1.6029  1.2238  0.8641
 6014TIP3    H239534   2.208   6.713   2.977  1.3630 -0.7400  1.1314
 6015TIP3   OH239535   1.016   2.784  15.214  0.1710 -0.1799 -0.5244
 6015TIP3    H139536   0.922   2.786  15.198  0.2792  0.8906 -1.0550
 6015TIP3    H239537   1.036   2.691  15.227 -1.3379 -0.1861  2.0519
 6016TIP3   OH239538   3.273   6.586   4.321  0.5381 -0.3770 -0.3447
 6016TIP3    H139539   3.180   6.602   4.310  0.7693  0.4515 -1.1628
 6016TIP3    H239540   3.298   6.530   4.247  0.2565 -2.4459  1.0928
 6017TIP3   OH239541   0.623   4.771  15.724  0.2190  0.3506 -0.5456
 6017TIP3    H139542   0.714   4.741  15.733 -0.8823 -2.8899  0.3624
 6017TIP3    H239543   0.600   4.747  15.634  0.1498  0.8710 -0.6675
 6018TIP3   OH239544   1.273   0.966  15.066  0.1322 -0.1822  0.2696
 6018TIP3    H139545   1.193   1.016  15.050  0.4086  0.1817  0.0101
 6018TIP3    H239546   1.266   0.891  15.007  0.2224  0.1210 -0.1308
 6019TIP3   OH239547   5.075   1.775  13.002 -0.2127 -0.3030  0.3547
 6019TIP3    H139548   5.094   1.706  12.938 -0.3241 -0.1067  0.1118
 6019TIP3    H239549   5.150   1.834  12.996 -0.2416 -0.2645  0.3802
 6020TIP3   OH239550   5.702   5.550  12.441 -0.4256  0.6877 -0.3097
 6020TIP3    H139551   5.705   5.454  12.435 -2.7730  0.6711 -2.4011
 6020TIP3    H239552   5.785   5.575  12.482  0.4039 -2.2113 -0.1321
 6021TIP3   OH239553   0.131   1.563   3.476  0.5887  0.0815  0.0506
 6021TIP3    H139554   0.221   1.596   3.473  0.3367  0.8217  0.7025
 6021TIP3    H239555   0.105   1.570   3.568 -0.8395  1.7728 -0.4536
 6022TIP3   OH239556   0.448   3.825  16.001  0.3041 -0.1557 -0.2435
 6022TIP3    H139557   0.450   3.751  15.941  0.1348  0.0325 -0.4807
 6022TIP3    H239558   0.518   3.883  15.971  0.8673 -0.5315  0.3443
 6023TIP3   OH239559   1.610   2.552  12.211 -0.1927  0.4626  0.2460
 6023TIP3    H139560   1.682   2.531  12.152 -0.9303 -2.0416  0.1943
 6023TIP3    H239561   1.607   2.648  12.211  2.8821  0.6306 -0.0289
 6024TIP3   OH239562   6.590   3.278  12.538  0.1881 -0.0779  0.0386
 6024TIP3    H139563   6.550   3.221  12.472 -0.3036  3.1550 -2.5956
 6024TIP3    H239564   6.517   3.329  12.573  0.6664 -0.7646  2.1003
 6025TIP3   OH239565   1.420   0.930  11.514  0.0792 -0.2294  0.4475
 6025TIP3    H139566   1.496   0.975  11.478 -0.8119  0.6169 -0.4445
 6025TIP3    H239567   1.392   0.870  11.445 -0.0287 -0.5777  0.7911
 6026TIP3   OH239568   5.658   5.895  11.655 -0.4000  0.3025  0.3429
 6026TIP3    H139569   5.724   5.831  11.680 -0.8417 -0.7293 -1.0865
 6026TIP3    H239570   5.574   5.854  11.676 -0.6915  0.3689 -0.6661
 6027TIP3   OH239571   2.310   4.673  15.651  0.0431 -0.0424 -0.3054
 6027TIP3    H139572   2.380   4.664  15.586  0.4045 -1.9627  0.3394
 6027TIP3    H239573   2.244   4.610  15.623  0.0657 -0.6521  1.0138
 6028TIP3   OH239574   2.276   1.582   4.383 -0.1628  0.6543 -0.0271
 6028TIP3    H139575   2.231   1.504   4.416  0.0903 -0.2814 -1.8444
 6028TIP3    H239576   2.211   1.624   4.327  0.0800  1.1767  0.0859
 6029TIP3   OH239577   1.273   2.618  13.186  0.7459  0.0038  0.0482
 6029TIP3    H139578   1.204   2.644  13.126  0.0241 -2.7036 -0.3669
 6029TIP3    H239579   1.242   2.647  13.272 -0.7182 -0.8218 -0.1898
 6030TIP3   OH239580   6.684   5.757   3.759 -0.0559 -0.0754 -0.7366
 6030TIP3    H139581   6.756   5.718   3.810 -0.0928 -1.7761 -1.9360
 6030TIP3    H239582   6.630   5.682   3.734 -0.9080  0.9212 -1.9255
 6031TIP3   OH239583   2.051   0.979  10.376  0.5571 -0.3869 -0.2236
 6031TIP3    H139584   2.114   1.039  10.336  1.1765 -0.0239  1.2951
 6031TIP3    H239585   2.075   0.893  10.341  1.4751 -0.1601 -0.1696
 6032TIP3   OH239586   4.504   2.843   2.322  0.1759 -0.3120  0.2815
 6032TIP3    H139587   4.447   2.879   2.254 -2.2517 -0.9898  1.8664
 6032TIP3    H239588   4.523   2.917   2.380  0.8787 -0.0985 -0.2152
 6033TIP3   OH239589   6.015   0.762   2.129 -0.2660 -0.0630 -0.2021
 6033TIP3    H139590   6.021   0.799   2.041  0.0913  1.4482  0.4442
 6033TIP3    H239591   6.105   0.738   2.151  0.3572  3.3465  1.3213
 6034TIP3   OH239592   3.905   6.253  12.167 -0.2739  0.2309  0.6225
 6034TIP3    H139593   3.860   6.302  12.098  1.6347 -0.5013 -1.2091
 6034TIP3    H239594   3.917   6.165  12.130  0.7914 -0.1721  1.8915
 6035TIP3   OH239595   2.196   2.651  10.893  0.3471  0.1658 -0.7471
 6035TIP3    H139596   2.208   2.612  10.807  1.2526 -1.4447  0.0859
 6035TIP3    H239597   2.190   2.577  10.953  0.2275  1.2689  0.6425
 6036TIP3   OH239598   1.961   2.185   3.662 -0.0022  0.0680  0.1599
 6036TIP3    H139599   1.995   2.097   3.678  1.8275  1.3801  4.1647
 6036TIP3    H239600   2.035   2.233   3.624 -0.2276  0.5047  0.2682
 6037TIP3   OH239601   3.894   0.791  13.881 -0.5571 -0.0800  0.4510
 6037TIP3    H139602   3.823   0.831  13.830 -0.6240  0.6349  1.0986
 6037TIP3    H239603   3.974   0.824  13.840 -0.6124  0.7386  0.9969
 6038TIP3   OH239604   3.575   3.058  12.201 -0.2468  0.2904 -0.0117
 6038TIP3    H139605   3.536   3.124  12.258 -2.0730 -0.3874 -0.4502
 6038TIP3    H239606   3.572   2.977  12.253  1.1486  0.3316  0.1773
 6039TIP3   OH239607   1.784   1.522  14.651  0.1640 -0.2004 -0.2887
 6039TIP3    H139608   1.706   1.564  14.614 -0.6518 -2.6089 -1.3654
 6039TIP3    H239609   1.826   1.592  14.701 -1.3320  1.8262 -1.7410
 6040TIP3   OH239610   5.249   3.715   5.475 -0.3541 -0.0253 -0.0212
 6040TIP3    H139611   5.313   3.732   5.545 -0.6734 -2.5964  0.9668
 6040TIP3    H239612   5.302   3.700   5.397  0.2952 -1.7608  0.7128
 6041TIP3   OH239613   2.260   1.835  14.410 -0.6676  0.0530 -0.2027
 6041TIP3    H139614   2.234   1.744  14.427  0.7679 -0.7573 -2.2007
 6041TIP3    H239615   2.316   1.858  14.485 -0.3213 -0.9991 -0.1310
 6042TIP3   OH239616   0.287   1.278  12.744 -0.6000 -0.0856  0.1190
 6042TIP3    H139617   0.323   1.201  12.788 -0.3640  0.3616  0.7173
 6042TIP3    H239618   0.292   1.347  12.810  0.3930  0.7587 -0.8141
 6043TIP3   OH239619   0.694   5.649   1.454  0.2095  0.2985 -0.0803
 6043TIP3    H139620   0.665   5.740   1.445  0.9142  0.5922  0.6017
 6043TIP3    H239621   0.771   5.654   1.510  0.2671 -0.7196 -0.0697
 6044TIP3   OH239622   1.392   5.396   3.931  0.2406  0.0419  0.4700
 6044TIP3    H139623   1.369   5.305   3.911  1.2379 -0.6370  2.2878
 6044TIP3    H239624   1.465   5.415   3.872 -0.3582 -0.1363 -0.3357
 6045TIP3   OH239625   4.749   6.792  13.030 -0.7944 -0.7015 -0.1537
 6045TIP3    H139626   4.708   6.825  12.950 -1.4819 -3.1504 -0.8245
 6045TIP3    H239627   4.841   6.778  13.006 -0.8919 -0.9755 -0.3603
 6046TIP3   OH239628   3.201   0.554  16.309 -0.5983 -0.0773 -0.1499
 6046TIP3    H139629   3.249   0.588  16.233 -0.2752  0.0805  0.1248
 6046TIP3    H239630   3.118   0.523  16.273 -0.3320 -0.2591 -0.6109
 6047TIP3   OH239631   2.424   1.420   1.707 -0.3168  0.2233 -0.1422
 6047TIP3    H139632   2.436   1.405   1.801 -0.5061 -0.5438 -0.2356
 6047TIP3    H239633   2.508   1.456   1.678  0.0333 -0.3284  0.1652
 6048TIP3   OH239634   1.111   4.099  16.131 -0.0130 -0.1358  0.0555
 6048TIP3    H139635   1.027   4.056  16.147 -0.3336  0.5512  0.2418
 6048TIP3    H239636   1.135   4.072  16.043  0.1879 -1.3510  0.4770
 6049TIP3   OH239637   0.116   0.369  13.436 -0.0166 -0.7490  0.1082
 6049TIP3    H139638   0.031   0.326  13.451 -0.0986 -0.8462 -0.6114
 6049TIP3    H239639   0.124   0.373  13.341  0.4467 -0.0519  0.1770
 6050TIP3   OH239640   0.695   3.296   0.901  0.0417 -0.1558 -0.4997
 6050TIP3    H139641   0.659   3.381   0.877 -0.7823 -0.6036 -0.8526
 6050TIP3    H239642   0.619   3.243   0.924  0.6434 -0.4595  0.7978
 6051TIP3   OH239643   2.520   5.601   6.184  0.2622 -0.3145  0.2340
 6051TIP3    H139644   2.496   5.693   6.167 -1.3822 -0.7295  0.2190
 6051TIP3    H239645   2.590   5.606   6.249 -0.9311  0.9251  1.4733
 6052TIP3   OH239646   0.072   5.783  12.070  0.3308  0.1639 -0.0613
 6052TIP3    H139647   0.066   5.762  12.163 -0.3903 -2.0707 -0.5913
 6052TIP3    H239648   0.140   5.725  12.036 -0.2080  0.1536 -1.1556
 6053TIP3   OH239649   0.907   2.270  11.939  0.0131 -0.0899 -0.2198
 6053TIP3    H139650   0.821   2.285  11.977  0.1631 -0.4939  0.2800
 6053TIP3    H239651   0.969   2.310  12.000  0.3477 -1.8514  0.6368
 6054TIP3   OH239652   4.126   0.659   4.358  0.4839 -0.5391 -0.1298
 6054TIP3    H139653   4.160   0.588   4.304 -0.7897 -2.6587  1.7512
 6054TIP3    H239654   4.116   0.620   4.445 -2.4629  1.2603  0.4132
 6055TIP3   OH239655   3.611   0.589  12.950  0.8177 -0.0872  0.0479
 6055TIP3    H139656   3.560   0.661  12.988 -0.2180  0.2493 -1.8767
 6055TIP3    H239657   3.572   0.510  12.987  0.7027  0.2764  0.7123
 6056TIP3   OH239658   0.672   6.567   4.871 -0.5368 -0.0229 -0.7285
 6056TIP3    H139659   0.692   6.644   4.817  1.9196 -1.1458 -1.4949
 6056TIP3    H239660   0.757   6.529   4.891 -1.5350 -0.8395  2.2311
 6057TIP3   OH239661   1.541   6.581  14.923  0.3532 -0.2546 -0.7237
 6057TIP3    H139662   1.580   6.590  14.836  2.1858  0.7630  0.1754
 6057TIP3    H239663   1.616   6.575  14.982 -0.8723  0.3444  0.9194
 6058TIP3   OH239664   4.166   4.082  12.597 -1.0850 -0.2499  0.2812
 6058TIP3    H139665   4.088   4.070  12.543 -2.5074  1.0448  1.9843
 6058TIP3    H239666   4.155   4.020  12.669  0.4999 -1.5393 -0.5573
 6059TIP3   OH239667   6.587   1.457  12.749 -0.0272 -0.3924  0.3066
 6059TIP3    H139668   6.533   1.393  12.793 -0.8957 -1.7487 -2.6029
 6059TIP3    H239669   6.525   1.519  12.711  0.6082 -0.1426 -0.3388
 6060TIP3   OH239670   2.133   5.290  16.637  0.2731 -0.1215 -0.2081
 6060TIP3    H139671   2.095   5.365  16.590  1.4970  0.4486 -0.3240
 6060TIP3    H239672   2.063   5.225  16.641 -0.8572  1.0856  0.0043
 6061TIP3   OH239673   4.481   2.415  14.082  0.2775  0.2119  0.7097
 6061TIP3    H139674   4.501   2.507  14.067  0.6767  0.1848  1.0462
 6061TIP3    H239675   4.503   2.401  14.174  0.0198 -0.1683  0.7154
 6062TIP3   OH239676   3.172   0.692   1.209 -0.1750 -0.3821  0.3066
 6062TIP3    H139677   3.183   0.740   1.291  0.1319  0.7884 -0.4102
 6062TIP3    H239678   3.261   0.673   1.179 -0.2944 -1.2075  0.4865
 6063TIP3   OH239679   4.938   1.895  15.407  0.5347 -0.0327  0.0727
 6063TIP3    H139680   4.929   1.871  15.499 -0.6517 -1.8846 -0.4949
 6063TIP3    H239681   4.852   1.878  15.369  0.1722  3.4195 -0.8028
 6064TIP3   OH239682   5.682   6.130  16.812 -0.2009 -0.2506  0.2385
 6064TIP3    H139683   5.768   6.165  16.787 -0.8308 -0.0052 -1.6544
 6064TIP3    H239684   5.662   6.066  16.744 -0.8312 -1.4609  1.5315
 6065TIP3   OH239685   3.383   0.032  13.900  0.1854 -0.3330 -0.2628
 6065TIP3    H139686   3.380  -0.057  13.864 -0.0719 -0.0031 -1.0649
 6065TIP3    H239687   3.476   0.057  13.894 -0.0023  0.0924 -1.6365
 6066TIP3   OH239688   0.230   3.689   1.726  0.2270 -0.5230 -0.0918
 6066TIP3    H139689   0.163   3.630   1.692 -1.8102  2.1097 -0.7782
 6066TIP3    H239690   0.251   3.746   1.652  0.9072  0.7271  1.0504
 6067TIP3   OH239691   3.212   0.026   0.689  0.1493 -0.0495 -0.2786
 6067TIP3    H139692   3.304   0.003   0.682  0.0758 -0.2605 -0.5600
 6067TIP3    H239693   3.170  -0.051   0.726  0.1837  0.2700  0.4259
 6068TIP3   OH239694   2.388   0.815  13.340  0.1148 -0.4531 -0.2550
 6068TIP3    H139695   2.335   0.892  13.321  1.7023  0.5773 -0.6749
 6068TIP3    H239696   2.462   0.821  13.278  0.7832 -1.7647  0.3897
 6069TIP3   OH239697   1.187   3.761  13.676 -0.3779 -0.0847  0.2150
 6069TIP3    H139698   1.128   3.820  13.631  0.6590  0.2810 -0.6952
 6069TIP3    H239699   1.258   3.817  13.707 -0.4195 -0.5410  1.1378
 6070TIP3   OH239700   6.184   6.786   0.269  0.2779 -0.1716  0.0481
 6070TIP3    H139701   6.136   6.848   0.215  1.2202 -1.4268 -2.2664
 6070TIP3    H239702   6.131   6.778   0.349 -0.7183  2.2881 -0.3223
 6071TIP3   OH239703   5.923   6.602   1.826  0.3314  0.1633 -0.7046
 6071TIP3    H139704   5.863   6.565   1.890  1.0541  1.1902  0.5900
 6071TIP3    H239705   5.934   6.693   1.853 -0.2206  0.9237 -2.9457
 6072TIP3   OH239706   1.905   5.558   4.283  0.2198 -0.1076  0.1605
 6072TIP3    H139707   1.813   5.583   4.283 -0.0914 -1.1859 -1.2730
 6072TIP3    H239708   1.948   5.623   4.227  0.5940  1.2406  1.9729
 6073TIP3   OH239709   6.314   0.821  14.794  0.0239  0.5702 -0.2143
 6073TIP3    H139710   6.403   0.844  14.820  0.5734 -0.6856 -0.9368
 6073TIP3    H239711   6.285   0.756  14.859  0.1085  0.0300 -0.7128
 6074TIP3   OH239712   0.466   4.372  14.581 -0.1296  0.2386  0.4233
 6074TIP3    H139713   0.458   4.463  14.552  0.7671  0.4176  0.7240
 6074TIP3    H239714   0.548   4.341  14.541  0.7484  0.2636  2.1627
 6075TIP3   OH239715   3.413   4.282  16.427  0.1038 -0.2581  0.2577
 6075TIP3    H139716   3.472   4.350  16.395  0.0896 -0.1343  0.4883
 6075TIP3    H239717   3.345   4.330  16.474 -0.2293 -0.3963 -0.0815
 6076TIP3   OH239718   5.241   1.895  14.363 -0.0084 -0.2255  0.4238
 6076TIP3    H139719   5.238   1.859  14.452 -0.7974  1.2340  1.0167
 6076TIP3    H239720   5.149   1.895  14.335 -0.1060  1.8022  0.6637
 6077TIP3   OH239721   0.183   6.423  12.069  0.6990  0.0041  0.3432
 6077TIP3    H139722   0.228   6.486  12.125  0.0337  0.2553  0.5995
 6077TIP3    H239723   0.221   6.338  12.092  1.6493  0.3078 -0.0522
 6078TIP3   OH239724   5.294   1.804   5.262  0.3579 -0.3426 -0.0907
 6078TIP3    H139725   5.285   1.709   5.270  1.5688 -0.3674  0.9976
 6078TIP3    H239726   5.377   1.824   5.303  0.0727  1.2163 -0.2503
 6079TIP3   OH239727   6.511   2.280   4.566  0.1745 -0.6629  0.0862
 6079TIP3    H139728   6.568   2.223   4.514 -1.0258 -1.2902 -0.5572
 6079TIP3    H239729   6.429   2.283   4.517 -0.8392 -0.9307  1.7130
 6080TIP3   OH239730   3.885   5.635  17.278  0.4668  0.0335 -0.1755
 6080TIP3    H139731   3.834   5.654  17.199  0.3239  0.9529  0.1390
 6080TIP3    H239732   3.826   5.583  17.333 -0.1441  1.1355  0.2079
 6081TIP3   OH239733   4.149   3.931   4.064 -0.2420 -0.5575  0.3345
 6081TIP3    H139734   4.115   3.917   4.153 -1.8722 -1.1357 -0.3590
 6081TIP3    H239735   4.139   4.025   4.049  0.2942 -0.4154  0.8673
 6082TIP3   OH239736   5.428   2.448   1.349  0.4004  0.0717 -0.3708
 6082TIP3    H139737   5.388   2.450   1.262  1.5548  0.2755 -0.9041
 6082TIP3    H239738   5.357   2.421   1.408  0.2498 -2.5604 -1.7265
 6083TIP3   OH239739   6.123   3.810   1.047  0.1585  0.6178 -0.0688
 6083TIP3    H139740   6.161   3.894   1.073  0.9846  0.2533 -0.0807
 6083TIP3    H239741   6.029   3.827   1.043  0.3075  1.5157  0.0249
 6084TIP3   OH239742   2.209   1.465   3.512 -0.1680  0.2091  0.1652
 6084TIP3    H139743   2.180   1.409   3.584  0.7517 -1.6699 -0.8887
 6084TIP3    H239744   2.287   1.422   3.477  0.5909  2.1729 -0.6654
 6085TIP3   OH239745   1.531   5.188   3.510  0.2759 -0.0272 -0.5035
 6085TIP3    H139746   1.512   5.102   3.472  0.2023 -1.0601  1.8289
 6085TIP3    H239747   1.445   5.224   3.531  0.3798 -0.1155  0.0843
 6086TIP3   OH239748   6.667   5.471   6.807  0.2265  0.4372 -0.2985
 6086TIP3    H139749   6.676   5.475   6.712 -0.4560  1.3484 -0.3278
 6086TIP3    H239750   6.708   5.551   6.838  2.0213 -0.6903  0.3030
 6087TIP3   OH239751   3.961   2.957  16.656 -0.1111  0.0330  0.0630
 6087TIP3    H139752   4.006   3.031  16.614  0.5207 -0.5449 -0.2862
 6087TIP3    H239753   3.950   2.893  16.586  0.7810 -0.8555  0.7265
 6088TIP3   OH239754   2.523   3.801   1.446 -0.2763  0.5913  0.8687
 6088TIP3    H139755   2.550   3.871   1.387 -1.7662  1.5245  1.2625
 6088TIP3    H239756   2.586   3.805   1.518 -0.1490  1.3283  0.7227
 6089TIP3   OH239757   5.673   0.214  11.632 -0.0783 -0.2459  0.5414
 6089TIP3    H139758   5.584   0.216  11.597 -0.3479 -0.6068  1.1989
 6089TIP3    H239759   5.726   0.182  11.560 -0.3574  0.7100 -0.1047
 6090TIP3   OH239760   2.419   0.001  16.399  0.5267 -0.4037  0.0330
 6090TIP3    H139761   2.368  -0.073  16.433  1.9866 -1.5394 -0.2060
 6090TIP3    H239762   2.353   0.069  16.382 -0.8830 -1.7487 -0.0440
 6091TIP3   OH239763   3.897   4.689  14.748 -0.1225 -0.0959 -0.2936
 6091TIP3    H139764   3.939   4.608  14.778  0.7243  0.6374  0.4962
 6091TIP3    H239765   3.834   4.659  14.682  0.6121 -1.3440 -0.4544
 6092TIP3   OH239766   0.777   2.575   6.380 -0.1587 -0.7453  0.1148
 6092TIP3    H139767   0.824   2.650   6.345  0.0581 -0.5340  0.8560
 6092TIP3    H239768   0.815   2.561   6.467 -2.9716  0.7983  1.6652
 6093TIP3   OH239769   2.440   6.816  11.197 -0.0864 -0.5725  0.1272
 6093TIP3    H139770   2.504   6.747  11.177 -1.8969 -2.6974  1.4508
 6093TIP3    H239771   2.438   6.821  11.292 -1.9331 -0.5840  0.1096
 6094TIP3   OH239772   0.971   4.547  14.596  0.0707 -0.2155  0.2756
 6094TIP3    H139773   0.918   4.607  14.649 -0.4307 -1.1199  0.8122
 6094TIP3    H239774   0.950   4.570  14.506  0.0764  0.5896  0.4746
 6095TIP3   OH239775   4.485   2.810  17.079  0.2737  0.0503 -0.2031
 6095TIP3    H139776   4.539   2.862  17.138 -2.1637  1.1314  1.1362
 6095TIP3    H239777   4.545   2.744  17.044  2.4451  1.1926  1.2285
 6096TIP3   OH239778   2.013   1.082  14.295 -0.3705 -0.3982 -0.5883
 6096TIP3    H139779   1.963   1.162  14.278  0.7913  0.4746 -0.0643
 6096TIP3    H239780   2.099   1.100  14.257  0.0381 -1.2345 -0.0701
 6097TIP3   OH239781   4.837   0.312   2.278  0.6354 -0.4280 -0.3300
 6097TIP3    H139782   4.840   0.243   2.212  0.1243 -1.7519  1.0049
 6097TIP3    H239783   4.758   0.362   2.257  0.9020 -0.3618 -1.1861
 6098TIP3   OH239784   1.403   4.931  14.868  0.2430 -0.3965  0.4563
 6098TIP3    H139785   1.488   4.919  14.911  0.6092 -1.8966 -0.6334
 6098TIP3    H239786   1.339   4.911  14.937  0.7747  0.3431  1.1730
 6099TIP3   OH239787   1.611   6.811  13.147 -0.8231 -0.3769 -0.1978
 6099TIP3    H139788   1.608   6.751  13.072 -0.6669  1.5139 -1.7264
 6099TIP3    H239789   1.550   6.881  13.125  0.9301  1.3956  0.3919
 6100TIP3   OH239790   6.515   1.141  16.412 -0.1522  0.3517  0.3368
 6100TIP3    H139791   6.569   1.159  16.488  1.4810 -1.0927 -0.4302
 6100TIP3    H239792   6.484   1.051  16.426  0.2266  0.0446 -0.6971
 6101TIP3   OH239793   3.932   5.821   1.791 -0.0588 -0.2296  0.1852
 6101TIP3    H139794   3.864   5.888   1.804  0.7499  0.3874  1.3033
 6101TIP3    H239795   4.011   5.859   1.830  0.6440 -1.4485 -0.0270
 6102TIP3   OH239796   4.536   5.772  14.723  0.3835  0.3145  0.0858
 6102TIP3    H139797   4.459   5.827  14.735  0.7123  1.1015 -1.1638
 6102TIP3    H239798   4.505   5.697  14.673  0.7085  1.4946 -1.9954
 6103TIP3   OH239799   2.005   5.902  12.396  0.1835 -0.2208  0.0912
 6103TIP3    H139800   1.942   5.964  12.360 -0.4550 -2.2816 -2.5204
 6103TIP3    H239801   2.017   5.929  12.487 -1.5790  2.4792 -0.4357
 6104TIP3   OH239802   2.655   1.407  13.580 -0.3768  0.7301  0.3342
 6104TIP3    H139803   2.666   1.395  13.485  1.1263 -1.6427  0.7429
 6104TIP3    H239804   2.562   1.392  13.596 -0.1166 -2.0840 -0.4263
 6105TIP3   OH239805   5.608   1.342   4.685  0.3457 -0.3324 -0.0666
 6105TIP3    H139806   5.659   1.311   4.611  0.3477 -1.0394  0.2348
 6105TIP3    H239807   5.641   1.294   4.760  1.1259  1.1975  0.6021
 6106TIP3   OH239808   1.550   6.271   0.636 -0.3895 -0.3254 -0.1707
 6106TIP3    H139809   1.574   6.350   0.685 -2.1633 -0.2159  0.5804
 6106TIP3    H239810   1.455   6.278   0.626 -0.6376 -2.6208  0.3376
 6107TIP3   OH239811   2.168   4.432   0.839  0.2451  0.3457 -0.0440
 6107TIP3    H139812   2.137   4.360   0.894 -0.4856  0.4434 -0.3208
 6107TIP3    H239813   2.101   4.500   0.849  0.9752  1.0244  0.2897
 6108TIP3   OH239814   5.815   4.549   1.523  0.5138 -0.1280 -0.8997
 6108TIP3    H139815   5.808   4.521   1.614  1.7100 -0.6025 -0.9313
 6108TIP3    H239816   5.791   4.471   1.472 -1.2449  0.4690 -0.9956
 6109TIP3   OH239817   1.633   6.494  15.669  0.4652 -0.6175 -0.2549
 6109TIP3    H139818   1.620   6.514  15.576  1.1342  1.2721  0.0196
 6109TIP3    H239819   1.558   6.533  15.713  1.6037  1.0667  0.2613
 6110TIP3   OH239820   5.691   1.252   6.394  0.1147  0.2133  0.0471
 6110TIP3    H139821   5.749   1.299   6.334  0.7078 -0.5762 -0.0118
 6110TIP3    H239822   5.742   1.176   6.423 -1.1289 -0.8884 -0.5594
 6111TIP3   OH239823   4.113   4.854  16.983 -0.0115 -0.5214  0.2752
 6111TIP3    H139824   4.030   4.857  16.936  0.3805 -0.4337 -0.4227
 6111TIP3    H239825   4.136   4.946  16.996 -0.3086 -0.5437  0.9839
 6112TIP3   OH239826   1.123   3.567  15.812  0.0518 -0.3655 -0.4312
 6112TIP3    H139827   1.091   3.524  15.891  1.5141 -2.4295 -0.9083
 6112TIP3    H239828   1.192   3.509  15.780  3.1224  3.0391 -0.3577
 6113TIP3   OH239829   5.274   5.118  15.848  0.6563 -0.0833 -0.0288
 6113TIP3    H139830   5.287   5.210  15.823  0.6418 -0.6004 -2.0966
 6113TIP3    H239831   5.303   5.113  15.939  1.3993  1.8033 -0.1392
 6114TIP3   OH239832   1.478   2.626   4.808  0.0427 -0.1481  0.2644
 6114TIP3    H139833   1.542   2.585   4.866 -1.9580 -0.8031  2.0606
 6114TIP3    H239834   1.422   2.554   4.780  0.2964  0.3540 -1.6207
 6115TIP3   OH239835   2.912   6.034  13.884 -0.5390  0.4181  0.0255
 6115TIP3    H139836   2.951   5.949  13.904  0.5112  0.5789 -1.2952
 6115TIP3    H239837   2.894   6.073  13.970  0.8794 -0.2623  0.6465
 6116TIP3   OH239838   6.623   1.273   1.704 -0.7785  0.0983  0.0512
 6116TIP3    H139839   6.687   1.321   1.758  0.5152  1.4923 -2.6154
 6116TIP3    H239840   6.587   1.207   1.763 -0.8383  2.7956  3.1625
 6117TIP3   OH239841   4.066   6.078  12.441 -0.2757 -0.6446  0.1135
 6117TIP3    H139842   4.089   5.995  12.400 -0.8905  0.1691 -1.9477
 6117TIP3    H239843   4.146   6.131  12.435 -0.0111 -0.9207  1.0508
 6118TIP3   OH239844   6.448   0.333  17.055 -0.5614 -0.1730 -0.0726
 6118TIP3    H139845   6.382   0.372  17.111  0.1408  0.8234  0.0690
 6118TIP3    H239846   6.453   0.391  16.979  0.1035 -0.2808 -0.1154
 6119TIP3   OH239847   5.630   5.893   5.005 -0.0818  0.5923 -0.7966
 6119TIP3    H139848   5.654   5.975   4.961  0.6610  0.1516 -1.2168
 6119TIP3    H239849   5.677   5.825   4.957  0.7107  0.0964  0.6522
 6120TIP3   OH239850   1.803   1.526  11.780  0.0855  0.0134  0.0101
 6120TIP3    H139851   1.765   1.470  11.712  2.1791 -1.4008 -0.0217
 6120TIP3    H239852   1.843   1.599  11.732  0.1461 -0.1301 -0.1559
 6121TIP3   OH239853   5.979   5.652   3.632  0.1729  0.5097 -0.5631
 6121TIP3    H139854   5.900   5.651   3.578 -0.7869 -1.3913  0.8280
 6121TIP3    H239855   5.998   5.560   3.649  3.2420  0.8895 -1.6086
 6122TIP3   OH239856   6.663   4.723   0.333 -0.0401  0.6262  0.5012
 6122TIP3    H139857   6.671   4.698   0.424  0.4940 -1.4920 -0.1153
 6122TIP3    H239858   6.577   4.691   0.306  0.2471  0.2977 -0.0356
 6123TIP3   OH239859   3.134   0.912   0.936  0.9605  0.1523 -0.1492
 6123TIP3    H139860   3.049   0.899   0.977 -0.5171  1.2316 -2.7336
 6123TIP3    H239861   3.151   1.005   0.944  2.7120 -0.3143  1.8318
 6124TIP3   OH239862   1.317   0.208   3.278  0.0864  0.1742 -0.4943
 6124TIP3    H139863   1.254   0.158   3.227  0.5388 -0.8925 -0.0294
 6124TIP3    H239864   1.398   0.158   3.271  0.5799  0.9244 -0.1381
 6125TIP3   OH239865   3.978   3.799  15.491  0.2952  0.3247 -0.0868
 6125TIP3    H139866   3.908   3.763  15.436 -2.2400  1.9363  1.9410
 6125TIP3    H239867   3.936   3.871  15.538  3.1118  0.7341  1.9047
 6126TIP3   OH239868   1.975   6.390   3.497  0.1236  0.2278 -0.3122
 6126TIP3    H139869   1.968   6.347   3.582  0.1150 -0.1924 -0.5256
 6126TIP3    H239870   2.067   6.417   3.491  0.4178 -0.8161 -0.6822
 6127TIP3   OH239871   4.366   0.549   2.783  0.5211 -0.7855 -0.2044
 6127TIP3    H139872   4.318   0.630   2.765  1.0855 -0.7807 -1.8062
 6127TIP3    H239873   4.300   0.480   2.773 -0.3217 -0.4566  2.6683
 6128TIP3   OH239874   6.217   5.677   3.269 -0.2150  0.1338  0.4878
 6128TIP3    H139875   6.152   5.747   3.267 -0.9583 -0.5036  1.8216
 6128TIP3    H239876   6.300   5.721   3.250 -1.2009  0.7288 -2.6041
 6129TIP3   OH239877   0.776   2.698  11.253  0.6977 -0.0187  0.0382
 6129TIP3    H139878   0.771   2.734  11.342 -0.7131 -0.5630  0.1952
 6129TIP3    H239879   0.842   2.752  11.209  1.6038  0.0864  1.4887
 6130TIP3   OH239880   6.424   5.303  14.095  0.6769  0.2476  0.2914
 6130TIP3    H139881   6.407   5.241  14.024  0.4919  0.4012  0.2001
 6130TIP3    H239882   6.505   5.271  14.135  0.4799 -0.1581  0.3670
 6131TIP3   OH239883   1.930   4.557  11.600 -0.6268 -0.1720 -0.0078
 6131TIP3    H139884   1.965   4.604  11.676  0.3314  0.3454 -0.7499
 6131TIP3    H239885   1.903   4.472  11.634  0.5777 -0.2593  0.7694
 6132TIP3   OH239886   5.531   5.458  16.167  0.5847 -0.2603 -0.1772
 6132TIP3    H139887   5.478   5.518  16.218 -1.9424 -2.1736 -0.4023
 6132TIP3    H239888   5.558   5.390  16.229  1.6379 -0.0033 -0.3496
 6133TIP3   OH239889   5.716   4.574  13.473 -0.3952  0.0541 -0.1011
 6133TIP3    H139890   5.782   4.505  13.466  0.9426  1.0948  2.0396
 6133TIP3    H239891   5.634   4.527  13.487  0.4875 -1.1237  1.2196
 6134TIP3   OH239892   4.100   1.095  17.240 -0.0657 -0.1235  0.0690
 6134TIP3    H139893   4.136   1.183  17.227  1.5970 -0.7544  0.2146
 6134TIP3    H239894   4.121   1.048  17.160 -3.4455  0.3792 -1.1867
 6135TIP3   OH239895   6.047   4.434  16.244  0.2186  0.1003  0.2227
 6135TIP3    H139896   6.128   4.431  16.295  0.7684  0.0023 -0.6423
 6135TIP3    H239897   6.038   4.526  16.218  0.0061  0.1268  0.3871
 6136TIP3   OH239898   5.309   1.479  16.779  0.1819  0.1330  0.1954
 6136TIP3    H139899   5.231   1.449  16.731  0.0891 -1.1800  1.1506
 6136TIP3    H239900   5.275   1.514  16.861  0.6200 -0.8720  0.8187
 6137TIP3   OH239901   1.211   2.274   0.758 -0.3487 -0.2597  0.1823
 6137TIP3    H139902   1.259   2.192   0.745  1.6610  0.4406  2.6015
 6137TIP3    H239903   1.132   2.249   0.805 -0.0223 -0.9036  0.3960
 6138TIP3   OH239904   6.742   6.280  16.346 -0.2704  0.2542 -0.2898
 6138TIP3    H139905   6.748   6.203  16.289  1.4817 -0.7440  1.1669
 6138TIP3    H239906   6.776   6.352  16.294  0.1914 -0.4111 -0.9090
 6139TIP3   OH239907   1.371   3.956  16.911 -0.4536  0.4790  0.1409
 6139TIP3    H139908   1.343   4.040  16.949  1.7288  0.9461  0.7530
 6139TIP3    H239909   1.433   3.980  16.842 -2.1729 -0.5157 -1.8058
 6140TIP3   OH239910   5.536   1.950   5.036  0.3579 -0.3410  0.0708
 6140TIP3    H139911   5.522   1.857   5.020  0.1298 -0.2380 -0.3375
 6140TIP3    H239912   5.628   1.956   5.060  0.1754 -0.7732  0.8914
 6141TIP3   OH239913   2.187   1.218   1.905  0.5234 -0.1153 -0.0589
 6141TIP3    H139914   2.142   1.252   1.828  2.0826  1.9479 -0.1010
 6141TIP3    H239915   2.213   1.129   1.881  0.7796  0.4298 -1.8230
 6142TIP3   OH239916   6.158   1.991  14.099  0.3370 -0.2425  0.3443
 6142TIP3    H139917   6.081   1.943  14.069  0.1521  0.4639 -0.3450
 6142TIP3    H239918   6.230   1.955  14.047  0.3020 -0.2092  0.2727
 6143TIP3   OH239919   3.440   2.381  16.764  0.4238  0.3906 -0.0523
 6143TIP3    H139920   3.442   2.404  16.671  1.5562  1.4879  0.2300
 6143TIP3    H239921   3.489   2.451  16.807 -0.8182  0.3451  1.4772
 6144TIP3   OH239922   6.131   3.397   2.499  0.1968  0.3747  0.2265
 6144TIP3    H139923   6.067   3.330   2.475 -0.7090  0.5733  2.0116
 6144TIP3    H239924   6.085   3.480   2.483 -0.1886  0.5129  2.0092
 6145TIP3   OH239925   4.280   5.216   5.400  0.2004  0.5740  0.1628
 6145TIP3    H139926   4.359   5.267   5.418 -0.7253  2.2744 -0.5442
 6145TIP3    H239927   4.210   5.261   5.447 -0.8199  0.5866 -1.3300
 6146TIP3   OH239928   1.888   3.493   2.095  0.0877  0.2076 -0.2900
 6146TIP3    H139929   1.877   3.399   2.076  0.9839  0.1329 -0.4935
 6146TIP3    H239930   1.840   3.537   2.025  0.0410 -0.0994 -0.4557
 6147TIP3   OH239931   3.238   5.115   5.832  0.0603 -0.2831 -0.1964
 6147TIP3    H139932   3.286   5.149   5.907 -0.4268 -1.3779  0.6330
 6147TIP3    H239933   3.274   5.162   5.757  0.5322  0.8555  0.7163
 6148TIP3   OH239934   4.881   2.675  13.091 -0.5108 -0.1402  0.4961
 6148TIP3    H139935   4.946   2.744  13.083  0.5315 -1.0161  1.1754
 6148TIP3    H239936   4.876   2.636  13.004  0.1340 -0.2983  0.5302
 6149TIP3   OH239937   3.023   6.187  16.017  0.0320  0.4431 -0.2197
 6149TIP3    H139938   2.987   6.108  15.977  3.5766 -1.7804  0.7471
 6149TIP3    H239939   3.084   6.221  15.951 -1.2030  2.2143 -0.4833
 6150TIP3   OH239940   1.246   1.884  13.857  0.0634 -0.7347  0.3177
 6150TIP3    H139941   1.342   1.888  13.860  0.0772  0.2163 -0.9732
 6150TIP3    H239942   1.221   1.961  13.806 -1.4371 -0.5404  1.3169
 6151TIP3   OH239943   1.668   4.314   2.272  0.2769  0.0240 -0.1772
 6151TIP3    H139944   1.675   4.364   2.354 -0.1985 -0.0709 -0.0774
 6151TIP3    H239945   1.756   4.280   2.257  0.3996  0.1636  0.2206
 6152TIP3   OH239946   6.519   6.242   3.522 -0.2014 -0.0177 -0.4858
 6152TIP3    H139947   6.533   6.287   3.439  2.0991 -0.6556 -0.5003
 6152TIP3    H239948   6.519   6.149   3.499 -2.0022 -0.1399 -0.0738
 6153TIP3   OH239949   4.307   1.168  11.058  0.3723  0.1652  0.4437
 6153TIP3    H139950   4.356   1.089  11.080 -1.6818 -1.0145  1.0020
 6153TIP3    H239951   4.300   1.168  10.963 -0.1038 -0.6584  0.4734
 6154TIP3   OH239952   0.704   5.355   1.428 -0.3983 -0.1904  0.6056
 6154TIP3    H139953   0.623   5.397   1.457 -0.3504 -0.4656  1.1503
 6154TIP3    H239954   0.756   5.346   1.508 -0.2175 -0.8646  0.4121
 6155TIP3   OH239955   4.004   3.337   1.962 -0.0051  0.4974 -0.1694
 6155TIP3    H139956   3.975   3.248   1.944 -2.5719  0.6533  2.7858
 6155TIP3    H239957   4.088   3.326   2.006 -0.8071 -0.5675  1.1421
 6156TIP3   OH239958   3.844   6.676   6.535 -0.1521  0.5584 -0.4821
 6156TIP3    H139959   3.885   6.698   6.451 -0.8886 -0.6697 -1.1943
 6156TIP3    H239960   3.761   6.725   6.535  0.4632  1.6198  0.1478
 6157TIP3   OH239961   0.696   6.172  15.693  0.4193  0.5485 -0.5994
 6157TIP3    H139962   0.746   6.214  15.622  0.5979  1.3650  0.0046
 6157TIP3    H239963   0.605   6.179  15.666  0.6550 -1.6220 -2.0779
 6158TIP3   OH239964   0.582   1.346   1.509  0.2705 -0.0268  0.6287
 6158TIP3    H139965   0.523   1.373   1.439 -0.9616  0.0655  1.6767
 6158TIP3    H239966   0.624   1.267   1.476 -0.3717 -0.0318 -0.1787
 6159TIP3   OH239967   5.947   2.288   1.736  0.2320  0.3747  0.2853
 6159TIP3    H139968   5.927   2.194   1.738  0.1877  0.3515 -0.6501
 6159TIP3    H239969   6.021   2.299   1.794  1.5620 -0.5790 -1.1966
 6160TIP3   OH239970   1.533   0.701   5.409  0.7772 -0.0025 -0.0911
 6160TIP3    H139971   1.576   0.754   5.342 -1.2271 -1.2059 -2.3848
 6160TIP3    H239972   1.439   0.713   5.393  0.2212  0.2965  3.0163
 6161TIP3   OH239973   3.102   0.781   4.959 -0.0614  0.1783 -0.0244
 6161TIP3    H139974   3.096   0.692   4.993 -0.0861 -0.2522 -1.1370
 6161TIP3    H239975   3.017   0.820   4.980  0.1001  0.0796  0.8299
 6162TIP3   OH239976   4.030   0.290   3.747  0.3865  0.2475  0.1427
 6162TIP3    H139977   4.114   0.246   3.762 -0.6939 -1.6599  0.6916
 6162TIP3    H239978   4.012   0.275   3.654  0.9530  1.2339 -0.1388
 6163TIP3   OH239979   4.439   6.535  10.572  0.1752  0.0068  0.0022
 6163TIP3    H139980   4.465   6.575  10.489 -2.0900 -1.4512 -1.4441
 6163TIP3    H239981   4.378   6.598  10.610 -1.5357 -0.9656 -1.1327
 6164TIP3   OH239982   5.885   3.101  12.918 -0.4284 -0.0532 -0.8966
 6164TIP3    H139983   5.875   3.025  12.975 -1.4379 -0.1612 -1.2084
 6164TIP3    H239984   5.797   3.136  12.909 -0.0400  0.8769 -1.1434
 6165TIP3   OH239985   4.007   2.682  10.677  0.1753  0.2203 -0.0807
 6165TIP3    H139986   4.023   2.676  10.582 -1.8172  0.2012 -0.4460
 6165TIP3    H239987   3.962   2.766  10.688 -0.5931 -0.2855  0.6783
 6166TIP3   OH239988   1.593   4.724   5.062 -0.4243  0.7582  0.3205
 6166TIP3    H139989   1.497   4.717   5.057 -0.3288  0.2175 -0.8385
 6166TIP3    H239990   1.625   4.641   5.026  0.4887  1.0121  0.5441
 6167TIP3   OH239991   2.795   4.358   1.294  0.5096  0.2444 -0.0400
 6167TIP3    H139992   2.802   4.393   1.383 -1.1762 -1.9804  0.9978
 6167TIP3    H239993   2.727   4.291   1.299  1.5317 -1.0725 -2.6638
 6168TIP3   OH239994   6.284   2.492   3.477 -0.8906 -0.1011  0.1836
 6168TIP3    H139995   6.307   2.580   3.446 -1.5906 -0.0998 -0.3412
 6168TIP3    H239996   6.268   2.503   3.571  0.5991  0.0188  0.4297
 6169TIP3   OH239997   3.648   5.463  16.432 -0.8233 -0.4772 -0.0309
 6169TIP3    H139998   3.613   5.488  16.517  0.2505 -2.2205  0.9569
 6169TIP3    H239999   3.581   5.406  16.394 -1.7818  1.1502 -0.8466
 6170TIP3   OH240000   2.416   3.824  14.323 -0.3825  0.0440 -0.3132
 6170TIP3    H140001   2.333   3.776  14.318  0.3930 -1.4312  0.6934
 6170TIP3    H240002   2.418   3.876  14.242 -1.4200 -1.3182 -1.2425
 6171TIP3   OH240003   2.988   3.559  15.570  0.1096 -0.0123  0.2833
 6171TIP3    H140004   2.984   3.464  15.564  2.0969 -0.0078 -2.2025
 6171TIP3    H240005   2.898   3.588  15.555 -0.1626 -1.4536 -1.0272
 6172TIP3   OH240006   1.834   6.806  13.328 -0.4010 -0.5536 -0.5809
 6172TIP3    H140007   1.766   6.811  13.261 -0.3077 -0.4832 -0.6705
 6172TIP3    H240008   1.787   6.814  13.411 -0.4145  0.2876 -0.6659
 6173TIP3   OH240009   0.831   6.151   2.219 -0.2870  0.1315  0.9621
 6173TIP3    H140010   0.803   6.085   2.282  0.6256  0.0217  1.2560
 6173TIP3    H240011   0.755   6.209   2.211 -0.6894 -0.2997  1.5693
 6174TIP3   OH240012   0.556   0.054  13.171  0.7046 -0.0365  0.7489
 6174TIP3    H140013   0.532   0.103  13.093 -1.9465  0.4279  1.7801
 6174TIP3    H240014   0.554  -0.038  13.144 -0.3084  0.1201  0.2677
 6175TIP3   OH240015   6.136   0.229   4.521 -0.6263  0.3637  0.1951
 6175TIP3    H140016   6.214   0.226   4.576 -0.3561 -0.2329 -0.2159
 6175TIP3    H240017   6.120   0.323   4.507  1.3982  0.4626 -1.6650
 6176TIP3   OH240018   6.721   2.516   5.364 -0.6046 -0.1662  0.1873
 6176TIP3    H140019   6.630   2.545   5.373 -1.0680 -1.4402 -0.2070
 6176TIP3    H240020   6.766   2.554   5.439 -1.2839  1.1424 -0.0608
 6177TIP3   OH240021   1.770   4.334  11.676 -0.4336  0.1954  0.0818
 6177TIP3    H140022   1.783   4.279  11.599  0.1237  0.6435 -0.1503
 6177TIP3    H240023   1.822   4.293  11.745 -1.8605 -0.8639  0.5507
 6178TIP3   OH240024   1.662   5.353   1.968 -0.6661 -0.0461 -0.0731
 6178TIP3    H140025   1.715   5.312   2.036  0.4070  1.1475 -0.1700
 6178TIP3    H240026   1.649   5.443   1.998 -1.9881 -0.0944 -0.4382
 6179TIP3   OH240027   6.666   4.000  11.296 -0.2557 -0.2337  0.4206
 6179TIP3    H140028   6.697   3.962  11.379  0.0655 -1.5352 -0.2849
 6179TIP3    H240029   6.729   4.070  11.277  1.4921 -1.9807 -0.3135
 6180TIP3   OH240030   1.160   5.524   4.776  0.3762 -0.1274 -0.4763
 6180TIP3    H140031   1.132   5.615   4.787  1.1728 -0.0450  1.0366
 6180TIP3    H240032   1.136   5.481   4.858  1.2024 -0.9524 -0.6546
 6181TIP3   OH240033   1.283   5.793   5.692 -0.8966 -0.0850  0.1889
 6181TIP3    H140034   1.292   5.829   5.603 -0.1499  1.6413  0.9279
 6181TIP3    H240035   1.369   5.755   5.711 -1.5285 -1.8485 -0.3915
 6182TIP3   OH240036   2.748   2.601   5.694  0.1966 -0.6000 -0.3600
 6182TIP3    H140037   2.747   2.677   5.752 -3.7150 -0.6148 -0.2594
 6182TIP3    H240038   2.729   2.637   5.607  2.0638 -1.0501 -0.9726
 6183TIP3   OH240039   1.617   5.319   6.699 -1.0446  0.2403  0.1478
 6183TIP3    H140040   1.655   5.403   6.671 -2.0050  0.7409  0.3507
 6183TIP3    H240041   1.686   5.280   6.753 -0.9762  1.3487  0.8814
 6184TIP3   OH240042   4.314   1.149   4.255 -0.2133 -0.1807  0.1393
 6184TIP3    H140043   4.399   1.153   4.299 -0.4766  0.7272  0.5786
 6184TIP3    H240044   4.272   1.070   4.290 -0.5491  0.6947  1.7621
 6185TIP3   OH240045   0.322   1.951   3.605  0.1260 -0.3871 -0.3602
 6185TIP3    H140046   0.232   1.967   3.578  0.0148 -0.8266 -0.2565
 6185TIP3    H240047   0.315   1.916   3.694  0.4349  0.1747 -0.1098
 6186TIP3   OH240048   4.983   6.476  15.020 -0.3447 -0.1994 -0.1674
 6186TIP3    H140049   5.076   6.490  15.002  0.0503 -2.2123  0.1733
 6186TIP3    H240050   4.980   6.452  15.112 -1.0508 -1.3330 -0.4709
 6187TIP3   OH240051   1.544   5.485   2.910  0.1380  0.6950 -0.4691
 6187TIP3    H140052   1.619   5.502   2.968 -0.9144  1.3925  0.7143
 6187TIP3    H240053   1.582   5.480   2.822  1.8892 -1.2309  0.3576
 6188TIP3   OH240054   4.026   1.122   0.918 -0.0347  0.5160 -0.7914
 6188TIP3    H140055   4.053   1.077   0.838  1.9140  0.8674 -0.3430
 6188TIP3    H240056   4.047   1.214   0.902  0.5555  0.5595  0.2170
 6189TIP3   OH240057   5.735   4.816  15.038  0.1487 -0.4396  0.1849
 6189TIP3    H140058   5.712   4.874  15.111 -0.5079 -0.0007 -0.3621
 6189TIP3    H240059   5.701   4.731  15.063  0.0912 -0.3287  0.4800
 6190TIP3   OH240060   4.565   3.139   2.213 -0.1762 -0.0274 -0.1996
 6190TIP3    H140061   4.641   3.085   2.237  0.2650  0.6874  0.0240
 6190TIP3    H240062   4.520   3.088   2.146  0.1918 -0.7132  0.0655
 6191TIP3   OH240063   5.373   4.270   4.891  0.0008 -0.2429  0.1900
 6191TIP3    H140064   5.334   4.268   4.979  1.6288 -1.2765  0.9220
 6191TIP3    H240065   5.452   4.324   4.902 -1.7403  2.7739 -1.5162
 6192TIP3   OH240066   3.976   5.487  13.208  0.6938 -0.2724  0.0402
 6192TIP3    H140067   4.034   5.411  13.210  1.5124  0.2880 -1.3024
 6192TIP3    H240068   3.998   5.535  13.288  0.4557 -1.2352  0.6930
 6193TIP3   OH240069   4.584   5.599  15.462  0.4952 -0.0737 -0.4108
 6193TIP3    H140070   4.623   5.563  15.541 -1.9485  1.4282  1.5133
 6193TIP3    H240071   4.633   5.679  15.445  0.3433  0.1349  0.1537
 6194TIP3   OH240072   6.806   6.510  14.640 -0.1391 -0.2479 -0.0576
 6194TIP3    H140073   6.717   6.485  14.614 -0.5649  0.8744  0.2993
 6194TIP3    H240074   6.855   6.428  14.637 -1.0084 -0.7569 -0.9701
 6195TIP3   OH240075   3.372   5.711  16.480 -0.5211 -0.6226  0.2533
 6195TIP3    H140076   3.374   5.802  16.508  0.1525 -0.5410 -0.0630
 6195TIP3    H240077   3.417   5.663  16.549  1.0059 -0.4408 -0.5875
 6196TIP3   OH240078   3.350   0.693   2.937 -0.1817 -0.2479  0.2265
 6196TIP3    H140079   3.444   0.698   2.952 -0.0186 -0.4616 -0.7133
 6196TIP3    H240080   3.337   0.735   2.852 -1.1461  1.2968  1.1118
 6197TIP3   OH240081   3.023   4.911   4.408 -0.1928 -0.0343 -0.0739
 6197TIP3    H140082   3.064   4.841   4.358 -0.0217 -0.7155  0.9880
 6197TIP3    H240083   3.015   4.875   4.497  0.4079  1.4844  0.6162
 6198TIP3   OH240084   2.495   4.430  15.938 -0.2803  0.9137 -0.2909
 6198TIP3    H140085   2.535   4.366  15.879  1.3055  1.3629  0.2629
 6198TIP3    H240086   2.409   4.395  15.957 -0.5257  0.3785 -2.2698
 6199TIP3   OH240087   1.313   5.880   4.804 -0.1560  0.4075  0.4971
 6199TIP3    H140088   1.278   5.840   4.724  0.8250 -1.3106  0.8803
 6199TIP3    H240089   1.361   5.957   4.774 -0.1555  0.0167 -0.5201
 6200TIP3   OH240090   0.682   0.197   5.830 -0.4082  0.0467 -0.6636
 6200TIP3    H140091   0.747   0.140   5.788 -0.2855 -0.8070  0.6468
 6200TIP3    H240092   0.720   0.285   5.825  0.4742 -0.3276 -0.6594
 6201TIP3   OH240093   2.165   3.086   0.366 -0.4354  0.4354  0.0724
 6201TIP3    H140094   2.092   3.046   0.414 -1.5139  1.0815 -1.0149
 6201TIP3    H240095   2.177   3.171   0.408  0.7733 -0.3262  1.3068
 6202TIP3   OH240096   0.082   4.332   1.299  0.3951  0.3987 -0.2087
 6202TIP3    H140097   0.141   4.276   1.350 -2.0076  0.1490  2.4155
 6202TIP3    H240098   0.103   4.421   1.328 -0.2427  0.3380  0.4512
 6203TIP3   OH240099   2.149   5.407  12.195 -0.0271  0.2410 -0.5385
 6203TIP3    H140100   2.140   5.312  12.203  1.2758  0.2016  0.6286
 6203TIP3    H240101   2.131   5.425  12.103  0.7165 -1.2651 -1.0038
 6204TIP3   OH240102   0.509   6.500  11.149  0.7146 -0.7781 -0.3585
 6204TIP3    H140103   0.508   6.441  11.224  0.3732  2.1377  2.0145
 6204TIP3    H240104   0.602   6.514  11.131  0.8424  0.5615  1.2373
 6205TIP3   OH240105   3.999   5.586   3.134 -0.0285  0.7869  0.2960
 6205TIP3    H140106   4.037   5.533   3.064  0.5344 -0.1781  1.3153
 6205TIP3    H240107   3.904   5.579   3.120  0.0596  0.0444  0.0412
 6206TIP3   OH240108   1.534   4.193  12.526  0.3185  0.3329 -0.2297
 6206TIP3    H140109   1.441   4.177  12.508  0.3840 -0.9645  0.4732
 6206TIP3    H240110   1.569   4.226  12.443 -0.5505 -0.1772 -0.8185
 6207TIP3   OH240111   5.132   0.666   5.819  0.4848 -0.4075  0.4822
 6207TIP3    H140112   5.101   0.740   5.766 -0.9523 -1.2199  0.1753
 6207TIP3    H240113   5.110   0.691   5.909  0.4035 -0.2573  0.4219
 6208TIP3   OH240114   6.396   4.087   5.735 -0.3892 -0.2175 -0.6313
 6208TIP3    H140115   6.476   4.131   5.765 -1.1789  1.3438 -0.7758
 6208TIP3    H240116   6.358   4.148   5.672 -0.6980 -1.8173 -2.0210
 6209TIP3   OH240117   4.212   6.767  12.430  0.3646  0.3506 -0.1868
 6209TIP3    H140118   4.172   6.688  12.467  1.3251  0.7395  1.7400
 6209TIP3    H240119   4.149   6.837  12.449 -0.7838 -0.0239 -2.4552
 6210TIP3   OH240120   4.421   5.929  12.124  0.6377 -0.3534 -0.0756
 6210TIP3    H140121   4.437   5.984  12.200  1.6194  1.7593 -1.7631
 6210TIP3    H240122   4.505   5.884  12.109 -0.5646 -3.6072  2.1964
 6211TIP3   OH240123   0.671   6.343  14.186  0.9635  0.3703  0.4414
 6211TIP3    H140124   0.662   6.255  14.223  2.0578 -0.4851 -1.2427
 6211TIP3    H240125   0.582   6.378  14.186  0.5651 -0.6161  1.4154
 6212TIP3   OH240126   1.388   0.908   4.541 -0.0324  0.0371 -0.6865
 6212TIP3    H140127   1.337   0.879   4.616  2.9785 -1.1093  1.0245
 6212TIP3    H240128   1.402   0.829   4.489  0.0998  0.3037 -1.0576
 6213TIP3   OH240129   5.785   2.612  15.759 -0.9811 -0.5613 -0.2930
 6213TIP3    H140130   5.806   2.519  15.771 -0.6611 -0.3790  0.5472
 6213TIP3    H240131   5.701   2.624  15.803  0.3456  0.1741  2.1634
 6214TIP3   OH240132   4.640   3.233   0.745 -0.2454 -0.4179  0.1227
 6214TIP3    H140133   4.608   3.205   0.659 -0.8692  1.1436 -0.1717
 6214TIP3    H240134   4.572   3.206   0.806 -0.7475  0.2173 -0.1374
 6215TIP3   OH240135   5.967   0.149   2.123  0.0582 -0.0606 -0.0365
 6215TIP3    H140136   5.915   0.219   2.084  0.4889 -0.2832 -1.0342
 6215TIP3    H240137   5.920   0.069   2.100 -0.1666 -0.1366  0.6761
 6216TIP3   OH240138   6.818   1.937   3.490 -0.2949 -0.5050 -0.4536
 6216TIP3    H140139   6.727   1.927   3.462 -0.9667 -1.8481  2.0324
 6216TIP3    H240140   6.829   2.031   3.503 -1.2844 -0.3200 -0.8930
 6217TIP3   OH240141   4.957   3.444   3.830 -0.1087  0.2688  0.7937
 6217TIP3    H140142   4.952   3.366   3.776  1.3883  0.9309 -0.3369
 6217TIP3    H240143   5.050   3.456   3.847 -0.1781  2.6516 -0.3164
 6218TIP3   OH240144   5.979   6.170  17.160  0.3824  0.5750 -0.0186
 6218TIP3    H140145   6.029   6.141  17.084  0.1140 -1.3706  0.5368
 6218TIP3    H240146   6.040   6.160  17.234 -0.3533 -0.4233  0.4518
 6219TIP3   OH240147   1.806   0.982  11.204  0.3129 -0.4257  0.3147
 6219TIP3    H140148   1.759   0.950  11.282  0.4102 -1.5498 -0.0816
 6219TIP3    H240149   1.865   0.911  11.181  0.2171 -0.1339 -0.8480
 6220TIP3   OH240150   3.546   3.362   0.545 -0.2059 -0.2096  0.0925
 6220TIP3    H140151   3.608   3.380   0.474 -0.4797  0.1926 -0.0464
 6220TIP3    H240152   3.595   3.306   0.606  0.2379 -0.0391 -0.1031
 6221TIP3   OH240153   0.492   4.819   2.538 -0.0847 -0.3684  0.0752
 6221TIP3    H140154   0.526   4.778   2.617  1.2217  2.2487  0.9357
 6221TIP3    H240155   0.559   4.802   2.472 -1.6188 -3.3767 -0.7800
 6222TIP3   OH240156   2.251   6.696   2.352 -0.1647 -0.6289 -0.1921
 6222TIP3    H140157   2.288   6.730   2.434 -0.5822 -0.0027 -0.2644
 6222TIP3    H240158   2.162   6.731   2.349 -0.2249 -0.8251 -0.8100
 6223TIP3   OH240159   2.305   5.314  16.387 -0.1401 -0.6734  0.2227
 6223TIP3    H140160   2.302   5.257  16.464 -0.8226  0.6595  1.2093
 6223TIP3    H240161   2.215   5.345  16.376 -0.4859 -2.4120 -2.3410
 6224TIP3   OH240162   4.737   1.710  12.742 -0.6232 -0.4326 -0.2268
 6224TIP3    H140163   4.715   1.617  12.748 -0.6237 -0.5418 -1.6669
 6224TIP3    H240164   4.820   1.712  12.695 -0.1675  0.2492  0.6034
 6225TIP3   OH240165   5.093   0.197   3.774  0.2743  0.1648  0.0774
 6225TIP3    H140166   5.152   0.130   3.809 -0.2793 -2.4678 -3.7574
 6225TIP3    H240167   5.009   0.152   3.765 -0.8837  2.2480  0.1706
 6226TIP3   OH240168   0.005   6.461  13.171  0.1199 -0.0150  0.8405
 6226TIP3    H140169   0.066   6.534  13.185 -0.7815  0.8567  0.2963
 6226TIP3    H240170  -0.062   6.497  13.114 -0.3194 -1.2986  0.5338
 6227TIP3   OH240171   5.278   3.376   3.333 -0.6519 -0.6232 -0.1093
 6227TIP3    H140172   5.349   3.312   3.343 -0.9344 -1.3050 -2.1473
 6227TIP3    H240173   5.300   3.423   3.252 -0.8899  1.3209  0.9189
 6228TIP3   OH240174   1.667   2.579  14.809 -0.1005  0.6646 -0.3453
 6228TIP3    H140175   1.638   2.615  14.726 -0.6021  1.2536  0.0859
 6228TIP3    H240176   1.590   2.582  14.866 -0.5769 -2.3640 -0.7066
 6229TIP3   OH240177   3.408   5.107   4.975  0.4191  0.2308 -0.5996
 6229TIP3    H140178   3.491   5.090   4.932  1.4889 -0.4924  1.6813
 6229TIP3    H240179   3.410   5.054   5.054 -2.0161  0.5791 -0.2463
 6230TIP3   OH240180   1.078   3.527  14.323 -0.5969 -0.1593 -0.3173
 6230TIP3    H140181   1.107   3.485  14.404 -1.8845 -1.7050 -0.6324
 6230TIP3    H240182   1.098   3.620  14.336  1.8725 -0.7856  0.5846
 6231TIP3   OH240183   4.202   5.663   3.989  0.1635  0.0267  0.4888
 6231TIP3    H140184   4.248   5.740   4.023 -3.6687  1.6404  2.2547
 6231TIP3    H240185   4.224   5.593   4.050  2.1601  0.1496 -0.0631
 6232TIP3   OH240186   1.799   3.806  11.542 -0.0804 -0.5211  0.3205
 6232TIP3    H140187   1.810   3.806  11.447 -0.9134 -2.3142  0.1909
 6232TIP3    H240188   1.709   3.776  11.555  0.5673 -1.9317  1.7033
 6233TIP3   OH240189   4.231   2.055   1.727  0.1913  0.2233 -0.2306
 6233TIP3    H140190   4.283   1.974   1.718 -1.6779 -1.0423  0.0959
 6233TIP3    H240191   4.143   2.030   1.699 -0.6983  1.8479  1.0680
 6234TIP3   OH240192   2.415   2.138   4.702 -0.2201  0.0680  0.0217
 6234TIP3    H140193   2.409   2.053   4.746  0.5841  0.1025  0.1927
 6234TIP3    H240194   2.483   2.127   4.636  0.4301  0.8118  0.5657
 6235TIP3   OH240195   6.546   3.951  15.836 -0.3380 -0.0690 -0.0430
 6235TIP3    H140196   6.522   4.020  15.898  0.0077 -0.6047  0.6792
 6235TIP3    H240197   6.602   3.892  15.885  0.0062 -0.4515 -0.8889
 6236TIP3   OH240198   5.998   0.819   0.005  0.0202  0.6281  0.2694
 6236TIP3    H140199   5.938   0.893   0.001  0.2815  0.8655  0.6563
 6236TIP3    H240200   6.067   0.847   0.065  0.1616  0.1022  0.3617
 6237TIP3   OH240201   4.761   4.291   3.605  0.0954 -0.1940 -0.3533
 6237TIP3    H140202   4.702   4.342   3.661 -1.1805 -1.7652 -0.2541
 6237TIP3    H240203   4.751   4.330   3.518 -0.1885  0.3013 -0.1024
 6238TIP3   OH240204   6.752   3.098   6.392 -0.1603 -0.4131 -0.3191
 6238TIP3    H140205   6.753   3.005   6.372  1.4407 -0.9241  2.0057
 6238TIP3    H240206   6.661   3.124   6.379 -0.1045 -1.6694 -3.6408
 6239TIP3   OH240207   2.308   5.609   5.388  0.1082  0.5787  0.3501
 6239TIP3    H140208   2.354   5.687   5.360  1.6682 -0.5717 -0.3391
 6239TIP3    H240209   2.216   5.636   5.395  0.5134  2.2440 -0.6508
 6240TIP3   OH240210   1.582   1.689   4.094  0.0835 -0.3687  0.1213
 6240TIP3    H140211   1.497   1.681   4.053  0.2057  0.7223 -0.3659
 6240TIP3    H240212   1.635   1.737   4.031  0.7510 -0.1280  0.8529
 6241TIP3   OH240213   6.519   1.058  15.576 -0.8388 -0.0322 -0.0764
 6241TIP3    H140214   6.602   1.020  15.549 -1.2673  0.2118 -1.7565
 6241TIP3    H240215   6.543   1.124  15.641  0.3511  0.6754 -1.2162
 6242TIP3   OH240216   5.628   0.926  15.427 -0.1225 -0.4372 -0.5154
 6242TIP3    H140217   5.569   0.877  15.371 -0.9145 -0.9816  0.7846
 6242TIP3    H240218   5.705   0.870  15.436 -0.5231 -0.9153 -0.0230
 6243TIP3   OH240219   5.558   4.799   0.913 -0.2140  0.0158 -0.0261
 6243TIP3    H140220   5.624   4.797   0.843 -0.5731  0.7473 -0.3925
 6243TIP3    H240221   5.607   4.777   0.992  0.9733  2.8275  0.0779
 6244TIP3   OH240222   4.815   5.815   3.396  0.1616 -0.3277 -0.3429
 6244TIP3    H140223   4.843   5.773   3.314  1.1121 -2.1226  0.8588
 6244TIP3    H240224   4.744   5.759   3.427  0.3046 -0.0698  0.4387
 6245TIP3   OH240225   4.217   6.209  15.617  0.1979 -0.3325  0.0866
 6245TIP3    H140226   4.224   6.167  15.703  0.3608  0.5728  0.5284
 6245TIP3    H240227   4.230   6.302  15.636  1.1300 -0.2296 -1.0405
 6246TIP3   OH240228   2.965   5.130  14.558 -0.5175  0.8107  0.5289
 6246TIP3    H140229   2.871   5.110  14.552 -0.5734  1.1795  0.1660
 6246TIP3    H240230   2.989   5.103  14.646 -0.2123 -2.4837 -0.4976
 6247TIP3   OH240231   6.021   6.780   0.471 -0.3618  0.2068 -0.1762
 6247TIP3    H140232   5.954   6.721   0.504 -1.6186  0.7168 -1.7500
 6247TIP3    H240233   5.980   6.867   0.473 -0.4002  0.2964 -2.7761
 6248TIP3   OH240234   3.238   1.685  15.136  0.3790  0.4349 -0.1837
 6248TIP3    H140235   3.229   1.594  15.165  0.6942  0.1016 -1.1033
 6248TIP3    H240236   3.332   1.702  15.141  0.3017  0.7651  0.1438
 6249TIP3   OH240237   0.185   1.607  14.023  0.0871  0.2412  0.2294
 6249TIP3    H140238   0.278   1.626  14.033  0.1839  0.1234 -0.4001
 6249TIP3    H240239   0.167   1.539  14.087  1.0035 -1.5393 -1.3661
 6250TIP3   OH240240   2.562   5.409   5.768  0.0601  0.3838  0.0885
 6250TIP3    H140241   2.608   5.325   5.777 -2.0973 -0.8633 -0.3049
 6250TIP3    H240242   2.539   5.414   5.675 -0.2574  1.1712  0.2088
 6251TIP3   OH240243   0.980   0.899   3.494  0.1757  0.0891  0.1411
 6251TIP3    H140244   1.044   0.864   3.556 -0.3713  1.9629  1.8274
 6251TIP3    H240245   0.895   0.874   3.530 -0.1398  1.0144  0.0640
 6252TIP3   OH240246   4.910   3.022  12.621 -0.4204  0.3013  0.3963
 6252TIP3    H140247   4.968   3.009  12.546 -0.9722  0.1168 -0.0012
 6252TIP3    H240248   4.826   2.985  12.593 -0.4558 -0.3467  1.3390
 6253TIP3   OH240249   2.066   0.558  16.958  0.1594  0.3325 -0.5666
 6253TIP3    H140250   1.989   0.596  16.999  0.3260  1.7699 -1.5486
 6253TIP3    H240251   2.137   0.620  16.977  0.5671  0.2193 -1.6779
 6254TIP3   OH240252   3.570   0.001  14.197 -0.6554 -0.1916 -0.2806
 6254TIP3    H140253   3.664   0.009  14.184 -0.8520 -0.4578 -1.9836
 6254TIP3    H240254   3.544  -0.071  14.140 -2.2436  1.4686 -1.7354
 6255TIP3   OH240255   5.144   1.307  11.140  0.4004 -0.0501 -0.2865
 6255TIP3    H140256   5.158   1.305  11.234 -1.4177 -0.3648  0.0045
 6255TIP3    H240257   5.065   1.360  11.129  0.9720  0.5507 -1.6892
 6256TIP3   OH240258   6.816   4.735   4.031  0.2241 -0.7877  0.0895
 6256TIP3    H140259   6.894   4.768   4.075  1.2331 -1.2014 -1.3634
 6256TIP3    H240260   6.848   4.670   3.970 -1.5056 -2.7942  1.2195
 6257TIP3   OH240261   2.719   6.249   1.081  0.1433 -0.3180  1.0166
 6257TIP3    H140262   2.777   6.298   1.138  1.5276 -0.5847 -0.1452
 6257TIP3    H240263   2.723   6.159   1.113  3.0917 -1.0264 -1.1558
 6258TIP3   OH240264   5.683   3.877   1.323 -0.1250 -0.0583 -0.2646
 6258TIP3    H140265   5.696   3.808   1.389  0.8805  0.4257  0.0521
 6258TIP3    H240266   5.638   3.947   1.371 -0.8550 -0.3651 -0.5039
 6259TIP3   OH240267   2.093   4.218  13.884  0.2179  0.2515  1.0675
 6259TIP3    H140268   2.132   4.153  13.826 -1.2259  2.1576 -2.1615
 6259TIP3    H240269   2.002   4.225  13.855  0.2120  3.3631  1.6050
 6260TIP3   OH240270   4.444   1.823  17.018  0.2907 -0.1591  0.2990
 6260TIP3    H140271   4.433   1.885  16.946  0.4164 -0.0759  0.3518
 6260TIP3    H240272   4.508   1.865  17.076  0.8986 -0.6482 -0.0175
 6261TIP3   OH240273   0.791   5.445  11.438 -0.5461 -0.2166 -0.0080
 6261TIP3    H140274   0.719   5.507  11.441 -0.1778  0.2395 -0.5225
 6261TIP3    H240275   0.780   5.390  11.516 -1.8608 -0.6150 -0.4675
 6262TIP3   OH240276   6.352   4.678  10.890  0.1373 -0.2956 -0.3250
 6262TIP3    H140277   6.311   4.605  10.843 -0.0697  0.1893 -0.8976
 6262TIP3    H240278   6.419   4.711  10.829  2.6644 -2.2223  1.2794
 6263TIP3   OH240279   2.260   6.417   3.517  0.1764 -0.3719 -0.3782
 6263TIP3    H140280   2.248   6.330   3.553 -1.2439 -0.1051 -0.1954
 6263TIP3    H240281   2.347   6.443   3.547  1.4194 -2.4594 -2.0303
 6264TIP3   OH240282   0.065   4.663  13.678  0.5320 -0.2951 -0.2459
 6264TIP3    H140283   0.007   4.648  13.603 -2.5843 -0.5985  2.1122
 6264TIP3    H240284   0.144   4.613  13.658 -0.7682 -1.4249 -2.7417
 6265TIP3   OH240285   4.368   0.626  14.706  0.3545  0.0009 -0.2772
 6265TIP3    H140286   4.425   0.699  14.731 -0.1805 -0.4434  2.4425
 6265TIP3    H240287   4.319   0.659  14.630  2.1361  1.4181 -0.8504
 6266TIP3   OH240288   1.461   6.271  16.785 -0.3285  0.2888 -0.2928
 6266TIP3    H140289   1.485   6.230  16.702  0.2780 -0.1273  0.0816
 6266TIP3    H240290   1.545   6.298  16.823 -0.6007  0.4695  0.1863
 6267TIP3   OH240291   6.346   6.016  15.177 -0.4203  0.1354  0.0307
 6267TIP3    H140292   6.284   5.963  15.128  0.3353 -2.3570  1.6893
 6267TIP3    H240293   6.344   6.101  15.134 -1.7019 -1.2138 -2.6598
 6268TIP3   OH240294   3.789   0.321   1.730  0.3251 -0.0756 -0.1922
 6268TIP3    H140295   3.694   0.317   1.721  0.3517 -0.4357 -0.3500
 6268TIP3    H240296   3.821   0.327   1.640  0.5074 -1.4140 -0.2365
 6269TIP3   OH240297   5.139   4.417   1.308  0.1268  0.4358  0.4921
 6269TIP3    H140298   5.129   4.324   1.287 -0.5667  0.7477 -0.5835
 6269TIP3    H240299   5.209   4.419   1.374 -1.5501 -1.0782  2.3634
 6270TIP3   OH240300   2.714   6.760   1.067  0.2438  0.1967  0.3237
 6270TIP3    H140301   2.739   6.709   0.990 -2.2825  1.8654 -1.7004
 6270TIP3    H240302   2.636   6.715   1.101  1.0272 -0.2176  1.5805
 6271TIP3   OH240303   6.375   3.555  12.870 -0.3972  0.1914  0.4723
 6271TIP3    H140304   6.416   3.626  12.821  0.5532  1.8515  3.5245
 6271TIP3    H240305   6.292   3.592  12.901 -0.4421 -0.4298  1.1039
 6272TIP3   OH240306   1.797   2.520   3.647 -0.3487  0.0011  0.1835
 6272TIP3    H140307   1.718   2.509   3.700 -0.1416 -0.2631  0.4370
 6272TIP3    H240308   1.820   2.431   3.619  1.0672 -0.1803  1.8451
 6273TIP3   OH240309   0.115   4.697  11.590 -0.1324 -0.4229 -0.8163
 6273TIP3    H140310   0.120   4.784  11.629 -2.5502 -1.2883  1.5855
 6273TIP3    H240311   0.205   4.665  11.592  0.6902  1.7788 -1.1773
 6274TIP3   OH240312   2.867   0.751   1.641  0.1457 -0.2770 -0.7240
 6274TIP3    H140313   2.831   0.777   1.557  0.2024 -1.3203 -1.0871
 6274TIP3    H240314   2.923   0.676   1.621  1.0800  0.1936  0.0871
 6275TIP3   OH240315   0.856   5.253   0.220  0.7130 -0.2709 -0.4275
 6275TIP3    H140316   0.865   5.158   0.230  1.0436 -0.0663  1.3846
 6275TIP3    H240317   0.931   5.289   0.268 -1.3719  1.0000  2.0319
 6276TIP3   OH240318   0.566   6.666   5.125  0.2207  0.0960  0.1526
 6276TIP3    H140319   0.645   6.645   5.175  0.3539  0.4764  0.1075
 6276TIP3    H240320   0.585   6.639   5.036 -0.1793 -0.9880  0.3829
 6277TIP3   OH240321   6.022   0.292  17.192 -0.4077 -0.6370  0.0125
 6277TIP3    H140322   5.970   0.370  17.174 -1.1816 -1.1347  0.0873
 6277TIP3    H240323   5.962   0.233  17.236  0.1980 -1.2560  0.0124
 6278TIP3   OH240324   6.030   1.528  12.028 -0.1767 -0.0096 -0.0728
 6278TIP3    H140325   6.009   1.538  12.121 -1.8686 -2.2424 -0.1706
 6278TIP3    H240326   6.065   1.613  12.002 -0.7779  1.0137  2.3103
 6279TIP3   OH240327   3.881   3.404   2.405  0.1594  0.0548  0.2444
 6279TIP3    H140328   3.829   3.362   2.336 -0.0715 -0.0761  0.4951
 6279TIP3    H240329   3.962   3.354   2.407 -0.1647 -0.4578  0.6249
 6280TIP3   OH240330   4.690   0.214  16.241  0.1748 -0.2888 -0.7008
 6280TIP3    H140331   4.621   0.153  16.214  0.1589 -1.0126  0.9101
 6280TIP3    H240332   4.657   0.253  16.322  0.9855  0.5150 -0.7506
 6281TIP3   OH240333   3.516   1.697   5.676  0.3747 -0.0324  0.0618
 6281TIP3    H140334   3.520   1.623   5.737 -0.4686  1.4735  2.0115
 6281TIP3    H240335   3.597   1.746   5.693 -0.3238  0.9259  0.6934
 6282TIP3   OH240336   6.446   2.659   4.667 -0.2054 -0.5201 -0.8038
 6282TIP3    H140337   6.352   2.678   4.666  0.0640  0.9754  0.5441
 6282TIP3    H240338   6.481   2.708   4.594  0.0152  1.7600  0.7734
 6283TIP3   OH240339   1.788   3.245  14.389 -0.2665 -0.6168 -0.1019
 6283TIP3    H140340   1.706   3.207  14.419 -0.0448 -0.3712  0.8470
 6283TIP3    H240341   1.829   3.280  14.469  0.1359  0.4382 -0.7577
 6284TIP3   OH240342   0.821   6.342  13.931  0.3826  0.4845 -0.1410
 6284TIP3    H140343   0.824   6.283  14.006  0.4486  0.5294 -0.1085
 6284TIP3    H240344   0.745   6.397  13.946  0.7824  0.9398  0.2277
 6285TIP3   OH240345   1.269   6.402   5.885  0.1930 -0.2843 -0.8035
 6285TIP3    H140346   1.231   6.333   5.830 -0.6653 -1.8228  1.6364
 6285TIP3    H240347   1.300   6.356   5.963 -1.3502  2.2302  1.3778
 6286TIP3   OH240348   4.613   4.784  12.703 -0.2014 -0.0240  0.0951
 6286TIP3    H140349   4.548   4.716  12.683 -0.7241  0.2908  0.7031
 6286TIP3    H240350   4.600   4.803  12.796 -1.3472  2.2302 -0.4865
 6287TIP3   OH240351   4.668   1.634   3.106 -0.1669  0.1397 -0.6125
 6287TIP3    H140352   4.753   1.668   3.135 -0.3804  0.4673 -0.3687
 6287TIP3    H240353   4.609   1.651   3.180 -0.3214 -0.5817 -0.5637
 6288TIP3   OH240354   0.316   4.944  14.049  0.2013  0.1832  0.2782
 6288TIP3    H140355   0.299   5.038  14.039 -0.1100  0.1502  0.5100
 6288TIP3    H240356   0.250   4.902  13.994  1.5244  0.1583 -1.3224
 6289TIP3   OH240357   4.101   4.389  12.070 -0.3506  0.2974 -0.0786
 6289TIP3    H140358   4.015   4.369  12.032 -0.7944 -0.8561  1.4964
 6289TIP3    H240359   4.163   4.367  12.000 -1.1292 -2.2867  0.0128
 6290TIP3   OH240360   5.534   0.271   6.203  0.3300  0.2943 -0.4456
 6290TIP3    H140361   5.473   0.218   6.254 -0.5071  1.3318 -0.3364
 6290TIP3    H240362   5.508   0.255   6.112 -1.6928  2.5488 -0.3144
 6291TIP3   OH240363   6.753   5.718  12.525  0.3802 -0.2098  0.0625
 6291TIP3    H140364   6.774   5.811  12.528  0.3547 -0.1763 -0.8259
 6291TIP3    H240365   6.777   5.690  12.437  2.1329 -1.4621  0.8921
 6292TIP3   OH240366   2.661   3.855  13.738  0.1907 -0.1194  0.3510
 6292TIP3    H140367   2.674   3.871  13.645  1.7572  0.3154  0.6321
 6292TIP3    H240368   2.569   3.831  13.745  0.2438 -0.9371 -1.4100
 6293TIP3   OH240369   2.696   1.041   5.156  0.4612  0.3933 -0.1701
 6293TIP3    H140370   2.606   1.072   5.162  0.6939  0.6800  2.9025
 6293TIP3    H240371   2.747   1.118   5.132  0.2229  0.9096  0.9555
 6294TIP3   OH240372   3.208   4.137   5.451  0.0753  0.3013 -0.2314
 6294TIP3    H140373   3.187   4.126   5.358 -1.9290 -1.0034  0.3290
 6294TIP3    H240374   3.190   4.051   5.490  0.0657  1.0604  1.4937
 6295TIP3   OH240375   3.847   6.686   1.969  0.2999 -0.3841 -0.3998
 6295TIP3    H140376   3.921   6.740   1.942  2.1381 -2.5315  0.2112
 6295TIP3    H240377   3.794   6.676   1.890  1.9717 -0.8670 -1.4765
 6296TIP3   OH240378   6.617   0.059   0.630 -0.4887 -0.2304 -0.2847
 6296TIP3    H140379   6.663   0.092   0.707 -1.7348 -1.9651  1.2182
 6296TIP3    H240380   6.527   0.049   0.658 -1.2801  0.5113 -2.4216
 6297TIP3   OH240381   4.638   4.039   4.309 -0.9146 -0.3844 -0.5787
 6297TIP3    H140382   4.660   4.029   4.216  0.8394  1.2870 -0.3696
 6297TIP3    H240383   4.589   4.121   4.313  0.1008  0.1924  0.1369
 6298TIP3   OH240384   6.722   1.120  16.175 -0.4394  0.3100  0.7059
 6298TIP3    H140385   6.748   1.071  16.097 -3.0847  0.5601 -0.3596
 6298TIP3    H240386   6.628   1.135  16.164 -0.6913  1.0424  3.5640
 6299TIP3   OH240387   0.319   2.964   1.935  0.4137 -0.0034  0.2718
 6299TIP3    H140388   0.384   2.898   1.958 -0.6201 -1.8153 -1.8265
 6299TIP3    H240389   0.362   3.047   1.956  2.8104 -1.2186  0.4286
 6300TIP3   OH240390   1.277   4.659  12.097 -0.6179 -0.4460 -0.0706
 6300TIP3    H140391   1.353   4.659  12.156 -0.1629 -1.7797 -0.6390
 6300TIP3    H240392   1.206   4.697  12.149  0.6413  1.6513  0.1903
 6301TIP3   OH240393   6.749   3.666   3.119 -0.0054  0.3465 -0.0492
 6301TIP3    H140394   6.772   3.642   3.030  1.7093  2.0940 -0.0883
 6301TIP3    H240395   6.653   3.670   3.119 -0.1318 -1.6484 -1.2552
 6302TIP3   OH240396   3.497   6.299   2.989  0.4949  0.1688  0.9310
 6302TIP3    H140397   3.481   6.328   3.079  0.3149 -0.5578  1.1376
 6302TIP3    H240398   3.564   6.359   2.956  0.3886  0.5876  1.4699
 6303TIP3   OH240399   1.069   2.919  12.695 -0.1439  0.1854 -0.6191
 6303TIP3    H140400   1.045   2.951  12.782  1.3686 -1.3985  0.4400
 6303TIP3    H240401   1.132   2.983  12.662  1.5389 -0.7138  0.7418
 6304TIP3   OH240402   0.009   0.648   5.665 -0.0402 -0.1696  0.8772
 6304TIP3    H140403  -0.018   0.630   5.575  1.0490  1.4731  0.1995
 6304TIP3    H240404   0.066   0.575   5.689  0.2134 -0.2611 -0.0082
 6305TIP3   OH240405   2.707   0.700   6.755  0.6027 -0.1537 -0.4501
 6305TIP3    H140406   2.692   0.678   6.663  0.9972 -0.4935 -0.4349
 6305TIP3    H240407   2.776   0.640   6.783  0.5064 -0.0298  0.0589
 6306TIP3   OH240408   2.338   5.324  14.803 -0.0862 -0.0326 -0.4072
 6306TIP3    H140409   2.300   5.237  14.792 -1.4042  0.3534  0.8744
 6306TIP3    H240410   2.426   5.307  14.836 -1.2493 -0.8627  2.4011
 6307TIP3   OH240411   1.089   5.854  12.349 -0.4447  0.4018 -0.1634
 6307TIP3    H140412   1.145   5.917  12.395  0.4273 -0.3154 -0.2464
 6307TIP3    H240413   1.115   5.769  12.384 -0.4857 -0.0623 -1.2581
 6308TIP3   OH240414   4.557   4.141   3.967 -0.2180 -0.5907 -0.3451
 6308TIP3    H140415   4.625   4.085   4.004 -0.2204 -2.1467 -2.6083
 6308TIP3    H240416   4.575   4.228   4.004  2.2736 -1.2215 -0.0007
 6309TIP3   OH240417   5.040   2.167  13.964 -0.0218  0.6311  0.3828
 6309TIP3    H140418   5.083   2.239  14.010  0.6667  0.2455  0.3448
 6309TIP3    H240419   5.078   2.167  13.876 -0.4333  0.5793  0.1996
 6310TIP3   OH240420   1.169   4.428   5.313  0.3236  0.2383 -0.4946
 6310TIP3    H140421   1.183   4.436   5.407 -1.3085 -2.5539  0.0341
 6310TIP3    H240422   1.257   4.416   5.276  0.9332  1.0315  0.6751
 6311TIP3   OH240423   1.423   4.017   2.844  0.5083 -0.2003 -0.3200
 6311TIP3    H140424   1.499   3.965   2.816 -0.8030 -1.2969 -1.9456
 6311TIP3    H240425   1.457   4.106   2.854  1.7826 -0.4346 -2.2191
 6312TIP3   OH240426   5.421   3.171  10.938  0.3219  0.2461  0.5840
 6312TIP3    H140427   5.499   3.120  10.914 -1.4071 -1.4604 -1.5867
 6312TIP3    H240428   5.432   3.255  10.893  0.3537 -0.4330 -0.6964
 6313TIP3   OH240429   4.687   6.412  17.275  0.1045 -0.7518  0.4431
 6313TIP3    H140430   4.653   6.412  17.186  0.7008 -0.5409  0.2135
 6313TIP3    H240431   4.671   6.500  17.307  0.0754 -0.7691  0.4743
 6314TIP3   OH240432   2.246   1.025  15.500  0.2024  0.2191  0.3914
 6314TIP3    H140433   2.247   1.119  15.520  0.7782  0.3653 -0.3532
 6314TIP3    H240434   2.318   1.012  15.439  0.1486 -0.7211  0.5250
 6315TIP3   OH240435   6.292   5.262  14.810 -0.2106 -0.1001 -0.0857
 6315TIP3    H140436   6.322   5.323  14.877 -0.7368 -0.6226  0.6363
 6315TIP3    H240437   6.264   5.185  14.859 -2.3104  0.1963 -0.7858
 6316TIP3   OH240438   0.947   0.359  13.240 -0.0264 -0.0111 -0.0966
 6316TIP3    H140439   1.010   0.365  13.168  1.6973 -3.2641  1.0500
 6316TIP3    H240440   0.978   0.422  13.305 -0.0346  0.9742 -1.0324
 6317TIP3   OH240441   0.585   4.251   5.188 -0.2602  0.5457 -0.4650
 6317TIP3    H140442   0.680   4.253   5.174 -0.0433  0.2458  0.9258
 6317TIP3    H240443   0.568   4.326   5.246 -0.3239 -1.6610  2.4806
 6318TIP3   OH240444   0.094   3.467   0.785  0.2576 -0.1010 -0.2683
 6318TIP3    H140445   0.001   3.448   0.796 -0.1007  1.5428 -0.3868
 6318TIP3    H240446   0.105   3.481   0.691  0.4066  0.8259 -0.1123
 6319TIP3   OH240447   0.609   1.069   6.311 -0.0334 -0.3263 -0.4477
 6319TIP3    H140448   0.558   1.049   6.389  0.4666  0.6516  0.1415
 6319TIP3    H240449   0.607   1.164   6.304  0.0847 -0.3956 -1.5229
 6320TIP3   OH240450   3.319   0.121  16.543 -0.5822  0.3055 -0.4881
 6320TIP3    H140451   3.344   0.194  16.486 -2.4387  2.1437  0.9532
 6320TIP3    H240452   3.323   0.157  16.631 -4.0757 -0.4902  0.0757
 6321TIP3   OH240453   0.735   0.414   2.027  0.0862  0.4771  0.5321
 6321TIP3    H140454   0.761   0.392   1.938  0.7745 -1.2781  1.1412
 6321TIP3    H240455   0.817   0.413   2.077 -0.5440 -0.7089  1.5894
 6322TIP3   OH240456   6.046   1.551  11.700  0.7682 -0.0971 -0.1632
 6322TIP3    H140457   6.065   1.641  11.724 -0.1349  0.3542 -1.0930
 6322TIP3    H240458   5.979   1.523  11.762  0.8514 -0.0388 -0.0458
 6323TIP3   OH240459   2.753   3.343  17.034  0.5493  0.0595 -0.2152
 6323TIP3    H140460   2.660   3.355  17.014  0.1026 -1.8698  0.6171
 6323TIP3    H240461   2.775   3.259  16.994  1.6624 -0.0200  0.5486
 6324TIP3   OH240462   4.432   6.769  15.543  0.5902 -0.0644 -0.3875
 6324TIP3    H140463   4.404   6.706  15.609 -1.6527  0.4219 -0.8327
 6324TIP3    H240464   4.502   6.819  15.585  0.4248 -0.9551  0.9734
 6325TIP3   OH240465   5.882   6.387  13.254 -0.9745 -0.7774 -0.0415
 6325TIP3    H140466   5.923   6.375  13.340 -1.4210  1.0155  0.4425
 6325TIP3    H240467   5.943   6.348  13.192 -0.6461 -2.0830  1.0823
 6326TIP3   OH240468   1.741   5.440   0.422  0.3498  1.0346  0.1922
 6326TIP3    H140469   1.692   5.467   0.500  0.0709  0.6446  0.1509
 6326TIP3    H240470   1.822   5.492   0.427  1.8459 -1.3946  2.5393
 6327TIP3   OH240471   2.979   6.315   5.413  0.2820 -0.3860 -0.2723
 6327TIP3    H140472   3.002   6.373   5.340  0.5078  0.0281  0.1234
 6327TIP3    H240473   2.890   6.285   5.393 -0.3279  1.0951  0.1544
 6328TIP3   OH240474   1.050   2.313  13.648 -0.2158  0.1143 -0.0943
 6328TIP3    H140475   1.068   2.336  13.557  0.8001  0.3467  0.1632
 6328TIP3    H240476   1.001   2.388  13.683 -1.6666 -0.4964 -0.7796
 6329TIP3   OH240477   1.149   6.066   4.175  0.2508 -0.2482 -0.2292
 6329TIP3    H140478   1.188   5.982   4.151  0.7337 -1.0530  3.0721
 6329TIP3    H240479   1.057   6.045   4.193  0.4469 -0.1585  0.9161
 6330TIP3   OH240480   5.015   2.649   0.028 -0.5295 -0.3363  0.2377
 6330TIP3    H140481   5.077   2.595  -0.021  1.1075  0.7183  1.1052
 6330TIP3    H240482   5.057   2.665   0.112 -2.2210 -0.0346  1.0550
 6331TIP3   OH240483   0.332   0.047  10.691 -0.0146 -0.0561 -0.3526
 6331TIP3    H140484   0.251   0.081  10.727 -0.5926 -0.6493 -1.0715
 6331TIP3    H240485   0.311  -0.043  10.664  0.3571  0.3973 -2.2344
 6332TIP3   OH240486   2.344   0.977  15.024 -0.4008  0.1853 -0.2265
 6332TIP3    H140487   2.315   0.888  15.005 -0.3121  0.3704 -1.2601
 6332TIP3    H240488   2.271   1.032  14.999 -0.5107  0.4041  0.5472
 6333TIP3   OH240489   3.851   3.560   5.984  0.2862  0.0958 -0.1723
 6333TIP3    H140490   3.945   3.542   5.979  0.2518  0.1326 -1.0351
 6333TIP3    H240491   3.844   3.638   6.038  0.9585  1.6561 -2.2704
 6334TIP3   OH240492   4.115   6.141  13.378  0.3233  0.1909  0.7383
 6334TIP3    H140493   4.152   6.067  13.427 -0.0561  0.5154  1.5157
 6334TIP3    H240494   4.069   6.100  13.305  0.7167 -0.3096  0.7691
 6335TIP3   OH240495   0.497   1.022  15.193  0.0954 -0.7689 -0.5855
 6335TIP3    H140496   0.575   1.006  15.246  0.2875  2.3914  0.1412
 6335TIP3    H240497   0.510   0.967  15.116  2.3652 -1.3695  0.1683
 6336TIP3   OH240498   1.297   2.240  16.976  0.4193 -0.1845  0.1418
 6336TIP3    H140499   1.290   2.321  17.026 -0.4584  0.3104 -0.7666
 6336TIP3    H240500   1.391   2.227  16.965  0.5554  2.4628 -2.4939
 6337TIP3   OH240501   3.388   2.123   3.107  0.2425  0.5941  0.1983
 6337TIP3    H140502   3.404   2.215   3.086  0.9770  0.7851  1.5558
 6337TIP3    H240503   3.310   2.100   3.055 -0.5731  2.2612  0.6399
 6338TIP3   OH240504   5.817   1.154   3.749 -0.4291  0.2067 -0.8570
 6338TIP3    H140505   5.762   1.226   3.718 -2.9172 -1.4014 -0.2860
 6338TIP3    H240506   5.826   1.096   3.673  2.2267  1.4740 -1.5458
 6339TIP3   OH240507   1.333   3.110   1.990  0.2421  0.6644  0.0173
 6339TIP3    H140508   1.240   3.097   1.975  0.8120  0.5446 -4.0346
 6339TIP3    H240509   1.354   3.190   1.942  2.7239 -0.9711 -1.8092
 6340TIP3   OH240510   1.526   0.748  13.837  0.1263 -0.7582  0.1739
 6340TIP3    H140511   1.495   0.784  13.755 -2.2183  1.1422  1.8177
 6340TIP3    H240512   1.529   0.653  13.823 -1.0684 -0.5206 -1.7973
 6341TIP3   OH240513   5.713   4.191   4.321  0.6643  0.5225  0.4079
 6341TIP3    H140514   5.669   4.136   4.257  0.1828  0.2450  0.9648
 6341TIP3    H240515   5.806   4.180   4.303  0.5595 -0.2339  0.3157
 6342TIP3   OH240516   0.112   3.332  11.503 -0.3493 -0.0515  0.0229
 6342TIP3    H140517   0.131   3.303  11.413  0.1600  0.5791 -0.0762
 6342TIP3    H240518   0.074   3.419  11.492  0.2723  0.2812  0.4471
 6343TIP3   OH240519   3.059   4.272  11.061  0.1159  0.5782  0.4074
 6343TIP3    H140520   2.997   4.318  11.004  0.6688  1.1282  0.2453
 6343TIP3    H240521   3.104   4.211  11.002  0.3020  0.7563  0.3665
 6344TIP3   OH240522   4.683   4.493  13.942  0.4378  0.2968  0.1572
 6344TIP3    H140523   4.667   4.399  13.937 -0.1004  0.3148  1.4488
 6344TIP3    H240524   4.776   4.501  13.962  0.6598  0.0599 -0.7761
 6345TIP3   OH240525   4.414   1.969   1.365  0.2610  0.1108 -0.3541
 6345TIP3    H140526   4.378   1.886   1.335 -1.2517  0.7452 -0.3547
 6345TIP3    H240527   4.477   1.946   1.433 -0.2975 -1.0207 -0.2171
 6346TIP3   OH240528   2.387   2.857   1.465 -0.3316  0.2216 -0.4868
 6346TIP3    H140529   2.293   2.853   1.482 -0.3580  1.3969 -0.3273
 6346TIP3    H240530   2.426   2.883   1.548  0.0757  0.4093 -0.7363
 6347TIP3   OH240531   3.190   2.084  10.770  0.5604  0.4108  0.0850
 6347TIP3    H140532   3.263   2.146  10.769  0.9381 -0.0227  0.4423
 6347TIP3    H240533   3.126   2.123  10.830  0.1449  1.1855 -0.8485
 6348TIP3   OH240534   3.398   6.201   0.322  0.2809 -0.9682  0.2990
 6348TIP3    H140535   3.311   6.232   0.345  0.3223 -0.8740  0.3288
 6348TIP3    H240536   3.432   6.165   0.404  0.1937 -1.1834  0.2396
 6349TIP3   OH240537   1.555   6.015   3.351  0.2065 -0.2957 -0.1291
 6349TIP3    H140538   1.528   6.106   3.362 -0.8610 -0.8334  2.0965
 6349TIP3    H240539   1.650   6.017   3.358  0.2676  0.7866 -1.2164
 6350TIP3   OH240540   0.201   5.859  13.948  0.5138 -0.5101 -0.2562
 6350TIP3    H140541   0.202   5.778  13.999 -1.7075 -0.6550 -0.4086
 6350TIP3    H240542   0.148   5.839  13.872  0.9640  0.7432 -0.9183
 6351TIP3   OH240543   0.001   1.138   2.135 -0.2140  0.3762  0.2084
 6351TIP3    H140544   0.040   1.079   2.199  0.4346  0.0733 -0.4582
 6351TIP3    H240545  -0.082   1.165   2.174 -1.7314 -2.9666 -0.6037
 6352TIP3   OH240546   5.457   3.339   0.451  0.4464  0.1056  0.2327
 6352TIP3    H140547   5.421   3.259   0.490  0.3375  0.1233  0.1663
 6352TIP3    H240548   5.509   3.308   0.376 -2.0418  0.3157 -1.6362
 6353TIP3   OH240549   0.486   1.979  12.624 -0.5907  0.3473 -0.1880
 6353TIP3    H140550   0.458   1.972  12.716 -1.3514  0.1787 -0.4275
 6353TIP3    H240551   0.409   2.013  12.579 -0.5003 -0.4089 -0.9133
 6354TIP3   OH240552   1.808   6.271  15.360 -0.2288 -0.1503 -0.6833
 6354TIP3    H140553   1.726   6.318  15.374 -0.6539 -0.9661 -0.4170
 6354TIP3    H240554   1.782   6.187  15.323  0.3703 -1.0401  0.8672
 6355TIP3   OH240555   3.089   6.069  13.660  0.1200  0.1407  0.3686
 6355TIP3    H140556   3.045   6.011  13.598  0.8852 -1.5387  1.3784
 6355TIP3    H240557   3.028   6.077  13.734 -0.5373  1.6682 -0.3163
 6356TIP3   OH240558   5.871   6.013   4.545  0.2255  0.4305 -0.0664
 6356TIP3    H140559   5.847   6.017   4.453  0.9106  0.2182 -0.2570
 6356TIP3    H240560   5.947   5.954   4.547  0.8289  1.2265  0.5063
 6357TIP3   OH240561   2.186   2.158  15.765 -0.2853 -0.1504 -1.2756
 6357TIP3    H140562   2.263   2.102  15.765 -0.4380 -0.3833  0.4411
 6357TIP3    H240563   2.207   2.227  15.702  0.3939 -1.4415 -2.4893
 6358TIP3   OH240564   5.539   2.091  16.628 -0.0684  0.1872  0.2096
 6358TIP3    H140565   5.458   2.136  16.653  0.1561  1.4101 -1.2242
 6358TIP3    H240566   5.549   2.109  16.534  1.8717  0.0549  0.3681
 6359TIP3   OH240567   2.330   3.439   1.303 -0.1672 -0.1078  0.4490
 6359TIP3    H140568   2.383   3.514   1.330  0.3142 -0.4566  0.4875
 6359TIP3    H240569   2.367   3.365   1.353 -0.7903 -0.3235  0.5951
 6360TIP3   OH240570   1.851   0.879   5.187 -0.2088  0.2118  0.2389
 6360TIP3    H140571   1.867   0.969   5.158  0.5991 -0.0691 -0.1959
 6360TIP3    H240572   1.929   0.856   5.236 -0.3625 -0.2959  0.2407
 6361TIP3   OH240573   3.469   4.469  15.932  0.2810  0.3085  0.3040
 6361TIP3    H140574   3.403   4.431  15.990 -0.3252  0.7686 -0.0745
 6361TIP3    H240575   3.516   4.394  15.897  0.4533  0.0144  1.1621
 6362TIP3   OH240576   5.645   0.232  16.119 -0.0264 -0.3596  0.1610
 6362TIP3    H140577   5.574   0.225  16.183 -0.2449  1.1603  0.0933
 6362TIP3    H240578   5.687   0.316  16.138  0.4137 -0.2663 -1.1614
 6363TIP3   OH240579   5.057   2.539   0.802  0.1525  0.1605 -0.4644
 6363TIP3    H140580   5.061   2.556   0.896 -1.5522 -1.4339 -0.0849
 6363TIP3    H240581   4.968   2.509   0.786  0.3594  0.5828 -2.6418
 6364TIP3   OH240582   5.539   0.414   1.512  0.4881 -0.3332  0.7192
 6364TIP3    H140583   5.624   0.379   1.488  0.9268  0.0121  1.7430
 6364TIP3    H240584   5.551   0.448   1.600 -0.9488 -1.0655  1.2009
 6365TIP3   OH240585   6.473   3.988  14.985 -0.0892  0.0360 -0.1696
 6365TIP3    H140586   6.505   4.069  15.026 -0.6992  0.5509 -0.6934
 6365TIP3    H240587   6.432   3.939  15.057 -0.8789  0.7903 -0.1004
 6366TIP3   OH240588   4.661   5.660   5.533  0.3781 -0.0718  0.2114
 6366TIP3    H140589   4.727   5.657   5.464  0.1738 -1.2954  0.0585
 6366TIP3    H240590   4.704   5.621   5.609  1.0578  2.5005  1.1963
 6367TIP3   OH240591   0.512   2.996   2.243  0.1780  0.0301 -0.6308
 6367TIP3    H140592   0.425   2.965   2.216 -1.4376  2.7421  1.2641
 6367TIP3    H240593   0.506   3.005   2.338  2.8352 -0.5514 -0.3716
 6368TIP3   OH240594   3.582   3.276   5.174 -0.0469 -0.4988 -0.1941
 6368TIP3    H140595   3.625   3.216   5.113  1.1194 -0.2393  0.3532
 6368TIP3    H240596   3.523   3.221   5.225  0.5364 -1.0852 -0.1357
 6369TIP3   OH240597   3.666   4.119  13.933  0.7673 -0.2164  0.3899
 6369TIP3    H140598   3.658   4.072  14.016  1.8694  0.6212  0.9900
 6369TIP3    H240599   3.670   4.050  13.867  1.8092 -0.9596  1.2187
 6370TIP3   OH240600   6.799   4.967   3.234  0.2686 -0.0408  0.0913
 6370TIP3    H140601   6.852   5.007   3.164  0.0583  0.3859  0.1734
 6370TIP3    H240602   6.712   4.961   3.196  0.1976  0.0075  0.2484
 6371TIP3   OH240603   4.057   1.310  16.789 -0.1279 -0.4523 -0.2226
 6371TIP3    H140604   4.150   1.328  16.772 -0.5430  1.0536 -1.0600
 6371TIP3    H240605   4.018   1.303  16.702 -0.6267 -2.1711  0.1170
 6372TIP3   OH240606   4.932   5.487  15.920 -0.5014  0.5392 -0.1905
 6372TIP3    H140607   4.960   5.468  15.831  0.5402  0.4211  0.1570
 6372TIP3    H240608   4.993   5.439  15.976 -1.0797  0.6902  0.5941
 6373TIP3   OH240609   5.872   6.657  16.646 -0.0081 -0.0222  0.0159
 6373TIP3    H140610   5.842   6.723  16.708 -0.4843 -0.4710  0.2638
 6373TIP3    H240611   5.793   6.609  16.621  0.3739 -0.6573  0.0186
 6374TIP3   OH240612   4.056   1.067  16.934 -0.2431  0.1027  0.1812
 6374TIP3    H140613   4.010   1.119  17.000 -0.6223  0.9283 -0.7344
 6374TIP3    H240614   4.050   1.118  16.853  0.8714 -0.5455 -0.3319
 6375TIP3   OH240615   2.449   2.251   5.360 -0.0810 -0.6592 -0.1308
 6375TIP3    H140616   2.463   2.283   5.449 -0.0560 -0.4542 -0.2074
 6375TIP3    H240617   2.523   2.287   5.310  0.0519 -0.9948 -0.1773
 6376TIP3   OH240618   2.781   6.674  16.506  0.0825  0.3939  0.0155
 6376TIP3    H140619   2.699   6.628  16.490 -0.2167  0.7257  0.6311
 6376TIP3    H240620   2.843   6.605  16.529  0.0407  0.1178 -0.6768
 6377TIP3   OH240621   6.437   0.130   0.018  0.0671  0.4170 -0.5346
 6377TIP3    H140622   6.370   0.092  -0.039 -1.2863  2.4435 -0.3759
 6377TIP3    H240623   6.405   0.219   0.036  1.9244  0.8097  1.0085
 6378TIP3   OH240624   5.216   0.922   4.481  0.3184  0.5641 -0.1671
 6378TIP3    H140625   5.283   0.865   4.518 -0.5408  0.2902  1.0253
 6378TIP3    H240626   5.159   0.863   4.432  1.4895  0.9358 -2.0306
 6379TIP3   OH240627   1.355   0.456   4.996  0.0887 -0.5466 -0.0493
 6379TIP3    H140628   1.429   0.423   4.945  0.6825  1.0099 -0.2292
 6379TIP3    H240629   1.393   0.519   5.057 -0.2741 -3.9942  3.9867
 6380TIP3   OH240630   0.724   4.648   3.452  0.0144 -0.3601 -0.3794
 6380TIP3    H140631   0.687   4.637   3.540 -0.0325  1.1815 -0.1899
 6380TIP3    H240632   0.651   4.681   3.400  0.9072  2.0987 -0.1541
 6381TIP3   OH240633   6.636   2.451  13.235 -0.2436  0.2769  0.5368
 6381TIP3    H140634   6.703   2.411  13.291  1.8404  2.3624 -0.3976
 6381TIP3    H240635   6.648   2.410  13.150 -1.3733 -0.6311  0.7925
 6382TIP3   OH240636   6.341   0.596  14.254  0.0009 -0.7023 -0.2928
 6382TIP3    H140637   6.312   0.648  14.328  0.9332 -0.1139 -0.3350
 6382TIP3    H240638   6.403   0.533  14.292  1.7167  0.6536 -0.8110
 6383TIP3   OH240639   1.671   5.800   1.880  0.3918  0.0443 -0.4655
 6383TIP3    H140640   1.719   5.727   1.841  0.1344 -0.1228 -0.4766
 6383TIP3    H240641   1.653   5.859   1.808  1.3379  0.5364 -0.3095
 6384TIP3   OH240642   6.800   0.174   0.265 -0.0270 -0.8524 -0.4400
 6384TIP3    H140643   6.895   0.162   0.267  0.1389  0.5532  0.9624
 6384TIP3    H240644   6.779   0.212   0.350 -1.6109  0.3994 -1.3613
 6385TIP3   OH240645   4.777   4.120  10.264  0.1807 -0.2813 -0.2033
 6385TIP3    H140646   4.851   4.166  10.304 -0.7315  0.5892  0.5205
 6385TIP3    H240647   4.715   4.189  10.243 -0.6682 -1.0656 -0.2921
 6386TIP3   OH240648   5.661   0.553   1.723 -0.5136  0.2965 -0.1216
 6386TIP3    H140649   5.736   0.594   1.680 -1.1235  0.4450 -1.0583
 6386TIP3    H240650   5.647   0.604   1.803 -0.2244  0.8726 -0.4421
 6387TIP3   OH240651   5.015   6.080   6.586 -0.2483 -0.1444  0.1977
 6387TIP3    H140652   5.032   6.148   6.521  0.2895  1.9723  2.5104
 6387TIP3    H240653   5.099   6.067   6.630 -0.5957 -1.6139  0.4610
 6388TIP3   OH240654   0.125   1.046   2.576  0.1084  0.3124  0.0628
 6388TIP3    H140655   0.144   1.046   2.482 -0.6353 -0.9145 -0.1015
 6388TIP3    H240656   0.051   1.107   2.585  0.8477  1.2291  0.0063
 6389TIP3   OH240657   3.103   6.363   4.953  0.3246 -0.2638 -0.3307
 6389TIP3    H140658   3.135   6.362   4.863  0.4988  1.4852 -0.2974
 6389TIP3    H240659   3.150   6.435   4.995  0.4665 -1.2524  1.2493
 6390TIP3   OH240660   0.666   6.144  14.676  0.4180  0.0820  0.3227
 6390TIP3    H140661   0.696   6.230  14.647 -0.1284  0.1655 -0.0096
 6390TIP3    H240662   0.745   6.100  14.706  0.6710  0.7722  0.6787
 6391TIP3   OH240663   4.846   3.917  12.934 -0.1638  0.2336  0.1208
 6391TIP3    H140664   4.755   3.911  12.905 -0.3491 -2.6351  1.1728
 6391TIP3    H240665   4.840   3.921  13.030  0.8473 -1.4699  0.2752
 6392TIP3   OH240666   0.396   2.714   5.818  0.0310  0.0186  0.3828
 6392TIP3    H140667   0.441   2.645   5.868 -1.5631 -1.9381 -0.7988
 6392TIP3    H240668   0.351   2.767   5.884 -0.2474 -1.2083  1.1887
 6393TIP3   OH240669   1.613   1.961  16.848  0.3454 -0.0630 -0.0579
 6393TIP3    H140670   1.605   2.045  16.802 -0.6637 -0.4205 -0.5522
 6393TIP3    H240671   1.565   1.975  16.930  0.1195 -0.1831 -0.1721
 6394TIP3   OH240672   1.425   0.657   2.987  0.2892  0.1730 -0.2622
 6394TIP3    H140673   1.340   0.622   3.012  0.0164  1.0488  0.0469
 6394TIP3    H240674   1.475   0.658   3.069  0.5312 -0.1584 -0.4058
 6395TIP3   OH240675   4.707   5.731   4.381  0.2488  0.3558 -0.0266
 6395TIP3    H140676   4.760   5.731   4.301  0.9256 -0.9359  0.3945
 6395TIP3    H240677   4.760   5.779   4.445 -0.5305  1.8589 -0.4887
 6396TIP3   OH240678   0.741   5.703   6.721 -0.0312  0.1878 -0.6358
 6396TIP3    H140679   0.696   5.714   6.805 -0.2481 -0.5240 -0.6573
 6396TIP3    H240680   0.817   5.649   6.741  0.4939  0.8914 -0.7109
 6397TIP3   OH240681   1.506   3.433   1.283 -0.1452 -0.6294 -0.3038
 6397TIP3    H140682   1.460   3.379   1.348 -2.5108  0.6673 -0.8485
 6397TIP3    H240683   1.481   3.395   1.199  1.1418 -0.9430 -0.5428
 6398TIP3   OH240684   0.704   5.378  16.961 -0.3772  0.0251  0.4925
 6398TIP3    H140685   0.668   5.448  17.016 -0.7416  0.6463 -0.5253
 6398TIP3    H240686   0.639   5.366  16.893 -0.1634 -1.0984  0.4864
 6399TIP3   OH240687   3.065   4.595   0.666  0.1129 -0.0333 -0.2914
 6399TIP3    H140688   3.028   4.539   0.597 -1.4772  1.4666 -0.6879
 6399TIP3    H240689   3.157   4.571   0.669 -0.6454 -3.1587  0.0104
 6400TIP3   OH240690   4.223   3.031  12.633 -0.2480  0.2998  0.5140
 6400TIP3    H140691   4.135   2.995  12.644 -0.7603  0.9195 -1.3356
 6400TIP3    H240692   4.273   2.959  12.594 -0.7527  0.8887 -1.2923
 6401TIP3   OH240693   0.366   4.266   2.273 -0.1027 -0.0773  0.1748
 6401TIP3    H140694   0.289   4.213   2.293  0.0579 -0.4935 -0.3263
 6401TIP3    H240695   0.433   4.204   2.247 -0.5783  0.4926 -2.6076
 6402TIP3   OH240696   0.149   4.960  12.576 -0.3601  0.4632  0.4989
 6402TIP3    H140697   0.109   4.941  12.491  1.2351  1.5334 -0.5276
 6402TIP3    H240698   0.164   4.874  12.616 -1.0812 -0.0481 -0.3128
 6403TIP3   OH240699   4.350   0.555  15.694  0.6531  0.1538  0.2479
 6403TIP3    H140700   4.394   0.575  15.777  0.4458  3.2133 -0.3164
 6403TIP3    H240701   4.396   0.608  15.629 -1.2331  0.2741 -1.0366
 6404TIP3   OH240702   2.289   4.163   4.657  0.0426 -1.0966  0.2312
 6404TIP3    H140703   2.295   4.213   4.738  1.4843 -0.3121 -0.3440
 6404TIP3    H240704   2.195   4.146   4.646 -0.3731  0.6840  0.9088
 6405TIP3   OH240705   5.513   1.864   0.893 -0.1783 -0.7438  0.2341
 6405TIP3    H140706   5.490   1.775   0.918 -1.8444 -0.1999  0.7053
 6405TIP3    H240707   5.453   1.919   0.944 -0.0369  0.5859 -1.0230
 6406TIP3   OH240708   5.604   1.738  12.584  0.5401  0.0886 -0.0086
 6406TIP3    H140709   5.533   1.693  12.630  1.0435 -1.4570 -0.7006
 6406TIP3    H240710   5.679   1.732  12.643  0.9626 -1.1692 -0.6512
 6407TIP3   OH240711   4.501   1.170  12.886  0.2374  0.0173  0.2881
 6407TIP3    H140712   4.585   1.155  12.928 -0.4855 -1.3991  1.2827
 6407TIP3    H240713   4.492   1.265  12.881  1.0407  0.1848  1.8936
 6408TIP3   OH240714   4.598   2.222   3.797 -0.2821  0.4958  0.4796
 6408TIP3    H140715   4.626   2.256   3.882  2.3811  0.8474 -0.5114
 6408TIP3    H240716   4.580   2.299   3.744  2.1611  0.3681 -0.5898
 6409TIP3   OH240717   1.509   1.725  13.827  0.2129  0.2679  0.7926
 6409TIP3    H140718   1.500   1.666  13.902 -0.6991 -1.0748 -0.3432
 6409TIP3    H240719   1.557   1.674  13.762 -1.6012  0.3346 -0.6485
 6410TIP3   OH240720   5.386   3.407  16.283 -0.1698 -0.2020 -0.3149
 6410TIP3    H140721   5.330   3.463  16.336 -0.4486 -0.2431 -0.5624
 6410TIP3    H240722   5.461   3.387  16.339 -0.3952 -0.1304  0.0095
 6411TIP3   OH240723   4.220   2.574   2.230 -0.1549 -0.1752  0.2757
 6411TIP3    H140724   4.239   2.607   2.318  3.0097 -0.5523 -0.2280
 6411TIP3    H240725   4.217   2.479   2.240  1.8702 -0.3249 -0.2811
 6412TIP3   OH240726   0.274   3.818  12.053 -0.5323  0.5980  0.0395
 6412TIP3    H140727   0.323   3.748  12.010 -0.1385  1.4219 -0.8805
 6412TIP3    H240728   0.341   3.876  12.089 -0.8155  1.8999 -1.4964
 6413TIP3   OH240729   4.806   1.125   5.964  0.5193 -0.0930 -0.3460
 6413TIP3    H140730   4.785   1.201   6.019  1.1817  0.1696 -0.4474
 6413TIP3    H240731   4.810   1.052   6.026  1.7643  0.2863  0.0557
 6414TIP3   OH240732   5.278   0.725  10.951 -0.0270  0.3296  0.2676
 6414TIP3    H140733   5.329   0.797  10.915 -0.1123 -1.4491 -3.6376
 6414TIP3    H240734   5.189   0.739  10.919 -0.0269 -1.5389 -0.6384
 6415TIP3   OH240735   1.330   6.592  14.145  0.6458  0.1627 -0.3024
 6415TIP3    H140736   1.393   6.645  14.195 -0.0806  0.3053  0.4644
 6415TIP3    H240737   1.245   6.617  14.179  0.2994 -1.7006  0.2761
 6416TIP3   OH240738   0.587   5.573  14.305  0.1070  0.2547  0.2824
 6416TIP3    H140739   0.513   5.514  14.319 -0.3118  1.0363  1.4497
 6416TIP3    H240740   0.554   5.659  14.329  1.5078  0.5531  1.2050
 6417TIP3   OH240741   0.432   5.467  17.071 -0.2963 -0.6889  0.3589
 6417TIP3    H140742   0.373   5.534  17.108  0.7285  0.9242 -0.8503
 6417TIP3    H240743   0.387   5.435  16.993 -0.4355 -0.8601  0.5082
 6418TIP3   OH240744   0.007   4.057   0.861  0.4804 -0.8468 -0.6309
 6418TIP3    H140745  -0.020   3.966   0.866  0.1026 -0.6845  0.5220
 6418TIP3    H240746  -0.052   4.103   0.921  0.7811  0.1253 -1.0608
 6419TIP3   OH240747   6.169   2.738   0.068 -0.4113  0.6039  0.3578
 6419TIP3    H140748   6.261   2.754   0.089  0.6576 -0.9602 -2.8313
 6419TIP3    H240749   6.160   2.766  -0.024 -2.6666 -0.9196  0.0751
 6420TIP3   OH240750   2.298   2.254   0.395  0.3952 -0.3089 -0.5910
 6420TIP3    H140751   2.273   2.236   0.486  1.0940  0.2743 -0.2790
 6420TIP3    H240752   2.392   2.271   0.399  1.0968 -3.5359 -1.8876
 6421TIP3   OH240753   3.798   0.836   4.551 -0.1025  0.1704 -0.3515
 6421TIP3    H140754   3.813   0.856   4.643 -1.0003  0.2822 -0.2309
 6421TIP3    H240755   3.819   0.743   4.543 -1.1956 -0.1282  0.2178
 6422TIP3   OH240756   5.209   1.104   0.741 -0.2876  0.2488 -0.2549
 6422TIP3    H140757   5.137   1.135   0.796 -2.6771 -1.2100 -2.4210
 6422TIP3    H240758   5.253   1.037   0.794 -2.8947 -1.5424 -0.2271
 6423TIP3   OH240759   2.841   3.651  13.591 -0.4258  0.3649  0.8804
 6423TIP3    H140760   2.842   3.744  13.570  1.7562  0.4878  1.3909
 6423TIP3    H240761   2.878   3.646  13.679 -1.1078 -0.9264  1.1006
 6424TIP3   OH240762   3.242   5.190   0.849  0.5674 -0.1495 -0.1274
 6424TIP3    H140763   3.247   5.182   0.944 -2.2203 -0.3757  0.0386
 6424TIP3    H240764   3.197   5.273   0.834  0.0006 -0.6390 -1.2165
 6425TIP3   OH240765   2.941   2.226  10.584  0.4995  0.2610 -0.4399
 6425TIP3    H140766   2.888   2.304  10.564  0.6887  0.6929  0.7037
 6425TIP3    H240767   3.004   2.222  10.512 -0.1725  0.5653 -1.0570
 6426TIP3   OH240768   6.801   6.630  14.108  0.3363 -0.4308 -0.2161
 6426TIP3    H140769   6.883   6.586  14.131  0.4486  0.3621  0.8835
 6426TIP3    H240770   6.813   6.656  14.017  1.2149 -0.5121 -0.1252
 6427TIP3   OH240771   2.555   4.246   2.459 -0.8767  0.1381  0.1067
 6427TIP3    H140772   2.512   4.292   2.531 -0.5632  0.4126  0.1230
 6427TIP3    H240773   2.552   4.308   2.386 -2.2822 -0.6129 -0.4801
 6428TIP3   OH240774   0.103   5.638  12.307  0.0169 -0.3514 -0.0266
 6428TIP3    H140775   0.087   5.554  12.349  1.8498 -0.2241  1.0105
 6428TIP3    H240776   0.179   5.674  12.354 -0.0741  1.3891 -1.1560
 6429TIP3   OH240777   0.949   3.762   4.615 -0.7886 -0.4815 -0.2029
 6429TIP3    H140778   0.867   3.731   4.578 -1.0437 -1.7503  1.3391
 6429TIP3    H240779   0.924   3.799   4.700  0.2746 -1.1941  0.4314
 6430TIP3   OH240780   0.792   5.900  15.446  0.5710  0.8252  1.0439
 6430TIP3    H140781   0.841   5.937  15.373  0.0325  1.8342  1.1955
 6430TIP3    H240782   0.710   5.949  15.447 -1.1669 -1.8928 -0.2285
 6431TIP3   OH240783   2.297   5.761  12.986 -0.3833 -0.0747  0.4358
 6431TIP3    H140784   2.391   5.760  12.967  0.1097 -0.0098  2.7757
 6431TIP3    H240785   2.259   5.700  12.922  1.0497  0.9790 -1.4579
 6432TIP3   OH240786   5.212   6.278  11.723 -0.6949  0.5853 -0.3368
 6432TIP3    H140787   5.204   6.329  11.804  0.8133 -0.3807  0.4245
 6432TIP3    H240788   5.304   6.285  11.698 -0.9821  0.2277 -1.5506
 6433TIP3   OH240789   3.062   1.791   1.009  0.3698 -0.0488  0.2154
 6433TIP3    H140790   3.084   1.698   1.009 -1.0671 -0.4001 -0.3630
 6433TIP3    H240791   2.983   1.797   0.955  2.0659  1.9130 -2.1609
 6434TIP3   OH240792   3.187   0.205   3.965  0.8140 -0.1789  0.6419
 6434TIP3    H140793   3.184   0.199   4.060 -0.5469  1.5204  0.7268
 6434TIP3    H240794   3.105   0.165   3.936 -0.4078  2.4483  0.3835
 6435TIP3   OH240795   5.865   0.021   6.516  0.4600 -0.3843  0.0524
 6435TIP3    H140796   5.848   0.114   6.530  2.5215  0.0845 -0.4352
 6435TIP3    H240797   5.848  -0.020   6.601 -2.5477  0.0842 -0.2601
 6436TIP3   OH240798   4.658   6.162   1.428  0.4427 -0.1773  0.1743
 6436TIP3    H140799   4.606   6.151   1.348  0.7594  2.1284 -0.4086
 6436TIP3    H240800   4.749   6.152   1.399  0.6102  1.5762  0.0343
 6437TIP3   OH240801   4.450   0.023   1.567 -0.1492  0.0198 -0.4395
 6437TIP3    H140802   4.475   0.081   1.495 -0.1662  1.0825  0.3968
 6437TIP3    H240803   4.358   0.044   1.584  0.1864  0.6334  0.6681
 6438TIP3   OH240804   6.520   2.194  12.209  0.0343 -0.1438 -0.5376
 6438TIP3    H140805   6.594   2.143  12.242  0.4199  0.8658  0.1691
 6438TIP3    H240806   6.504   2.260  12.276 -1.1151  0.0392 -0.9747
 6439TIP3   OH240807   2.198   2.993   3.825 -0.1358  0.4109  0.2446
 6439TIP3    H140808   2.195   3.062   3.759 -1.5074  1.6939  1.6009
 6439TIP3    H240809   2.271   3.018   3.882  1.1401 -0.7733 -0.8499
 6440TIP3   OH240810   5.895   4.158   1.913 -0.2811  0.5308 -0.3773
 6440TIP3    H140811   5.991   4.158   1.913 -0.2798 -0.1356 -0.2919
 6440TIP3    H240812   5.871   4.231   1.857  0.2696  2.4875  1.8478
 6441TIP3   OH240813   1.313   1.354   4.087  0.3822 -0.9883 -1.0151
 6441TIP3    H140814   1.345   1.288   4.149 -0.0928  0.3803  0.7164
 6441TIP3    H240815   1.390   1.377   4.035  1.0500 -1.3323 -0.1918
 6442TIP3   OH240816   1.438   1.196   5.374  0.5100  0.1834 -0.1203
 6442TIP3    H140817   1.412   1.105   5.364  2.7400 -0.3856 -1.1426
 6442TIP3    H240818   1.357   1.243   5.392 -1.0956 -1.5766 -2.5013
 6443TIP3   OH240819   3.326   5.966  14.486 -0.7940 -0.5784 -0.1604
 6443TIP3    H140820   3.361   5.984  14.399  0.2460 -0.3323  0.3064
 6443TIP3    H240821   3.375   6.024  14.545 -3.4358  1.3587  0.2516
 6444TIP3   OH240822   2.040   6.792   4.440  1.1127 -0.5255 -0.1240
 6444TIP3    H140823   2.026   6.835   4.356  0.8804  0.7568  0.5605
 6444TIP3    H240824   2.116   6.736   4.426  1.6805  0.4287 -0.9135
 6445TIP3   OH240825   0.035   2.278   4.076 -0.0501  1.0386 -0.0090
 6445TIP3    H140826  -0.043   2.333   4.062 -0.2021  0.9035  0.3107
 6445TIP3    H240827   0.072   2.267   3.988 -1.6656 -0.7888 -0.5039
 6446TIP3   OH240828   1.902   1.038   1.200 -0.1185  0.3911  0.0076
 6446TIP3    H140829   1.925   0.964   1.145  0.7732  1.0716 -0.5361
 6446TIP3    H240830   1.844   1.092   1.146  0.9559  1.1853 -0.3659
 6447TIP3   OH240831   0.602   1.896   3.578 -0.5031  0.0623  0.3290
 6447TIP3    H140832   0.630   1.830   3.642 -1.4624  1.0108  1.7582
 6447TIP3    H240833   0.507   1.899   3.588 -0.5470  1.0532 -0.3426
 6448TIP3   OH240834   6.802   5.845   6.011 -0.0036 -0.5461 -0.3931
 6448TIP3    H140835   6.822   5.830   6.104  0.4581 -1.3154 -0.6114
 6448TIP3    H240836   6.715   5.808   5.999 -1.0024  1.5271  0.2327
 6449TIP3   OH240837   3.786   6.809  14.645  0.2413  0.4198  0.2901
 6449TIP3    H140838   3.789   6.886  14.588  0.2339  0.9077  0.9434
 6449TIP3    H240839   3.824   6.839  14.728  0.8792 -0.4743  0.3224
 6450TIP3   OH240840   3.117   2.302  13.305  0.1887 -0.5049  0.5095
 6450TIP3    H140841   3.056   2.242  13.347 -0.2448 -0.8119 -0.5547
 6450TIP3    H240842   3.186   2.246  13.270  0.5056 -0.2552  0.7257
 6451TIP3   OH240843   1.923   5.120  11.154 -0.1007 -0.0208  0.7281
 6451TIP3    H140844   1.980   5.045  11.173 -0.6945 -1.1060 -1.5999
 6451TIP3    H240845   1.848   5.109  11.212 -0.4272 -1.5486  0.0529
 6452TIP3   OH240846   5.323   4.889   2.931  0.6487  0.3063 -0.0645
 6452TIP3    H140847   5.306   4.876   3.024  1.5917 -1.6721 -0.1309
 6452TIP3    H240848   5.376   4.813   2.906  1.1226  1.2512 -2.0196
 6453TIP3   OH240849   3.921   4.559   3.431  0.4930  0.0485  0.5279
 6453TIP3    H140850   3.981   4.490   3.401 -0.3061 -1.1347  1.5993
 6453TIP3    H240851   3.837   4.538   3.388  0.3146  0.5035  0.6499
 6454TIP3   OH240852   2.925   0.551   6.764 -0.2991  0.7066  0.3452
 6454TIP3    H140853   2.900   0.463   6.792  0.8138  1.1568  2.8667
 6454TIP3    H240854   3.014   0.541   6.731 -0.6770  0.6442 -0.6643
 6455TIP3   OH240855   5.707   6.417  15.762  0.2796  0.6075 -0.0939
 6455TIP3    H140856   5.690   6.345  15.823 -3.1505  1.3944 -0.0474
 6455TIP3    H240857   5.667   6.389  15.680  1.0788  1.4139 -0.7661
 6456TIP3   OH240858   0.890   2.833   5.970 -0.4620 -0.1319 -0.0356
 6456TIP3    H140859   0.861   2.818   6.060  0.3054 -0.8203  0.1013
 6456TIP3    H240860   0.909   2.746   5.936  0.2969  0.2111 -0.5118
 6457TIP3   OH240861   0.417   5.222  12.040  0.3115  0.0037  0.0572
 6457TIP3    H140862   0.513   5.220  12.041  0.3414  0.7403 -0.8527
 6457TIP3    H240863   0.395   5.313  12.020 -0.5751 -0.3472 -0.5749
 6458TIP3   OH240864   0.219   4.627  10.314 -0.5054  0.2710 -0.2643
 6458TIP3    H140865   0.310   4.654  10.326 -0.2495 -0.2820 -0.8812
 6458TIP3    H240866   0.173   4.707  10.290 -0.3287  0.6901  0.8032
 6459TIP3   OH240867   4.009   0.333   4.246  0.6840 -0.3289 -0.2791
 6459TIP3    H140868   3.932   0.313   4.299  0.7572  2.2384  0.9023
 6459TIP3    H240869   3.974   0.357   4.161 -0.1024  3.3474  0.9964
 6460TIP3   OH240870   6.614   1.044  11.606  0.1438 -0.1811 -0.5410
 6460TIP3    H140871   6.558   0.984  11.556 -0.4433 -0.0753 -0.0175
 6460TIP3    H240872   6.701   1.005  11.602 -0.1022 -0.7003 -0.8038
 6461TIP3   OH240873   6.273   1.162   1.305  0.3396 -0.1047  0.4865
 6461TIP3    H140874   6.299   1.162   1.397  2.6323  0.6335 -0.1292
 6461TIP3    H240875   6.212   1.088   1.297 -1.6229  1.1416  3.0361
 6462TIP3   OH240876   0.066   5.875   2.719 -0.3751 -0.5969 -0.7448
 6462TIP3    H140877   0.001   5.809   2.746 -0.1092 -0.3458  0.5612
 6462TIP3    H240878   0.144   5.854   2.771 -0.4561  1.0535  0.0642
 6463TIP3   OH240879   4.103   0.016   5.376 -0.4715 -0.0528 -0.2775
 6463TIP3    H140880   4.156  -0.058   5.404  1.2841  1.2522 -0.0487
 6463TIP3    H240881   4.068  -0.010   5.291 -0.1223 -1.2617 -0.0553
 6464TIP3   OH240882   3.084   3.775   5.374 -0.6919 -0.1427 -0.1578
 6464TIP3    H140883   3.120   3.797   5.287 -0.5825 -0.0289 -0.0854
 6464TIP3    H240884   3.140   3.705   5.406  0.1477  0.7662  0.4110
 6465TIP3   OH240885   2.985   5.481   4.350  0.2384  0.2868 -0.0295
 6465TIP3    H140886   3.013   5.390   4.351  2.1032  0.8440  1.3151
 6465TIP3    H240887   3.050   5.526   4.297  0.7138  1.2401  1.3298
 6466TIP3   OH240888   5.149   0.142   3.491 -0.4705 -0.0253  0.7555
 6466TIP3    H140889   5.117   0.156   3.580 -2.7956 -0.8633  0.0785
 6466TIP3    H240890   5.079   0.094   3.447  0.0918  1.5376 -1.9341
 6467TIP3   OH240891   0.794   2.621  15.878 -0.3180  0.2055  0.4174
 6467TIP3    H140892   0.779   2.714  15.858  0.6518  0.4649  0.8615
 6467TIP3    H240893   0.732   2.574  15.822  0.3873  1.0439 -1.1039
 6468TIP3   OH240894   6.205   3.124  15.374  0.0039 -0.0440 -0.2123
 6468TIP3    H140895   6.249   3.137  15.289  2.8931  0.2012  1.2632
 6468TIP3    H240896   6.153   3.204  15.386 -1.1791 -0.4873 -2.1571
 6469TIP3   OH240897   5.586   4.004  14.846 -0.2920 -0.0493  0.2069
 6469TIP3    H140898   5.491   3.996  14.841 -0.1719 -0.3752 -2.2003
 6469TIP3    H240899   5.602   4.097  14.862 -0.9956  0.1661 -0.3311
 6470TIP3   OH240900   3.627   2.413   1.867 -0.3137 -0.0962  0.3935
 6470TIP3    H140901   3.670   2.343   1.818 -0.5805 -0.1630  0.2520
 6470TIP3    H240902   3.537   2.382   1.878 -0.8062  0.8358 -0.8764
 6471TIP3   OH240903   1.713   0.257  14.815  0.1654 -0.1332  0.0179
 6471TIP3    H140904   1.759   0.227  14.893 -2.8166 -2.1383  1.0865
 6471TIP3    H240905   1.643   0.313  14.848 -1.7791 -1.8498 -1.0552
 6472TIP3   OH240906   6.001   1.745   2.057  0.3236  0.1197 -0.0605
 6472TIP3    H140907   6.051   1.812   2.009  2.9316 -1.2127  0.7269
 6472TIP3    H240908   6.033   1.750   2.147  0.6769 -2.2710 -0.0163
 6473TIP3   OH240909   4.423   3.701  12.508  0.1717  0.4348  0.4167
 6473TIP3    H140910   4.364   3.764  12.466 -0.2263  0.8245  1.5337
 6473TIP3    H240911   4.504   3.706  12.457  0.1278  1.8295  0.4716
 6474TIP3   OH240912   6.128   2.455   4.076 -0.2795 -0.3282 -0.0183
 6474TIP3    H140913   6.190   2.500   4.133 -0.6567 -1.0102  0.9558
 6474TIP3    H240914   6.162   2.366   4.068  0.1256 -0.0584 -1.4123
 6475TIP3   OH240915   0.046   1.247  12.362 -0.2512 -0.2780 -0.0148
 6475TIP3    H140916   0.006   1.326  12.325  0.7183  1.0354  1.6505
 6475TIP3    H240917   0.031   1.254  12.456  1.9924 -0.8217  0.4144
 6476TIP3   OH240918   6.286   0.972   4.500  0.5742  0.1726  0.6618
 6476TIP3    H140919   6.360   0.951   4.443 -0.2211  0.2500 -0.4207
 6476TIP3    H240920   6.317   0.952   4.589  2.2149  1.0962  0.3168
 6477TIP3   OH240921   1.096   1.780  13.085 -0.4170  0.0886 -0.4082
 6477TIP3    H140922   1.106   1.769  12.991  0.3668  2.9305 -0.7045
 6477TIP3    H240923   1.182   1.757  13.121  0.1102  1.6095 -0.6677
 6478TIP3   OH240924   3.073   1.235   0.716 -0.2356  0.1664  0.1395
 6478TIP3    H140925   3.155   1.215   0.762 -0.0781  0.1814 -0.1334
 6478TIP3    H240926   3.067   1.330   0.718  0.0677  0.1984 -0.3806
 6479TIP3   OH240927   1.381   0.531  11.978  0.0038  0.5507  0.2838
 6479TIP3    H140928   1.319   0.464  11.948  0.9205  0.1995 -0.8737
 6479TIP3    H240929   1.371   0.603  11.915 -0.6138  1.2987  1.2296
 6480TIP3   OH240930   4.855   2.674  16.830  0.3669  0.5133  0.1269
 6480TIP3    H140931   4.858   2.679  16.735 -1.7124 -1.8327 -0.0970
 6480TIP3    H240932   4.762   2.681  16.853  0.3540 -3.2418  1.6320
 6481TIP3   OH240933   3.818   2.151   4.608  0.0472  0.0185  0.1714
 6481TIP3    H140934   3.816   2.068   4.560  0.4245 -0.0108  0.2103
 6481TIP3    H240935   3.878   2.206   4.558 -0.8324  0.5557 -0.3255
 6482TIP3   OH240936   1.414   3.393   4.863 -0.4806  0.0430 -0.1343
 6482TIP3    H140937   1.348   3.387   4.794 -0.1072 -1.3637 -0.3807
 6482TIP3    H240938   1.439   3.485   4.863 -1.0122  0.2078 -1.3946
 6483TIP3   OH240939   5.264   3.572  11.727 -0.0942 -0.8638  0.0258
 6483TIP3    H140940   5.302   3.505  11.671 -1.2720 -0.9212 -0.7269
 6483TIP3    H240941   5.175   3.583  11.693 -0.2046  0.4198  0.7282
 6484TIP3   OH240942   6.090   3.976  13.397  0.0908  0.3822 -0.6401
 6484TIP3    H140943   6.166   3.994  13.452 -1.2530  0.7427  1.1541
 6484TIP3    H240944   6.043   4.059  13.392  0.2909  0.4006 -2.5189
 6485TIP3   OH240945   3.122   1.047  16.307 -0.2355  0.0084 -0.3773
 6485TIP3    H140946   3.037   1.064  16.268 -0.4788  3.9930  1.6340
 6485TIP3    H240947   3.109   0.966  16.357 -2.4837 -0.0943 -1.0666
 6486TIP3   OH240948   2.671   0.516  11.993 -0.2607  0.3965  0.1455
 6486TIP3    H140949   2.680   0.524  11.899 -4.4857 -0.4563 -0.4220
 6486TIP3    H240950   2.679   0.422  12.010 -0.3698  0.4516  0.5184
 6487TIP3   OH240951   5.672   6.601  12.672  0.7751 -0.0540 -0.2093
 6487TIP3    H140952   5.735   6.623  12.740  0.9888  1.3163 -0.8361
 6487TIP3    H240953   5.588   6.629  12.707  0.6868 -0.6442  0.0643
 6488TIP3   OH240954   1.659   4.496   1.661  0.4806  0.1731 -0.0774
 6488TIP3    H140955   1.655   4.538   1.574  1.9898  1.4284  0.4235
 6488TIP3    H240956   1.753   4.482   1.676  0.2664  0.3475  1.5175
 6489TIP3   OH240957   2.305   4.755  12.067  0.0434  0.2778 -0.1669
 6489TIP3    H140958   2.269   4.668  12.086  2.0789 -0.3685  0.8396
 6489TIP3    H240959   2.298   4.803  12.149  2.1997 -0.1442  0.3052
 6490TIP3   OH240960   6.458   2.963  15.030  0.4963 -0.7344 -0.6320
 6490TIP3    H140961   6.525   3.031  15.036 -0.3307  0.2001 -1.7937
 6490TIP3    H240962   6.458   2.921  15.116  1.6910  0.0999 -0.2245
 6491TIP3   OH240963   5.962   1.453   1.922 -0.0168 -0.0125 -0.3145
 6491TIP3    H140964   5.989   1.415   2.006  1.2887  1.2946 -0.1162
 6491TIP3    H240965   5.990   1.544   1.927 -1.3867  0.5015 -1.5415
 6492TIP3   OH240966   5.053   1.906   6.045 -0.2643  0.0529 -0.4379
 6492TIP3    H140967   4.989   1.940   6.107  0.3255  1.0292 -0.3517
 6492TIP3    H240968   5.054   1.812   6.061 -0.7882  0.1853  0.3960
 6493TIP3   OH240969   1.157   3.224   1.692  0.0756 -0.2169 -0.5472
 6493TIP3    H140970   1.229   3.243   1.632 -0.2649 -0.0888 -0.9206
 6493TIP3    H240971   1.139   3.307   1.735 -1.1065  0.2197 -1.8435
 6494TIP3   OH240972   4.848   5.950   4.151 -0.6589 -0.9105  0.0067
 6494TIP3    H140973   4.754   5.951   4.135 -0.6805 -1.2036  0.1074
 6494TIP3    H240974   4.872   5.857   4.147 -0.0999 -0.7166 -1.6721
 6495TIP3   OH240975   4.781   5.038   5.366  0.4816  0.2326 -0.1810
 6495TIP3    H140976   4.699   5.027   5.415  1.5350 -0.9725  1.3650
 6495TIP3    H240977   4.818   5.120   5.399  1.9292 -1.3324  2.2005
 6496TIP3   OH240978   2.301   2.113   3.056  0.0697  0.5298 -0.3391
 6496TIP3    H140979   2.383   2.087   3.015  0.3590  2.2067 -0.8745
 6496TIP3    H240980   2.323   2.123   3.149 -0.1887 -1.6314 -0.0166
 6497TIP3   OH240981   5.145   6.023  11.619  0.0588 -0.0934  0.3861
 6497TIP3    H140982   5.197   5.945  11.641 -1.0608 -1.0853 -0.4043
 6497TIP3    H240983   5.200   6.097  11.645  0.6795 -1.1557  2.2060
 6498TIP3   OH240984   2.183   0.251   1.152  0.4732  0.2027 -0.7287
 6498TIP3    H140985   2.210   0.342   1.139 -0.6022  0.7350  0.5765
 6498TIP3    H240986   2.264   0.201   1.152  1.0707  1.1697 -1.4506
 6499TIP3   OH240987   2.749   4.440  16.032  0.0459  0.3919  0.0254
 6499TIP3    H140988   2.655   4.438  16.010  0.0485  1.2435 -0.0768
 6499TIP3    H240989   2.751   4.459  16.126  0.1254  1.3251 -0.1564
 6500TIP3   OH240990   1.232   1.995   0.163 -0.0049  0.1339  0.2296
 6500TIP3    H140991   1.222   1.950   0.079 -0.5664 -0.4584  0.6155
 6500TIP3    H240992   1.251   1.926   0.226  1.2228  0.6581  0.4669
 6501TIP3   OH240993   4.289   6.581  13.305 -0.0185 -0.5396  0.2094
 6501TIP3    H140994   4.359   6.550  13.362  0.6859  0.1428 -0.2701
 6501TIP3    H240995   4.329   6.582  13.218 -0.9425 -1.1386 -0.2283
 6502TIP3   OH240996   4.098   0.149   2.430  0.0943 -0.1939 -0.3109
 6502TIP3    H140997   4.024   0.176   2.485  0.2501  1.6537 -0.9604
 6502TIP3    H240998   4.074   0.179   2.342  1.7265  0.6747 -0.4768
 6503TIP3   OH240999   0.400   6.340   3.356  0.4323 -0.8272 -0.7493
 6503TIP3    H141000   0.408   6.325   3.450 -1.0618 -0.1267 -0.4967
 6503TIP3    H241001   0.401   6.435   3.347  0.1315 -0.8864 -1.4029
 6504TIP3   OH241002   4.759   0.430   1.027 -0.4185 -0.2466  0.2078
 6504TIP3    H141003   4.669   0.414   1.057 -0.4290  1.3578  1.0782
 6504TIP3    H241004   4.762   0.524   1.011  1.5556 -0.0571  1.6118
 6505TIP3   OH241005   6.456   1.111  13.827 -0.5315  0.2889  0.8938
 6505TIP3    H141006   6.517   1.104  13.900 -0.7177  1.5837  1.1749
 6505TIP3    H241007   6.391   1.175  13.856 -0.8625  0.4625 -0.2247
 6506TIP3   OH241008   6.062   3.448  15.075 -0.0934  0.3009 -0.4056
 6506TIP3    H141009   6.093   3.412  15.158  3.5901  3.9118 -0.0852
 6506TIP3    H241010   5.991   3.507  15.099 -0.3735 -0.1701 -0.0641
 6507TIP3   OH241011   0.312   2.409   5.442 -0.3137 -0.4537  0.4413
 6507TIP3    H141012   0.375   2.400   5.513  0.6192 -0.6501 -0.4008
 6507TIP3    H241013   0.358   2.457   5.374 -0.2555 -2.5939 -1.1098
 6508TIP3   OH241014   1.902   0.193   5.165  0.4557 -0.8838 -0.1468
 6508TIP3    H141015   1.898   0.249   5.242 -0.2285 -0.1185 -0.7366
 6508TIP3    H241016   1.814   0.156   5.157 -0.4536  1.6324 -2.4646
 6509TIP3   OH241017   1.928   4.812   3.222  0.3445 -0.7400 -0.5927
 6509TIP3    H141018   1.885   4.734   3.259 -0.5876  0.0440  0.0148
 6509TIP3    H241019   1.967   4.782   3.141  0.4435 -1.9740 -0.0966
 6510TIP3   OH241020   6.436   5.816  15.336  0.2460  0.1179 -0.3383
 6510TIP3    H141021   6.411   5.888  15.278 -0.3449 -0.4672 -0.8238
 6510TIP3    H241022   6.353   5.772  15.356  0.2660  1.1320  2.0692
 6511TIP3   OH241023   6.649   4.352   0.204  0.5462  0.7076  0.5127
 6511TIP3    H141024   6.564   4.354   0.159  2.0480  1.8425 -2.3938
 6511TIP3    H241025   6.665   4.259   0.220 -1.2138  0.4787  1.0459
 6512TIP3   OH241026   1.625   1.216   0.925  0.3389 -0.0105 -0.0873
 6512TIP3    H141027   1.610   1.260   0.841 -0.6122 -0.0580  0.0550
 6512TIP3    H241028   1.549   1.161   0.938  1.4669 -1.6194 -0.1859
 6513TIP3   OH241029   0.071   0.978  15.007 -0.0860 -0.0351  0.1847
 6513TIP3    H141030   0.133   0.987  15.080 -1.5563 -1.8032  1.7085
 6513TIP3    H241031   0.012   1.052  15.017 -0.4183 -0.3932  0.9511
 6514TIP3   OH241032   4.665   2.198   4.283 -0.1799 -0.0500  0.4369
 6514TIP3    H141033   4.682   2.247   4.363 -0.9784  0.0067  0.5716
 6514TIP3    H241034   4.729   2.127   4.285  0.2305  0.3293  0.7987
 6515TIP3   OH241035   2.068   1.310  16.133 -0.2404  0.4535  0.0043
 6515TIP3    H141036   1.986   1.345  16.098 -0.4990 -1.0625 -0.9046
 6515TIP3    H241037   2.121   1.290  16.056 -0.1725 -1.3334  0.4975
 6516TIP3   OH241038   4.943   5.221  11.607  0.5116 -0.2803  0.4195
 6516TIP3    H141039   4.931   5.304  11.654 -0.0102 -1.5982  2.6901
 6516TIP3    H241040   5.037   5.204  11.614  0.3050 -0.9017  1.7518
 6517TIP3   OH241041   2.637   0.615   5.191  0.3870  0.2399  0.4327
 6517TIP3    H141042   2.577   0.674   5.146  0.3100  0.2421  0.5369
 6517TIP3    H241043   2.681   0.670   5.256  1.4206  0.5116 -0.4930
 6518TIP3   OH241044   4.603   1.304   3.407 -0.8378  0.7667  0.2898
 6518TIP3    H141045   4.584   1.314   3.314  1.3387  0.6369 -0.1846
 6518TIP3    H241046   4.559   1.222   3.432 -1.3931  0.7841 -0.6027
 6519TIP3   OH241047   4.228   0.910   1.106  1.1493 -0.0865 -0.2730
 6519TIP3    H141048   4.231   0.924   1.011 -1.2090 -0.8577 -0.4878
 6519TIP3    H241049   4.244   0.816   1.116 -0.2416 -0.3040 -0.0304
 6520TIP3   OH241050   4.575   3.172  14.251 -0.1842 -0.1612  0.0405
 6520TIP3    H141051   4.669   3.157  14.261 -0.5613 -2.1329  0.9565
 6520TIP3    H241052   4.566   3.219  14.168  1.5227 -1.0317 -0.6503
 6521TIP3   OH241053   1.706   0.145   0.852  0.1726  0.6905  0.1075
 6521TIP3    H141054   1.770   0.156   0.782  0.4728 -0.1098  0.2577
 6521TIP3    H241055   1.653   0.070   0.825 -1.0511  1.6638 -0.2779
 6522TIP3   OH241056   2.740   0.390   0.447 -0.0669  0.1013 -0.2889
 6522TIP3    H141057   2.740   0.299   0.476  0.1464  0.6888  1.5946
 6522TIP3    H241058   2.825   0.402   0.405 -0.1231 -0.5758 -0.6072
 6523TIP3   OH241059   4.743   5.896  14.587  0.1005 -0.6376 -0.2152
 6523TIP3    H141060   4.666   5.856  14.626  0.8007 -1.1942  0.5967
 6523TIP3    H241061   4.736   5.989  14.611 -0.7278 -0.5312 -0.8269
 6524TIP3   OH241062   6.296   5.485  15.698 -0.2475 -0.6894  0.3959
 6524TIP3    H141063   6.243   5.564  15.689  2.2317  0.9518 -0.3002
 6524TIP3    H241064   6.369   5.511  15.754  0.7619 -2.4069 -0.0866
 6525TIP3   OH241065   2.049   1.137   1.664  1.1140  0.1832  0.1673
 6525TIP3    H141066   2.092   1.062   1.704  0.5542  0.0034  0.4446
 6525TIP3    H241067   2.034   1.111   1.573  0.2665 -0.3314  0.4471
 6526TIP3   OH241068   5.121   2.277   4.286 -0.4447  0.5833  0.6131
 6526TIP3    H141069   5.060   2.282   4.360  1.5275 -1.2848  2.4248
 6526TIP3    H241070   5.142   2.184   4.278  0.3386  0.9059 -1.5421
 6527TIP3   OH241071   4.628   5.851  17.260  0.0846 -0.6664 -0.1969
 6527TIP3    H141072   4.705   5.845  17.316 -1.4309 -1.0387  1.9159
 6527TIP3    H241073   4.580   5.770  17.276 -0.9563 -0.2565 -1.1743
 6528TIP3   OH241074   6.716   5.807  16.035  0.6237  0.2682 -0.9038
 6528TIP3    H141075   6.796   5.832  15.989  0.7081  0.6311 -0.5671
 6528TIP3    H241076   6.722   5.712  16.045  1.5996  0.4279  0.1889
 6529TIP3   OH241077   6.687   2.055  14.180 -0.6378  0.4738  0.4483
 6529TIP3    H141078   6.670   2.097  14.096 -2.1051  0.1603  0.5870
 6529TIP3    H241079   6.759   1.994  14.162 -0.8062  0.5555 -0.5271
 6530TIP3   OH241080   5.536   1.198  15.807  0.0231  0.3138  0.6713
 6530TIP3    H141081   5.477   1.246  15.749  1.2215  0.0891 -0.7857
 6530TIP3    H241082   5.534   1.108  15.774  2.3669  0.6269 -0.4353
 6531TIP3   OH241083   1.634   1.298  16.719 -0.2687  0.1093  0.3776
 6531TIP3    H141084   1.704   1.348  16.760 -0.8989  0.4426  1.0717
 6531TIP3    H241085   1.583   1.264  16.793 -1.9314  1.4467 -0.1009
 6532TIP3   OH241086   3.094   5.936  11.743  0.0767 -0.4621  0.6604
 6532TIP3    H141087   3.152   5.991  11.691 -0.3253 -0.3678  0.3136
 6532TIP3    H241088   3.123   5.847  11.724 -0.4433 -0.4611 -0.1850
 6533TIP3   OH241089   3.292   5.628   5.596 -0.3568 -0.5743 -0.8282
 6533TIP3    H141090   3.229   5.557   5.581 -2.9411  1.4466  0.0379
 6533TIP3    H241091   3.238   5.703   5.618  2.4679  0.8739  1.4585
 6534TIP3   OH241092   4.163   4.164   5.251  0.2754  0.2902 -0.4275
 6534TIP3    H141093   4.115   4.143   5.331 -0.2249 -0.0116 -0.8037
 6534TIP3    H241094   4.212   4.084   5.231  1.3188  0.7612  0.2232
 6535TIP3   OH241095   1.337   0.295  15.423  0.3589  0.0872  0.0148
 6535TIP3    H141096   1.266   0.263  15.369  0.0957  2.1257 -0.8979
 6535TIP3    H241097   1.404   0.323  15.361  1.1184  0.0654  0.8082
 6536TIP3   OH241098   3.471   3.539   5.168  0.6271  0.1657  0.0635
 6536TIP3    H141099   3.384   3.509   5.140  1.1004 -0.5849 -0.6076
 6536TIP3    H241100   3.512   3.462   5.207  0.0175  1.1640  2.7886
 6537TIP3   OH241101   6.392   2.727  16.063 -0.1917  0.2573 -0.3861
 6537TIP3    H141102   6.370   2.644  16.020  1.8424 -0.5026  0.0085
 6537TIP3    H241103   6.481   2.715  16.096  0.1891  2.6384 -0.4323
 6538TIP3   OH241104   3.055   3.980  11.316  0.0553 -0.4836 -0.0714
 6538TIP3    H141105   3.020   4.050  11.372  1.1315 -0.6784  0.8535
 6538TIP3    H241106   2.984   3.963  11.253 -0.6331  0.6889  0.3610
 6539TIP3   OH241107   4.827   4.298  14.922 -0.3446 -0.0093 -0.5810
 6539TIP3    H141108   4.759   4.256  14.869 -2.0399  1.4527  0.3615
 6539TIP3    H241109   4.818   4.257  15.008 -0.0364  0.1825 -0.4603
 6540TIP3   OH241110   2.779   6.628  12.162  0.7317  0.0382 -0.1510
 6540TIP3    H141111   2.773   6.620  12.067  2.0541  1.6777 -0.3790
 6540TIP3    H241112   2.864   6.590  12.184  0.7948  0.4244  0.2761
 6541TIP3   OH241113   0.733   1.157   1.348  0.4079  0.4966  0.4197
 6541TIP3    H141114   0.744   1.252   1.339  0.7249  0.4695  0.5292
 6541TIP3    H241115   0.814   1.127   1.388 -0.1704  0.3284  1.4681
 6542TIP3   OH241116   1.268   5.562  13.729  0.2326  0.5271  0.0010
 6542TIP3    H141117   1.317   5.488  13.692  0.7788  0.3099  1.1253
 6542TIP3    H241118   1.180   5.528  13.744  0.3931  0.1990  0.2033
 6543TIP3   OH241119   5.731   3.223   3.500  0.6784 -0.3164  0.4399
 6543TIP3    H141120   5.765   3.225   3.589 -0.7121 -0.1769  0.9741
 6543TIP3    H241121   5.804   3.190   3.447  1.6476  0.0152  1.5575
 6544TIP3   OH241122   1.436   1.766  16.912 -0.2141  0.0982 -0.6897
 6544TIP3    H141123   1.507   1.820  16.878  0.4091 -0.1390  0.1896
 6544TIP3    H241124   1.481   1.700  16.965 -1.1684  0.9456  1.2435
 6545TIP3   OH241125   3.946   2.387  11.550 -0.6085  0.0550  0.5839
 6545TIP3    H141126   4.008   2.416  11.483  0.5505 -1.7368  0.8537
 6545TIP3    H241127   3.920   2.468  11.594  2.5493  0.7520  1.3042
 6546TIP3   OH241128   2.335   2.525   2.638  0.0287 -0.0813 -0.1552
 6546TIP3    H141129   2.375   2.591   2.581  0.1615  0.2567  0.3196
 6546TIP3    H241130   2.355   2.556   2.726  1.4671 -1.5966  0.0663
 6547TIP3   OH241131   6.338   2.620   0.414 -0.1840 -0.0308  0.2701
 6547TIP3    H141132   6.298   2.703   0.440 -0.7995 -0.5035  0.8267
 6547TIP3    H241133   6.345   2.626   0.318 -2.2252 -0.2304  0.0923
 6548TIP3   OH241134   4.158   6.573  13.538 -0.5303 -0.2247 -0.5030
 6548TIP3    H141135   4.189   6.576  13.448 -2.3233 -2.5528 -1.2333
 6548TIP3    H241136   4.106   6.493  13.543 -0.1291 -0.3413  2.7061
 6549TIP3   OH241137   3.475   2.997   1.439  0.1878  0.0139 -0.1023
 6549TIP3    H141138   3.474   2.917   1.386  0.7725  0.7360 -1.2384
 6549TIP3    H241139   3.528   2.975   1.515 -0.6524 -1.0423  0.1879
 6550TIP3   OH241140   0.046   3.833   0.212  0.0783  0.5704  0.4228
 6550TIP3    H141141   0.043   3.739   0.193 -0.1259  0.9671 -1.5622
 6550TIP3    H241142  -0.045   3.861   0.210  0.3842  1.4634 -2.4494
 6551TIP3   OH241143   2.539   2.901  10.809  0.0120 -0.0598  0.1935
 6551TIP3    H141144   2.582   2.891  10.724 -1.7315  0.5579 -0.7704
 6551TIP3    H241145   2.445   2.897  10.790 -0.4223  1.1540  1.9542
 6552TIP3   OH241146   3.132   5.849   5.638 -0.4193  0.6215 -0.2934
 6552TIP3    H141147   3.061   5.898   5.597  0.3761  2.3304  0.3139
 6552TIP3    H241148   3.196   5.916   5.664  0.6748 -0.7356  0.6107
 6553TIP3   OH241149   6.381   1.435   1.607  0.0203  0.1492 -0.1733
 6553TIP3    H141150   6.457   1.383   1.632  0.6083  0.1877 -1.8671
 6553TIP3    H241151   6.373   1.423   1.513 -0.9903  1.6017 -0.2902
 6554TIP3   OH241152   5.579   0.325   4.667 -0.0296  0.2614  0.4707
 6554TIP3    H141153   5.595   0.289   4.579 -1.3630 -0.2714  0.4403
 6554TIP3    H241154   5.576   0.249   4.724 -0.8288  0.4765  0.7192
 6555TIP3   OH241155   2.503   1.929   5.268  0.1367  1.3223 -0.4389
 6555TIP3    H141156   2.418   1.896   5.297  1.2364 -1.3956 -0.0962
 6555TIP3    H241157   2.524   1.999   5.329 -0.9222  0.5975  0.8011
 6556TIP3   OH241158   4.301   5.559   0.333 -1.2761 -0.0346 -0.0802
 6556TIP3    H141159   4.258   5.614   0.268 -3.3214 -0.9188  0.5003
 6556TIP3    H241160   4.342   5.489   0.282 -1.4508  0.1893 -0.5325
 6557TIP3   OH241161   4.441   3.381   6.364 -0.5278 -0.1860 -0.1019
 6557TIP3    H141162   4.480   3.457   6.322 -0.6515  0.2281  0.5269
 6557TIP3    H241163   4.441   3.402   6.458  0.8193 -1.5936  0.2359
 6558TIP3   OH241164   4.198   5.054  15.624 -0.9261 -0.7755 -0.1370
 6558TIP3    H141165   4.240   4.985  15.573  0.6936 -1.4098  1.9796
 6558TIP3    H241166   4.105   5.042  15.608 -0.5321 -1.8339 -1.8046
 6559TIP3   OH241167   5.306   1.829   2.016  0.1915  0.2072  0.1550
 6559TIP3    H141168   5.279   1.742   2.044 -0.4468  0.1195 -0.7002
 6559TIP3    H241169   5.244   1.889   2.059 -0.2914  0.1278 -0.4161
 6560TIP3   OH241170   4.475   0.646  10.778 -0.0302  0.2615  0.1050
 6560TIP3    H141171   4.546   0.684  10.725 -0.0542 -0.1050 -0.1926
 6560TIP3    H241172   4.512   0.565  10.812 -0.4979 -0.2154 -0.5155
 6561TIP3   OH241173   3.374   0.474   1.434  0.6923  0.4347  0.4160
 6561TIP3    H141174   3.425   0.489   1.354  0.1204  4.0253  0.6679
 6561TIP3    H241175   3.299   0.423   1.406  2.0071 -0.9043 -0.7753
 6562TIP3   OH241176   1.364   2.628   3.704  0.1275 -0.2098 -0.4006
 6562TIP3    H141177   1.439   2.579   3.738 -1.3646 -1.4344  1.2563
 6562TIP3    H241178   1.319   2.566   3.647 -0.5629 -0.0623 -0.0242
 6563TIP3   OH241179   2.090   4.891   1.691 -0.3717 -0.1020  0.5023
 6563TIP3    H141180   2.092   4.798   1.668  0.2605 -0.1200  0.6177
 6563TIP3    H241181   2.134   4.934   1.618 -1.3462  0.1911  0.0770
 6564TIP3   OH241182   4.799   2.139  12.492 -0.0196 -0.0011  0.1435
 6564TIP3    H141183   4.708   2.167  12.478  0.5964  2.0967  0.1230
 6564TIP3    H241184   4.835   2.129  12.404 -0.0102 -0.0892  0.1568
 6565TIP3   OH241185   2.018   6.422   6.408 -0.4879  0.8704 -0.2254
 6565TIP3    H141186   2.068   6.341   6.398  0.3826  1.4683 -0.7475
 6565TIP3    H241187   1.926   6.394   6.406 -0.1816 -0.2281  0.7355
 6566TIP3   OH241188   6.650   4.465   3.449  0.1489  0.2160  0.3384
 6566TIP3    H141189   6.717   4.405   3.418  1.0241  0.4648  1.6980
 6566TIP3    H241190   6.692   4.551   3.446 -0.0626  0.3572  1.2975
 6567TIP3   OH241191   3.326   5.749  15.640  0.0541  0.0861 -0.3458
 6567TIP3    H141192   3.402   5.762  15.697  0.3543 -2.1763 -0.1886
 6567TIP3    H241193   3.296   5.661  15.661 -2.7783  1.0301 -0.2461
 6568TIP3   OH241194   5.888   5.932  14.033 -0.0257 -0.1741  0.0729
 6568TIP3    H141195   5.802   5.926  13.990 -0.2653  2.0570  0.1864
 6568TIP3    H241196   5.875   5.889  14.118 -0.2486 -2.2999 -0.9873
 6569TIP3   OH241197   1.599   3.759   3.326  0.1358 -0.2286 -0.3173
 6569TIP3    H141198   1.630   3.670   3.341  0.2191 -0.4071 -1.5418
 6569TIP3    H241199   1.518   3.765   3.378  0.0473 -1.0638 -0.3528
 6570TIP3   OH241200   1.457   2.998   1.535  0.0368  0.4821 -0.3792
 6570TIP3    H141201   1.444   2.995   1.629  0.6064  1.6831 -0.2501
 6570TIP3    H241202   1.397   2.932   1.500  0.7659 -0.9031  0.9042
 6571TIP3   OH241203   0.966   1.897  13.881 -0.3115 -0.3180  0.3092
 6571TIP3    H141204   1.058   1.896  13.910  0.2725 -1.3070 -1.4803
 6571TIP3    H241205   0.923   1.960  13.939  1.8494  1.3867  0.1368
 6572TIP3   OH241206   5.298   0.396   4.131 -0.1568  0.3785  0.2785
 6572TIP3    H141207   5.234   0.450   4.176 -1.5896 -0.8830 -0.1950
 6572TIP3    H241208   5.257   0.309   4.126  2.5835 -1.0890  2.1110
 6573TIP3   OH241209   3.928   2.065  12.108  0.9714  0.4704  0.5942
 6573TIP3    H141210   3.894   2.124  12.041  0.6759  0.5065  0.7749
 6573TIP3    H241211   4.024   2.074  12.102  0.9788 -0.1917 -0.4126
 6574TIP3   OH241212   3.576   2.318  15.734  0.4152 -0.4398 -0.0081
 6574TIP3    H141213   3.527   2.319  15.652  0.3041 -1.8594  0.0313
 6574TIP3    H241214   3.512   2.343  15.800 -0.0402 -1.4136 -0.0731
 6575TIP3   OH241215   4.164   2.509  15.765 -0.9154  0.2187  0.7572
 6575TIP3    H141216   4.248   2.466  15.782 -0.7792 -0.6518 -1.9442
 6575TIP3    H241217   4.104   2.438  15.744 -1.9993  0.9488  1.3358
 6576TIP3   OH241218   1.077   2.100  13.097  0.2659 -0.4787  0.3323
 6576TIP3    H141219   0.986   2.073  13.107  0.1214 -0.1251  0.0282
 6576TIP3    H241220   1.092   2.098  13.002  0.3297  0.2219  0.3204
 6577TIP3   OH241221   1.822   1.396  16.074  0.0462  0.0995 -0.8802
 6577TIP3    H141222   1.743   1.370  16.120  0.7755 -1.2548 -0.3641
 6577TIP3    H241223   1.812   1.491  16.061 -0.9378  0.2068  0.5409
 6578TIP3   OH241224   3.612   2.859  10.411 -0.2217  0.1027 -0.2062
 6578TIP3    H141225   3.552   2.822  10.476 -1.1302 -0.7506 -1.5062
 6578TIP3    H241226   3.638   2.944  10.447 -3.4737  1.2175 -0.3709
 6579TIP3   OH241227   2.666   6.685  14.756 -0.2361 -0.0267  0.4522
 6579TIP3    H141228   2.673   6.592  14.737  2.2007  0.1929  0.1323
 6579TIP3    H241229   2.598   6.717  14.696  1.6135 -0.8971 -2.1815
 6580TIP3   OH241230   1.573   1.416   2.492  0.6289  0.0927 -0.3744
 6580TIP3    H141231   1.639   1.474   2.455  0.1544  0.2689 -0.9427
 6580TIP3    H241232   1.492   1.467   2.490  0.7260  0.3904  1.5697
 6581TIP3   OH241233   0.019   5.045   2.411  0.2055 -0.0685  0.6925
 6581TIP3    H141234   0.106   5.010   2.427  0.5274 -0.0602 -0.9387
 6581TIP3    H241235   0.018   5.129   2.456  2.3319  1.6207 -2.2131
 6582TIP3   OH241236   1.510   0.618   0.764  0.6171 -0.0765 -0.0797
 6582TIP3    H141237   1.441   0.673   0.726 -0.3296 -0.8505  0.5213
 6582TIP3    H241238   1.512   0.643   0.856  0.3482 -0.8959  0.1439
 6583TIP3   OH241239   6.346   6.283   2.922 -0.3235 -0.0558 -0.3432
 6583TIP3    H141240   6.370   6.190   2.926  0.7968  0.1206 -2.3016
 6583TIP3    H241241   6.289   6.290   2.845 -1.1551  0.7258  0.3390
 6584TIP3   OH241242   3.942   3.585   4.072  0.5501 -0.1771 -0.1272
 6584TIP3    H141243   3.850   3.607   4.059 -0.3064 -2.2762  2.0797
 6584TIP3    H241244   3.977   3.660   4.121 -0.4812 -0.2447  0.7352
 6585TIP3   OH241245   1.858   1.716   6.668 -0.3367 -0.0609  0.3308
 6585TIP3    H141246   1.891   1.633   6.634 -0.3064 -0.3552  1.0707
 6585TIP3    H241247   1.836   1.767   6.590  0.2820 -0.5062 -0.1392
 6586TIP3   OH241248   5.834   1.531   4.822  0.0141 -0.6725 -0.7492
 6586TIP3    H141249   5.785   1.552   4.902 -2.7265 -1.7930 -2.0639
 6586TIP3    H241250   5.854   1.438   4.830 -0.3888 -0.8175 -1.4386
 6587TIP3   OH241251   1.663   5.025   4.046  0.2386  0.3273  0.2084
 6587TIP3    H141252   1.637   5.116   4.037 -0.4305  0.0377 -0.9356
 6587TIP3    H241253   1.594   4.986   4.100  0.1978  0.3647  0.1835
 6588TIP3   OH241254   0.098   2.508  16.979 -0.1509  0.8638 -0.2040
 6588TIP3    H141255   0.132   2.437  16.924  1.6766  1.4032  0.2010
 6588TIP3    H241256   0.104   2.474  17.068  0.7800  1.5381 -0.0049
 6589TIP3   OH241257   0.207   0.379  13.156 -0.0371 -0.0374 -0.0637
 6589TIP3    H141258   0.232   0.469  13.135  3.6391 -0.7752  0.6547
 6589TIP3    H241259   0.169   0.345  13.075 -0.7060  1.8911 -0.5881
 6590TIP3   OH241260   1.781   5.322  12.223  0.0942 -0.1730  0.3117
 6590TIP3    H141261   1.700   5.336  12.273  0.7108  2.0508  0.7129
 6590TIP3    H241262   1.844   5.291  12.287  0.2986  0.6637  0.5197
 6591TIP3   OH241263   6.688   1.394  12.248 -0.5666 -0.2956 -0.5095
 6591TIP3    H141264   6.659   1.432  12.166  0.1380  4.3626  1.2669
 6591TIP3    H241265   6.607   1.381  12.298 -0.6015  1.5585 -0.0642
 6592TIP3   OH241266   2.917   1.633   1.747 -0.3971 -0.8008 -0.2312
 6592TIP3    H141267   2.919   1.704   1.810  0.3632 -1.1790  0.1760
 6592TIP3    H241268   2.894   1.675   1.664 -0.2243 -0.1283  0.0619
 6593TIP3   OH241269   1.530   4.611  12.678 -0.5419 -0.2006  0.0908
 6593TIP3    H141270   1.585   4.532  12.673  1.7670  1.3664  0.2983
 6593TIP3    H241271   1.538   4.640  12.769 -2.0951 -0.1838  0.2413
 6594TIP3   OH241272   3.266   6.390  13.563  0.0648  0.3743  0.1821
 6594TIP3    H141273   3.251   6.464  13.505 -0.9918  0.3373  0.3989
 6594TIP3    H241274   3.179   6.352  13.577  0.7195 -1.5454 -0.7800
 6595TIP3   OH241275   4.050   6.348  11.732  0.4867  0.0650  0.1048
 6595TIP3    H141276   4.025   6.267  11.776 -2.6086  0.8745 -0.0229
 6595TIP3    H241277   4.071   6.408  11.804 -0.9971  0.2874  0.3724
 6596TIP3   OH241278   0.970   4.363  13.029 -0.0822  0.3134  0.4366
 6596TIP3    H141279   0.876   4.384  13.033 -0.2731 -0.1937 -1.1282
 6596TIP3    H241280   1.011   4.428  13.086 -1.3138  1.0473  0.5064
 6597TIP3   OH241281   5.532   1.791  16.998 -0.1471 -0.2651 -0.2140
 6597TIP3    H141282   5.608   1.834  16.959 -0.0764 -0.3623 -0.1808
 6597TIP3    H241283   5.558   1.700  17.008  0.0373 -0.1311  0.5796
 6598TIP3   OH241284   0.718   5.530  15.403  0.7897 -0.2155  0.3615
 6598TIP3    H141285   0.712   5.435  15.395  0.0009 -0.2037  0.7246
 6598TIP3    H241286   0.799   5.553  15.358  0.1810 -0.9002 -1.1379
 6599TIP3   OH241287   4.650   2.741  13.509 -0.8390  0.4847 -0.2600
 6599TIP3    H141288   4.690   2.820  13.474 -0.4084  0.0144 -0.8527
 6599TIP3    H241289   4.637   2.685  13.432  0.0412 -0.5255  0.3055
 6600TIP3   OH241290   4.751   2.937   4.718 -0.3904  0.2704  0.5050
 6600TIP3    H141291   4.832   2.977   4.750  0.2028 -1.8086  1.6838
 6600TIP3    H241292   4.681   2.984   4.764  0.1294  1.7292 -0.1391
 6601TIP3   OH241293   3.886   5.974  11.399 -0.5304 -0.1566 -0.3671
 6601TIP3    H141294   3.966   6.002  11.354  0.7837 -1.3898  1.0752
 6601TIP3    H241295   3.910   5.975  11.492 -2.2433 -0.4139  0.0943
 6602TIP3   OH241296   5.678   6.190  13.298 -0.0643 -0.2049 -0.4524
 6602TIP3    H141297   5.767   6.210  13.268  0.3979  0.2398  1.1708
 6602TIP3    H241298   5.621   6.219  13.226  1.0154  0.7855 -0.9191
 6603TIP3   OH241299   6.552   2.819   4.472 -0.1047  0.2023 -0.8290
 6603TIP3    H141300   6.478   2.839   4.414  0.1352 -1.6287 -1.8237
 6603TIP3    H241301   6.623   2.876   4.441 -0.5261  0.5466 -1.1649
 6604TIP3   OH241302   0.487   6.013  12.494  0.1628  0.1842  0.1326
 6604TIP3    H141303   0.483   6.000  12.399 -0.7373 -1.5377  0.3761
 6604TIP3    H241304   0.396   6.027  12.520 -0.1009 -2.8538  1.1443
 6605TIP3   OH241305   4.739   3.744  11.647 -0.3504  0.1749 -0.6161
 6605TIP3    H141306   4.698   3.770  11.730  1.6058  1.4270 -0.0180
 6605TIP3    H241307   4.665   3.720  11.591 -1.6311 -2.0030  1.9030
 6606TIP3   OH241308   2.394   3.746  14.720  0.4138  0.8278  0.3257
 6606TIP3    H141309   2.301   3.768  14.726  0.1824  0.3628 -1.4061
 6606TIP3    H241310   2.409   3.688  14.795 -1.3042 -1.1750 -0.8426
 6607TIP3   OH241311   5.335   1.637   3.777 -0.0244 -0.0713 -0.1473
 6607TIP3    H141312   5.259   1.621   3.721  0.1097  0.4871 -0.4997
 6607TIP3    H241313   5.391   1.694   3.724 -0.0238  0.6918  0.6676
 6608TIP3   OH241314   1.144   2.171  12.489 -0.5845 -0.2499 -0.1342
 6608TIP3    H141315   1.119   2.237  12.554  1.2331 -1.0200  1.3902
 6608TIP3    H241316   1.073   2.174  12.424 -0.3918  3.3761 -0.2771
 6609TIP3   OH241317   5.941   4.109  11.432 -1.1449  0.8018  0.5325
 6609TIP3    H141318   6.029   4.110  11.394 -1.1483 -0.7783  0.4424
 6609TIP3    H241319   5.952   4.068  11.518 -1.8497  0.2114  0.3527
 6610TIP3   OH241320   4.154   4.429   1.847  0.5763  0.1127 -0.3248
 6610TIP3    H141321   4.162   4.516   1.807  1.3640  1.5442  2.7988
 6610TIP3    H241322   4.062   4.424   1.874  0.8424  0.5977  0.7320
 6611TIP3   OH241323   1.494   5.892   6.348  0.3823  0.8533 -0.3151
 6611TIP3    H141324   1.508   5.858   6.436 -0.6508  1.3632  0.0578
 6611TIP3    H241325   1.399   5.888   6.336  0.7370 -2.5018 -2.7418
 6612TIP3   OH241326   1.094   6.540   5.206 -0.8608 -0.1966 -0.2279
 6612TIP3    H141327   1.141   6.477   5.151 -1.1455 -2.1949  1.7706
 6612TIP3    H241328   1.087   6.497   5.291 -1.7942  2.2137  0.9510
 6613TIP3   OH241329   2.500   1.048   2.429 -0.1973  0.3966  0.4757
 6613TIP3    H141330   2.542   1.106   2.492  0.0589 -0.8372  1.4557
 6613TIP3    H241331   2.529   0.960   2.454  0.3739 -0.0609 -1.7108
 6614TIP3   OH241332   1.703   5.118  16.288  0.0027 -0.2976 -0.4621
 6614TIP3    H141333   1.773   5.177  16.261 -1.2666  1.3457 -0.2616
 6614TIP3    H241334   1.712   5.041  16.231  0.9704  0.5852 -1.5122
 6615TIP3   OH241335   0.573   3.677  13.363  0.1954 -0.2027 -0.3740
 6615TIP3    H141336   0.490   3.632  13.379  0.3406 -0.0323  0.9616
 6615TIP3    H241337   0.587   3.669  13.269 -1.4855  0.0410 -0.6622
 6616TIP3   OH241338   2.727   4.436   3.830 -0.1274 -0.1907  0.2295
 6616TIP3    H141339   2.708   4.363   3.890 -2.9453  0.5569  0.3322
 6616TIP3    H241340   2.706   4.402   3.743 -0.5646  0.1886  0.1828
 6617TIP3   OH241341   5.729   5.306  16.727  0.0526 -0.4167  0.3898
 6617TIP3    H141342   5.645   5.279  16.689 -1.5715  0.6216  3.1153
 6617TIP3    H241343   5.730   5.401  16.719  0.9227 -0.4157  0.4631
 6618TIP3   OH241344   1.661   3.468  13.442 -0.5715  0.0215  0.0215
 6618TIP3    H141345   1.588   3.530  13.435  0.7231  1.6975  0.9599
 6618TIP3    H241346   1.657   3.437  13.532 -0.4439 -0.2897 -0.0808
 6619TIP3   OH241347   1.027   4.923   0.950 -0.4819  0.4879 -0.2839
 6619TIP3    H141348   0.996   4.933   1.040 -4.1020 -0.1914 -1.3713
 6619TIP3    H241349   1.049   5.012   0.922 -1.6178  1.0213  0.5009
 6620TIP3   OH241350   5.696   0.869  15.107 -0.1109  0.1273  0.6147
 6620TIP3    H141351   5.730   0.782  15.125 -1.6488 -1.1298 -2.2876
 6620TIP3    H241352   5.641   0.890  15.182  0.2788 -1.4022  1.3431
 6621TIP3   OH241353   4.066   3.002  10.682 -0.6290  0.3303  0.3747
 6621TIP3    H141354   4.100   3.076  10.631 -0.6456  1.7833  2.3851
 6621TIP3    H241355   4.133   2.934  10.673  0.7128  1.5682  0.6637
 6622TIP3   OH241356   0.254   5.021  16.761  0.3506  0.3951  0.0913
 6622TIP3    H141357   0.223   4.965  16.832  0.3170  0.9071  0.4820
 6622TIP3    H241358   0.333   5.063  16.796  1.7764 -1.2623 -1.0609
 6623TIP3   OH241359   1.657   1.679  12.677 -0.3162 -0.1277  0.2248
 6623TIP3    H141360   1.711   1.746  12.634  1.6218 -2.4616 -1.0946
 6623TIP3    H241361   1.584   1.728  12.715  1.0135  2.7238 -0.7464
 6624TIP3   OH241362   2.609   2.198  16.108  0.7530 -0.3127 -0.3512
 6624TIP3    H141363   2.671   2.126  16.116 -0.2427 -1.2141 -0.6773
 6624TIP3    H241364   2.529   2.167  16.149  0.3633  0.6692 -0.3390
 6625TIP3   OH241365   1.536   0.243  14.172  0.8352  0.8325 -0.4622
 6625TIP3    H141366   1.541   0.338  14.160 -0.5784  0.9619 -0.1901
 6625TIP3    H241367   1.468   0.215  14.110 -1.4268  0.5222  2.0461
 6626TIP3   OH241368   1.849   1.615   1.507  0.1476 -0.1934  0.7964
 6626TIP3    H141369   1.838   1.610   1.412  0.8143 -0.2027  0.7192
 6626TIP3    H241370   1.833   1.526   1.538  1.6494 -0.5723  0.5108
 6627TIP3   OH241371   5.572   1.482  16.448 -0.2752 -0.0529  1.0122
 6627TIP3    H141372   5.581   1.484  16.544 -0.0107  0.6265  0.9755
 6627TIP3    H241373   5.586   1.390  16.425  0.0863 -0.1437  1.5841
 6628TIP3   OH241374   5.291   3.102  13.231  0.3442  0.4997 -0.5359
 6628TIP3    H141375   5.320   3.031  13.174 -1.5766 -1.3435  0.7195
 6628TIP3    H241376   5.327   3.079  13.317 -0.8312  0.6917  0.0182
 6629TIP3   OH241377   2.309   6.217   0.619  0.1980 -0.0115 -0.5178
 6629TIP3    H141378   2.231   6.272   0.615 -0.5908 -1.1244 -0.7522
 6629TIP3    H241379   2.382   6.279   0.624 -0.5938  1.0663 -1.8984
 6630TIP3   OH241380   0.613   6.202   6.619 -0.1449 -0.0515 -0.0045
 6630TIP3    H141381   0.647   6.283   6.658  0.9782 -1.2264  1.5352
 6630TIP3    H241382   0.676   6.179   6.552  1.3844 -1.4237  1.8392
 6631TIP3   OH241383   4.309   2.311  15.124  0.1788  0.3480  0.2888
 6631TIP3    H141384   4.310   2.350  15.036  0.9710 -0.7897 -0.2102
 6631TIP3    H241385   4.217   2.291  15.140 -0.5137  4.0017  1.2733
 6632TIP3   OH241386   3.709   5.678   1.901 -0.1488 -0.0439 -0.3757
 6632TIP3    H141387   3.710   5.747   1.835 -0.9654 -1.2190 -1.6664
 6632TIP3    H241388   3.800   5.667   1.926  0.3483 -0.3799 -2.2174
 6633TIP3   OH241389   1.186   2.777  12.487 -0.5558 -0.2632  0.3540
 6633TIP3    H141390   1.148   2.825  12.560  0.6580  0.2349  0.6739
 6633TIP3    H241391   1.224   2.699  12.527  0.1014  0.0057  0.2589
 6634TIP3   OH241392   3.573   1.738   4.240  1.0061 -0.7071  0.1352
 6634TIP3    H141393   3.605   1.676   4.305  0.8497 -1.1411 -0.1980
 6634TIP3    H241394   3.600   1.700   4.156  1.4218 -0.0267 -0.0363
 6635TIP3   OH241395   0.730   0.182  17.010  0.0845 -0.3685  0.3022
 6635TIP3    H141396   0.817   0.213  17.035 -0.2409 -0.5686  1.6876
 6635TIP3    H241397   0.700   0.130  17.084 -0.6821 -1.4010 -0.7129
 6636TIP3   OH241398   6.653   4.190   6.534 -0.4857  0.5745  0.0353
 6636TIP3    H141399   6.577   4.216   6.586 -1.3730  0.3603 -1.1293
 6636TIP3    H241400   6.703   4.271   6.523 -0.2528  0.6080  1.2598
 6637TIP3   OH241401   0.395   2.896  11.827 -0.5438  0.4023  0.0208
 6637TIP3    H141402   0.356   2.811  11.850  0.8045 -0.6011 -1.3113
 6637TIP3    H241403   0.345   2.925  11.751 -0.6988  0.5968  0.1932
 6638TIP3   OH241404   3.584   5.315   1.479  0.1253  0.0502  0.3251
 6638TIP3    H141405   3.496   5.349   1.460  1.5389  2.5560 -2.0864
 6638TIP3    H241406   3.603   5.255   1.408  1.5112  1.8326 -0.8657
 6639TIP3   OH241407   3.871   1.688  10.317 -0.2654 -0.2017 -0.0516
 6639TIP3    H141408   3.779   1.701  10.341 -1.2687 -4.9079 -0.8193
 6639TIP3    H241409   3.910   1.645  10.393  0.7222 -0.2218 -0.5599
 6640TIP3   OH241410   5.600   6.269  15.543 -0.5143  0.2380 -0.0255
 6640TIP3    H141411   5.524   6.215  15.565 -2.2373  1.6538 -2.2186
 6640TIP3    H241412   5.642   6.222  15.471  0.6458 -0.4632  1.0836
 6641TIP3   OH241413   6.789   2.352   3.087  0.0245 -1.0910 -0.0787
 6641TIP3    H141414   6.865   2.407   3.069  0.5816 -1.3852  1.2989
 6641TIP3    H241415   6.715   2.401   3.050  0.8461 -0.7131 -1.2555
 6642TIP3   OH241416   6.541   3.756  16.472 -0.2791  0.1630  0.1499
 6642TIP3    H141417   6.459   3.793  16.504 -0.4495 -0.7903  0.8335
 6642TIP3    H241418   6.594   3.744  16.552  0.5996  0.9399 -0.3012
 6643TIP3   OH241419   5.126   2.589  13.694  0.3068  0.0106  0.2132
 6643TIP3    H141420   5.063   2.586  13.622  1.3333  0.0222 -0.7082
 6643TIP3    H241421   5.202   2.633  13.657  0.7676  0.2158  1.3823
 6644TIP3   OH241422   0.057   6.378   3.610  0.2940  0.7968  0.4900
 6644TIP3    H141423   0.015   6.316   3.550  0.1465  2.0777 -0.7594
 6644TIP3    H241424   0.150   6.354   3.608  0.1525  0.2382  0.4799
 6645TIP3   OH241425   5.160   4.080  15.691  0.0587  0.2239  0.1473
 6645TIP3    H141426   5.067   4.072  15.713 -0.5324  2.1214 -1.4868
 6645TIP3    H241427   5.181   4.000  15.644 -0.0984 -1.3322  2.6350
 6646TIP3   OH241428   0.451   6.528   4.012  0.2844 -0.0200 -1.2217
 6646TIP3    H141429   0.383   6.461   4.012  0.6314 -0.3738 -1.1337
 6646TIP3    H241430   0.532   6.481   3.993  0.7914  0.0920  0.5668
 6647TIP3   OH241431   3.464   3.819  15.464  0.1485 -0.2844  0.0442
 6647TIP3    H141432   3.543   3.772  15.438  0.6459  0.0820  0.8636
 6647TIP3    H241433   3.394   3.754  15.457  0.5449 -0.6503 -0.5428
 6648TIP3   OH241434   3.529   5.726  13.818  0.7367  0.1463 -0.1493
 6648TIP3    H141435   3.514   5.757  13.728  0.5941  1.5999  0.3584
 6648TIP3    H241436   3.517   5.804  13.872 -3.9757 -1.6696  1.6340
 6649TIP3   OH241437   2.037   2.692  14.528 -0.0664  0.4903  0.5131
 6649TIP3    H141438   1.991   2.705  14.445 -1.2516 -1.4706  0.8473
 6649TIP3    H241439   2.016   2.770  14.580 -0.7117  0.9088 -0.3634
 6650TIP3   OH241440   0.491   5.180   5.055 -0.6624  0.3300  0.1966
 6650TIP3    H141441   0.420   5.160   4.995 -1.0180  0.3780  0.6041
 6650TIP3    H241442   0.455   5.164   5.142  0.3389 -1.3009  0.3396
 6651TIP3   OH241443   5.129   1.227  12.414 -0.2021  0.4998 -0.1074
 6651TIP3    H141444   5.205   1.170  12.410 -1.9798 -1.9644 -0.1325
 6651TIP3    H241445   5.142   1.279  12.493  1.5423  0.2241 -0.1918
 6652TIP3   OH241446   5.769   0.812  13.715 -0.0714 -0.1218  0.1950
 6652TIP3    H141447   5.798   0.787  13.803  0.6736  0.2191  0.0453
 6652TIP3    H241448   5.784   0.907  13.711  3.7053 -0.7198 -1.7319
 6653TIP3   OH241449   1.820   2.471  15.321  0.1792  0.5307 -0.0988
 6653TIP3    H141450   1.779   2.472  15.407 -0.8217 -0.5924 -0.5576
 6653TIP3    H241451   1.789   2.390  15.280  3.2235 -0.5794 -0.2873
 6654TIP3   OH241452   2.068   1.521  16.813  0.1911 -0.4195 -0.7418
 6654TIP3    H141453   2.099   1.435  16.840 -0.3113 -0.7302 -1.1570
 6654TIP3    H241454   2.108   1.536  16.728  1.4686  0.4002 -0.0232
 6655TIP3   OH241455   2.435   3.520   1.762 -0.3426 -0.4784  0.1116
 6655TIP3    H141456   2.506   3.545   1.821  0.3793 -0.4811 -0.7374
 6655TIP3    H241457   2.374   3.471   1.817  0.1735 -0.2274  0.9171
 6656TIP3   OH241458   4.784   4.176  15.933 -0.2893  0.5725  0.2295
 6656TIP3    H141459   4.826   4.096  15.900 -1.2347 -0.5124  1.5949
 6656TIP3    H241460   4.809   4.179  16.026 -0.2691  1.8764  0.1922
 6657TIP3   OH241461   2.767   1.665  13.362  0.0152  0.7027  0.0154
 6657TIP3    H141462   2.732   1.684  13.449 -1.2622  0.0276 -0.3396
 6657TIP3    H241463   2.714   1.592  13.330  0.8405  0.5764 -1.1067
 6658TIP3   OH241464   0.597   4.726   2.755  0.5367 -0.9910 -0.0177
 6658TIP3    H141465   0.685   4.750   2.785  0.1355  0.6830 -0.1322
 6658TIP3    H241466   0.538   4.769   2.817 -0.2222 -2.2381  0.1555
 6659TIP3   OH241467   5.284   5.045  16.147 -0.0656 -0.1708 -0.3505
 6659TIP3    H141468   5.326   4.974  16.099 -0.0736  0.5921 -1.5154
 6659TIP3    H241469   5.190   5.031  16.134 -0.0415  0.6923 -1.5541
 6660TIP3   OH241470   5.452   6.474  13.655  0.2754 -0.4337 -0.4654
 6660TIP3    H141471   5.543   6.459  13.628 -0.1288 -2.0299 -0.9906
 6660TIP3    H241472   5.455   6.470  13.750  0.9971  1.0503 -0.4011
 6661TIP3   OH241473   5.083   5.650  13.119  0.2057 -0.1559 -0.0236
 6661TIP3    H141474   5.082   5.737  13.080  1.2155 -0.5687 -1.0245
 6661TIP3    H241475   5.119   5.663  13.207  0.4413  0.4222 -0.2036
 6662TIP3   OH241476   5.285   3.086   5.075 -0.3307 -0.3851 -0.1534
 6662TIP3    H141477   5.345   3.081   5.149  1.2533  1.4326 -1.2635
 6662TIP3    H241478   5.257   2.995   5.061  1.1048 -1.0681  1.2293
 6663TIP3   OH241479   2.136   5.361  11.484 -0.0153 -0.3410 -0.1895
 6663TIP3    H141480   2.183   5.328  11.406 -0.3033 -0.1950 -0.4258
 6663TIP3    H241481   2.045   5.335  11.469 -0.3538  1.1092 -0.6766
 6664TIP3   OH241482   4.378   5.340  14.029  0.5285  0.1234 -0.2829
 6664TIP3    H141483   4.440   5.313  14.096  1.3891  0.6305 -0.8643
 6664TIP3    H241484   4.381   5.269  13.964 -0.1782 -0.2863  0.1251
 6665TIP3   OH241485   5.772   0.440  15.426 -0.6564 -0.8247 -0.2328
 6665TIP3    H141486   5.750   0.486  15.507  0.8570 -2.5662  1.1890
 6665TIP3    H241487   5.713   0.365  15.425 -0.4783 -0.9571 -0.6292
 6666TIP3   OH241488   3.615   3.763   3.407  0.0604  0.2942  0.1397
 6666TIP3    H141489   3.709   3.762   3.388  0.1413 -0.2191  0.5536
 6666TIP3    H241490   3.591   3.856   3.405  1.1492  0.6591  2.8136
 6667TIP3   OH241491   2.446   0.646  13.794 -0.1091 -0.7489  0.5006
 6667TIP3    H141492   2.536   0.678  13.804 -0.6030  0.7338  0.3529
 6667TIP3    H241493   2.401   0.678  13.873 -0.9368  0.0799 -0.2912
 6668TIP3   OH241494   6.617   6.492   1.380 -0.1565  0.5877 -0.4649
 6668TIP3    H141495   6.564   6.493   1.460  0.2485  0.5653 -0.1988
 6668TIP3    H241496   6.658   6.405   1.379 -0.2673  0.5359 -0.7706
 6669TIP3   OH241497   1.176   2.725   6.309  0.0046 -0.3515 -0.7801
 6669TIP3    H141498   1.179   2.654   6.373  3.8895 -1.0034 -1.5728
 6669TIP3    H241499   1.211   2.687   6.228  1.1979  2.1544 -1.5006
 6670TIP3   OH241500   1.727   0.340   4.567 -0.2073  0.8488 -0.3098
 6670TIP3    H141501   1.745   0.392   4.488  0.6948 -1.2110 -1.4878
 6670TIP3    H241502   1.808   0.291   4.582 -0.7702  0.3851  1.2709
 6671TIP3   OH241503   1.553   4.761  16.541 -0.3280  0.1399  0.1046
 6671TIP3    H141504   1.581   4.722  16.458  2.0740 -1.0195  1.4027
 6671TIP3    H241505   1.544   4.854  16.522  1.8646  0.1477 -1.0740
 6672TIP3   OH241506   0.404   5.354  14.075  0.4272  0.8419 -0.3220
 6672TIP3    H141507   0.406   5.296  13.998 -0.2827 -1.0949  1.0794
 6672TIP3    H241508   0.425   5.440  14.040  2.1092 -0.3368 -2.3943
 6673TIP3   OH241509   0.470   2.730  16.907  0.2636  0.2019 -0.1480
 6673TIP3    H141510   0.469   2.779  16.989 -1.4825  0.5328 -0.3479
 6673TIP3    H241511   0.381   2.737  16.873  1.4470  1.7706 -3.1188
 6674TIP3   OH241512   5.567   0.250  12.134 -0.1022  0.0370 -0.0018
 6674TIP3    H141513   5.500   0.293  12.082 -0.0556 -1.0176 -0.9710
 6674TIP3    H241514   5.527   0.167  12.161  0.4005 -0.0881  0.3775
 6675TIP3   OH241515   6.549   4.642   2.151  0.2226 -0.0230 -0.3402
 6675TIP3    H141516   6.643   4.659   2.148 -0.1015  1.8061 -0.7507
 6675TIP3    H241517   6.540   4.553   2.119  1.9379 -0.7505  1.1077
 6676TIP3   OH241518   2.440   3.565   4.783  0.3502  0.1547 -0.0341
 6676TIP3    H141519   2.382   3.500   4.821  0.1330  0.7895  0.7355
 6676TIP3    H241520   2.474   3.524   4.703 -0.5796 -0.4963 -0.0975
 6677TIP3   OH241521   5.447   0.497   5.390 -0.4776 -0.6154  0.5340
 6677TIP3    H141522   5.404   0.417   5.360  1.8108 -1.2097 -1.2134
 6677TIP3    H241523   5.478   0.476   5.478 -0.6662 -1.3468  0.4240
 6678TIP3   OH241524   0.490   6.815  15.931  0.3350 -0.2466  0.3801
 6678TIP3    H141525   0.438   6.862  15.865  2.4194 -0.0811 -1.2169
 6678TIP3    H241526   0.493   6.725  15.900  0.1621 -0.4703  1.0061
 6679TIP3   OH241527   3.070   0.042   2.617  0.3755 -0.4037  0.2227
 6679TIP3    H141528   3.143   0.060   2.677  0.9540 -3.0049  0.3401
 6679TIP3    H241529   3.090   0.095   2.540 -0.8237  3.6588  2.5521
 6680TIP3   OH241530   6.776   2.021  13.345  0.1163  0.2371  0.7889
 6680TIP3    H141531   6.852   1.963  13.336 -1.6194 -2.3402  2.2017
 6680TIP3    H241532   6.772   2.042  13.438 -0.1677  1.4222  0.5233
 6681TIP3   OH241533   4.958   6.748  16.766  0.2353 -0.0964 -0.4025
 6681TIP3    H141534   4.983   6.840  16.777  2.2084 -0.5443 -0.9931
 6681TIP3    H241535   4.990   6.705  16.846  0.4136 -0.4851 -0.6842
 6682TIP3   OH241536   0.944   4.019  13.816 -0.0710 -0.3324 -0.1567
 6682TIP3    H141537   0.919   3.963  13.890  0.3999 -0.6035 -0.1969
 6682TIP3    H241538   1.033   4.046  13.836 -0.0783 -0.0989 -0.4430
 6683TIP3   OH241539   1.083   3.232  13.814 -0.3815 -0.5637  0.4285
 6683TIP3    H141540   0.988   3.224  13.827 -0.1342 -1.9173  1.6016
 6683TIP3    H241541   1.108   3.305  13.871 -0.9717  1.0071 -1.2918
 6684TIP3   OH241542   0.768   6.788   3.297 -0.6460 -0.0281  0.0631
 6684TIP3    H141543   0.724   6.756   3.375 -0.6691 -0.5839 -0.1718
 6684TIP3    H241544   0.725   6.742   3.225 -1.7095  1.6603 -0.4150
 6685TIP3   OH241545   5.581   6.307   1.580  0.8343 -0.3347  0.4685
 6685TIP3    H141546   5.657   6.284   1.634  1.3676  0.1602 -0.0546
 6685TIP3    H241547   5.568   6.400   1.596  0.5568 -0.3393  0.2751
 6686TIP3   OH241548   1.637   1.175   5.107 -0.1544 -0.4614  0.3947
 6686TIP3    H141549   1.591   1.254   5.081  0.6549 -0.0127  0.2888
 6686TIP3    H241550   1.620   1.113   5.036 -0.2170 -0.1524  0.1407
 6687TIP3   OH241551   3.689   1.927   1.828  0.5934 -0.7613 -0.0225
 6687TIP3    H141552   3.729   1.892   1.908  0.0238 -2.4783 -0.4716
 6687TIP3    H241553   3.680   1.851   1.770 -1.4712 -0.0397 -0.6921
 6688TIP3   OH241554   0.746   2.677  16.893 -0.1817  0.5077 -0.1455
 6688TIP3    H141555   0.653   2.694  16.877 -0.1406 -0.2216 -1.2255
 6688TIP3    H241556   0.778   2.641  16.810  0.4572 -1.7325  1.0329
 6689TIP3   OH241557   1.091   5.598  10.433 -0.1496 -0.3077 -0.2214
 6689TIP3    H141558   1.153   5.525  10.441 -0.3473 -0.4807 -0.2704
 6689TIP3    H241559   1.006   5.559  10.454 -0.2008 -0.0012  0.1569
 6690TIP3   OH241560   6.604   2.918   5.276 -0.8125 -0.5550  0.2544
 6690TIP3    H141561   6.698   2.906   5.292 -1.0912 -4.3936 -0.3456
 6690TIP3    H241562   6.562   2.881   5.354 -1.8311 -0.5628 -0.2944
 6691TIP3   OH241563   3.640   6.074  16.639  0.2019  0.1126  0.8338
 6691TIP3    H141564   3.679   5.988  16.657  0.3651  0.3802  1.7874
 6691TIP3    H241565   3.560   6.055  16.590  1.5693 -0.4507 -1.2432
 6692TIP3   OH241566   5.771   5.763   1.146 -0.2899 -0.1104  0.0807
 6692TIP3    H141567   5.797   5.814   1.068 -2.8031 -1.2595 -1.5737
 6692TIP3    H241568   5.814   5.679   1.134 -1.5559 -0.6698 -0.6736
 6693TIP3   OH241569   3.196   3.129  13.519 -0.0669 -0.5878  0.3702
 6693TIP3    H141570   3.213   3.202  13.578 -0.6070 -0.2141  0.0679
 6693TIP3    H241571   3.171   3.171  13.436  0.9567 -1.0976 -0.2094
 6694TIP3   OH241572   3.701   4.873  12.939  0.5163  0.1294 -0.0870
 6694TIP3    H141573   3.704   4.945  13.001  0.8804 -0.2310  0.3195
 6694TIP3    H241574   3.644   4.808  12.980  0.4317  0.0606 -0.3151
 6695TIP3   OH241575   3.113   0.981  15.253  0.0073 -0.6717  0.3208
 6695TIP3    H141576   3.136   0.899  15.211  0.6364 -1.0776  1.4268
 6695TIP3    H241577   3.182   0.995  15.318 -1.0593 -0.2055  1.3887
 6696TIP3   OH241578   0.470   4.661  11.750  0.0906 -0.5304  0.1155
 6696TIP3    H141579   0.481   4.569  11.724  1.3743 -0.5539  0.7115
 6696TIP3    H241580   0.389   4.661  11.802 -1.4462 -0.8169 -2.1606
 6697TIP3   OH241581   1.137   4.014  15.866 -0.4485  0.3963  0.4707
 6697TIP3    H141582   1.051   4.043  15.835  0.4630  2.0945 -0.5468
 6697TIP3    H241583   1.180   3.979  15.788  0.5776  1.4976  0.5383
 6698TIP3   OH241584   3.048   2.138  13.952  0.3550  0.4559 -0.2676
 6698TIP3    H141585   3.024   2.092  13.872 -0.6886  0.3582  0.0916
 6698TIP3    H241586   3.138   2.110  13.970  0.9041  1.1706 -1.8841
 6699TIP3   OH241587   3.951   4.425   2.538 -0.3361 -0.7323  0.2374
 6699TIP3    H141588   4.016   4.467   2.594 -0.1396  0.4631 -0.8516
 6699TIP3    H241589   3.969   4.332   2.546 -0.3342 -0.5928  2.1614
 6700TIP3   OH241590   1.696   0.053  14.641 -0.5548 -0.7924  0.1001
 6700TIP3    H141591   1.681   0.095  14.557 -1.2471  1.2140  1.1947
 6700TIP3    H241592   1.712   0.125  14.702 -0.3671 -2.1902  1.7577
 6701TIP3   OH241593   3.146   3.916  14.930 -0.0447  0.3861 -0.2235
 6701TIP3    H141594   3.083   3.845  14.914 -2.2913  2.0820  0.7419
 6701TIP3    H241595   3.149   3.924  15.025 -0.8086  2.4140 -0.3581
 6702TIP3   OH241596   5.138   5.071   5.598 -0.3497  0.2550 -0.0853
 6702TIP3    H141597   5.214   5.034   5.553 -2.0019 -3.5909  0.0770
 6702TIP3    H241598   5.093   5.123   5.532  0.4291 -0.5181 -1.2409
 6703TIP3   OH241599   6.527   0.219  14.120  0.2225  0.4238  0.8279
 6703TIP3    H141600   6.487   0.211  14.206 -0.1453 -1.1122  0.5340
 6703TIP3    H241601   6.621   0.203  14.135  0.1412  0.0361  0.9189
 6704TIP3   OH241602   0.471   1.812   4.673  0.1008  0.3357  0.5377
 6704TIP3    H141603   0.546   1.797   4.730 -0.5007 -0.4220  1.1484
 6704TIP3    H241604   0.427   1.889   4.711  0.1565  0.3290  0.6169
 6705TIP3   OH241605   6.338   5.217  16.491 -0.1759 -0.0382 -0.2139
 6705TIP3    H141606   6.252   5.256  16.476 -0.4859 -0.6767 -0.1445
 6705TIP3    H241607   6.395   5.257  16.426 -1.0357 -1.2736 -1.7553
 6706TIP3   OH241608   0.810   3.516  14.517  0.1637 -0.2718  0.0940
 6706TIP3    H141609   0.876   3.454  14.549 -0.1719 -0.8908 -0.4088
 6706TIP3    H241610   0.841   3.601  14.548  2.3914 -0.2419 -2.0516
 6707TIP3   OH241611   1.782   2.967  16.462  0.4336  0.3829  0.1167
 6707TIP3    H141612   1.720   2.983  16.534  0.8385  0.7645  0.3833
 6707TIP3    H241613   1.792   2.871  16.461 -0.0814  0.3256  0.1382
 6708TIP3   OH241614   6.008   3.132  13.492 -0.6733 -0.1901 -0.0586
 6708TIP3    H141615   5.964   3.067  13.437 -1.5140  0.5272 -0.2349
 6708TIP3    H241616   6.075   3.170  13.435 -1.3843  0.3812 -0.5202
 6709TIP3   OH241617   2.882   6.415   1.527 -0.3073  0.1978  0.5737
 6709TIP3    H141618   2.840   6.463   1.599 -0.0589  0.2891  0.6572
 6709TIP3    H241619   2.856   6.324   1.541 -0.3504  0.2311  0.7144
 6710TIP3   OH241620   5.343   6.009  14.976 -0.0136  0.2488 -0.0038
 6710TIP3    H141621   5.275   5.944  14.959  0.3764 -0.3241  0.6089
 6710TIP3    H241622   5.425   5.965  14.951  0.0475  1.2820 -1.6871
 6711TIP3   OH241623   2.388   2.561   0.258  0.1456  0.8135  0.4751
 6711TIP3    H141624   2.447   2.509   0.313  0.1666 -0.5618 -0.8170
 6711TIP3    H241625   2.300   2.534   0.285  0.1577  0.0447 -0.2598
 6712TIP3   OH241626   3.925   4.795   1.734 -0.2134 -0.2114 -0.4354
 6712TIP3    H141627   3.920   4.839   1.818 -2.6538  1.6974 -1.5310
 6712TIP3    H241628   3.913   4.702   1.755 -1.2295  0.2841  1.2767
 6713TIP3   OH241629   5.412   0.401   0.267 -0.4476  0.0153 -0.5763
 6713TIP3    H141630   5.494   0.431   0.305 -1.4391  0.3372  1.3452
 6713TIP3    H241631   5.358   0.479   0.262 -1.2992 -0.5456 -0.1171
 6714TIP3   OH241632   2.550   1.814  13.147 -0.3932  0.2703  0.3236
 6714TIP3    H141633   2.547   1.841  13.239  1.5676  2.0192 -0.0619
 6714TIP3    H241634   2.551   1.719  13.149 -2.1182  0.2678  2.0230
 6715TIP3   OH241635   1.698   5.479   0.114  0.3878 -0.6388 -0.1984
 6715TIP3    H141636   1.638   5.405   0.120 -0.0224 -0.3118 -0.2171
 6715TIP3    H241637   1.743   5.480   0.199  0.9664 -1.3889 -0.5009
 6716TIP3   OH241638   3.625   2.643   2.131  0.2689 -0.1597  0.1616
 6716TIP3    H141639   3.697   2.665   2.189 -0.1639  1.0159  0.2722
 6716TIP3    H241640   3.551   2.695   2.163 -0.7806 -1.7358  0.3770
 6717TIP3   OH241641   2.862   1.488  15.691  0.3979  0.3992  0.7584
 6717TIP3    H141642   2.803   1.519  15.621 -1.3479 -0.5837  1.7460
 6717TIP3    H241643   2.945   1.531  15.673 -1.2510  3.7720  0.6714
 6718TIP3   OH241644   5.248   5.749   5.442 -0.1560  0.5326 -0.0407
 6718TIP3    H141645   5.314   5.816   5.464 -0.9139  0.6162  2.1169
 6718TIP3    H241646   5.287   5.667   5.472  0.0545  0.2224 -1.1479
 6719TIP3   OH241647   1.111   6.818  16.093 -0.0946  0.1155  0.3728
 6719TIP3    H141648   1.050   6.887  16.068  2.1795  0.9320 -3.4387
 6719TIP3    H241649   1.177   6.862  16.147  0.4133  0.5967 -0.6223
 6720TIP3   OH241650   4.514   6.008   4.271 -0.3962  0.4445 -0.0448
 6720TIP3    H141651   4.541   6.100   4.271 -1.5524  0.7876  0.2624
 6720TIP3    H241652   4.541   5.975   4.357 -0.3309  0.5911 -0.0079
 6721TIP3   OH241653   1.890   2.736   1.732 -0.2746 -0.4260 -0.2395
 6721TIP3    H141654   1.879   2.641   1.732 -0.8985 -0.3560 -0.1604
 6721TIP3    H241655   1.961   2.752   1.670 -1.3695 -0.8148 -1.6268
 6722TIP3   OH241656   6.173   5.129   0.583 -0.0985 -0.0934  0.3262
 6722TIP3    H141657   6.115   5.190   0.630 -0.0545  1.8481 -2.0799
 6722TIP3    H241658   6.261   5.158   0.605 -0.0757  1.2325 -1.4083
 6723TIP3   OH241659   3.906   3.600   6.462  0.5262  0.1154  0.0796
 6723TIP3    H141660   3.944   3.535   6.402  1.5233  0.4728  0.3178
 6723TIP3    H241661   3.910   3.682   6.412 -0.8684 -0.0231 -0.2785
 6724TIP3   OH241662   5.766   4.769  15.405 -0.0733  0.2431 -0.1664
 6724TIP3    H141663   5.782   4.674  15.403  0.4838  0.3465 -1.0452
 6724TIP3    H241664   5.699   4.780  15.472  0.5809 -0.6632  0.6487
 6725TIP3   OH241665   0.135   1.608   0.887 -0.0543  0.0197 -0.0621
 6725TIP3    H141666   0.075   1.575   0.820 -2.1634  1.7691  0.9240
 6725TIP3    H241667   0.083   1.669   0.939  1.6686 -0.9138  2.8876
 6726TIP3   OH241668   4.319   4.387  11.838  0.7985  0.1587 -0.2923
 6726TIP3    H141669   4.258   4.349  11.775 -0.2868 -1.5567  1.7319
 6726TIP3    H241670   4.396   4.330  11.833  0.2540 -0.6903  0.7401
 6727TIP3   OH241671   0.920   2.481   4.200  0.1983  0.4761 -0.1571
 6727TIP3    H141672   0.857   2.409   4.198  1.0905 -0.3005 -0.6661
 6727TIP3    H241673   0.876   2.553   4.154  0.1518 -0.4593 -1.6090
 6728TIP3   OH241674   0.617   3.601  15.890 -0.7383 -0.1063  0.1303
 6728TIP3    H141675   0.708   3.631  15.894 -1.7936  3.2586  0.1113
 6728TIP3    H241676   0.613   3.548  15.810  0.9092  0.7293 -0.5277
 6729TIP3   OH241677   2.925   5.509  12.089 -0.3530 -0.7317  0.0085
 6729TIP3    H141678   2.935   5.597  12.051 -0.0474 -0.6743  0.2150
 6729TIP3    H241679   2.903   5.453  12.015 -0.0862 -0.5602 -0.2035
 6730TIP3   OH241680   1.617   2.238   4.076  0.4960 -0.3413  0.1863
 6730TIP3    H141681   1.580   2.326   4.075  0.4541 -0.3598  0.0311
 6730TIP3    H241682   1.543   2.181   4.094  0.2177 -0.4815 -1.3006
 6731TIP3   OH241683   2.667   3.315  12.043  0.0061 -0.0709 -0.9232
 6731TIP3    H141684   2.761   3.331  12.045  0.0782 -0.5083 -0.6660
 6731TIP3    H241685   2.654   3.253  11.972  0.0245 -0.6821 -0.4033
 6732TIP3   OH241686   1.557   0.721  17.065 -0.0703  0.5627  0.0179
 6732TIP3    H141687   1.629   0.762  17.017 -0.0840  2.4864  1.5685
 6732TIP3    H241688   1.594   0.702  17.152 -0.2394 -2.2469 -0.4759
 6733TIP3   OH241689   5.184   0.920  15.246  0.2817 -0.5318  0.2717
 6733TIP3    H141690   5.189   1.015  15.236 -0.3589 -0.5220 -0.0135
 6733TIP3    H241691   5.123   0.892  15.177  0.1716 -1.1031  0.5963
 6734TIP3   OH241692   3.386   2.904   0.941  0.0795  0.0527 -0.4010
 6734TIP3    H141693   3.405   2.986   0.896 -1.1695  1.9213  2.3311
 6734TIP3    H241694   3.345   2.849   0.874 -1.4653  2.6093 -1.6141
 6735TIP3   OH241695   6.684   0.649  15.560  0.3326 -0.3158 -0.4425
 6735TIP3    H141696   6.763   0.610  15.523  1.7214  1.2196  0.8457
 6735TIP3    H241697   6.620   0.646  15.489  2.5582  1.4167 -2.5868
 6736TIP3   OH241698   0.397   3.606  11.890  0.2178  0.4500  0.2528
 6736TIP3    H141699   0.471   3.567  11.844  1.6449  1.5311  1.5719
 6736TIP3    H241700   0.325   3.604  11.827  0.9285 -1.9922 -0.5495
 6737TIP3   OH241701   2.549   2.176  13.279  0.3141  0.8402  0.1733
 6737TIP3    H141702   2.530   2.268  13.260  0.3293  0.6311 -0.9352
 6737TIP3    H241703   2.546   2.133  13.193  1.3331 -0.0078  0.5440
 6738TIP3   OH241704   5.900   4.223   3.914 -0.3208  0.4334  0.4986
 6738TIP3    H141705   5.924   4.131   3.898  0.1364  0.4587  1.0428
 6738TIP3    H241706   5.805   4.224   3.906 -0.5052 -0.4601  2.3847
 6739TIP3   OH241707   6.652   5.225   2.353 -0.3502 -0.0977 -0.0306
 6739TIP3    H141708   6.704   5.164   2.301 -0.7230  0.1773 -0.7340
 6739TIP3    H241709   6.576   5.174   2.381 -0.2959 -0.1663 -0.0096
 6740TIP3   OH241710   2.080   2.195  12.200  0.0615 -0.2095  0.2785
 6740TIP3    H141711   2.104   2.288  12.192 -0.0199 -0.2064  0.0437
 6740TIP3    H241712   1.985   2.194  12.188  0.0944 -0.3507  0.0136
 6741TIP3   OH241713   1.171   3.982   6.260 -0.1746 -0.2894  0.6135
 6741TIP3    H141714   1.200   3.892   6.245 -1.2368 -0.3437 -1.2341
 6741TIP3    H241715   1.247   4.026   6.298  0.6487 -1.7294  0.6446
 6742TIP3   OH241716   5.371   4.133  17.162 -0.3280 -0.0419 -0.8573
 6742TIP3    H141717   5.348   4.079  17.238  0.6563  0.6034 -0.1034
 6742TIP3    H241718   5.287   4.147  17.118 -1.5864  2.7128  2.1558
 6743TIP3   OH241719   2.480   3.028   2.381 -0.0307  0.1367  0.1722
 6743TIP3    H141720   2.480   3.110   2.431 -1.7054  0.6710 -0.6581
 6743TIP3    H241721   2.531   2.967   2.435  0.5484  1.4851  1.1894
 6744TIP3   OH241722   6.456   3.198   4.505 -0.8461 -0.3398 -0.0040
 6744TIP3    H141723   6.455   3.121   4.562  0.4483 -1.3607 -1.3138
 6744TIP3    H241724   6.435   3.271   4.563  1.7925 -1.1539  2.1086
 6745TIP3   OH241725   4.245   1.720  11.079 -0.2175  0.2853 -0.9583
 6745TIP3    H141726   4.318   1.714  11.141 -0.1549 -3.4984 -1.2659
 6745TIP3    H241727   4.167   1.707  11.133 -0.3002 -0.8551 -1.3413
 6746TIP3   OH241728   3.946   6.329   0.935 -0.5681  0.0138  0.3591
 6746TIP3    H141729   3.992   6.411   0.950 -0.8105 -0.2132  2.4035
 6746TIP3    H241730   3.890   6.318   1.012 -3.1469 -0.3294 -1.4678
 6747TIP3   OH241731   5.893   5.464  11.940  0.1161 -0.3405 -0.3700
 6747TIP3    H141732   5.848   5.485  11.858 -1.2160 -0.7846  0.2376
 6747TIP3    H241733   5.917   5.550  11.976 -2.3779  0.0490  0.4650
 6748TIP3   OH241734   6.490   2.577  11.840  0.3191  0.2764 -0.2527
 6748TIP3    H141735   6.474   2.499  11.893  1.8487 -0.0162 -0.1851
 6748TIP3    H241736   6.468   2.550  11.751  0.6695 -0.1891 -0.2034
 6749TIP3   OH241737   6.130   4.852  16.820  0.6718 -0.3289 -0.1896
 6749TIP3    H141738   6.199   4.846  16.755  1.0686 -0.2961  0.2288
 6749TIP3    H241739   6.153   4.929  16.873 -0.2474  0.3105 -0.7041
 6750TIP3   OH241740   3.829   0.692   6.131 -0.3118  0.0046 -0.2707
 6750TIP3    H141741   3.896   0.730   6.187  1.7558 -2.5781 -0.8796
 6750TIP3    H241742   3.748   0.738   6.154  1.0034  0.8277  2.8938
 6751TIP3   OH241743   2.498   2.864   0.060  0.1598  0.0501  0.2811
 6751TIP3    H141744   2.473   2.890   0.149  0.2522 -1.3104  0.7199
 6751TIP3    H241745   2.466   2.935   0.004 -0.1092  0.8027  1.3753
 6752TIP3   OH241746   0.033   0.956   3.549 -0.2103 -0.5246 -0.2024
 6752TIP3    H141747   0.120   0.937   3.515  1.2293  0.5895  2.6752
 6752TIP3    H241748   0.015   0.887   3.613 -0.5786  0.3264  0.6415
 6753TIP3   OH241749   1.502   0.387   3.141 -0.3925 -0.0633 -0.5963
 6753TIP3    H141750   1.438   0.322   3.169  0.0609 -0.2176  0.1081
 6753TIP3    H241751   1.585   0.339   3.139  0.2690  0.9112  1.6998
 6754TIP3   OH241752   5.079   2.432  14.739  0.5423  0.6892  0.0825
 6754TIP3    H141753   5.142   2.365  14.764  1.6624  1.8992  0.5212
 6754TIP3    H241754   5.065   2.418  14.645  0.6382 -0.2495  0.2033
 6755TIP3   OH241755   0.847   3.100  13.978  0.8484  0.2149  0.3547
 6755TIP3    H141756   0.787   3.029  14.001 -0.8259  1.4186 -0.2880
 6755TIP3    H241757   0.925   3.082  14.032  0.0461 -1.4943  1.0101
 6756TIP3   OH241758   6.592   0.652   3.056 -0.4853  0.2840  0.3817
 6756TIP3    H141759   6.554   0.592   3.121 -0.8832  0.8743  0.6962
 6756TIP3    H241760   6.557   0.738   3.079  1.1330  0.8564  0.7429
 6757TIP3   OH241761   1.297   4.599  16.947  0.3871 -0.5737 -0.2131
 6757TIP3    H141762   1.388   4.591  16.977  0.3765 -0.9200 -0.2778
 6757TIP3    H241763   1.305   4.627  16.856  0.4410 -1.3610 -0.4564
 6758TIP3   OH241764   1.372   5.676  12.252  0.4740 -0.0058 -0.0386
 6758TIP3    H141765   1.337   5.675  12.341  1.0514  0.3287  0.1958
 6758TIP3    H241766   1.430   5.752  12.250  0.7797 -0.2491 -0.5787
 6759TIP3   OH241767   4.684   2.891  12.970 -0.1170 -0.0777  0.5198
 6759TIP3    H141768   4.693   2.920  13.061 -0.4275  0.9132  0.2392
 6759TIP3    H241769   4.772   2.861  12.946  0.5711  1.9797  0.3613
 6760TIP3   OH241770   2.029   1.881   0.580 -0.1546 -0.2825  0.1956
 6760TIP3    H141771   2.098   1.851   0.522  1.9551  1.5971  1.6373
 6760TIP3    H241772   1.986   1.951   0.531  0.1201 -0.2542 -0.0067
 6761TIP3   OH241773   6.256   5.963   5.206 -0.2897  0.0753  0.1218
 6761TIP3    H141774   6.187   5.913   5.163  0.0058  0.6964 -1.0982
 6761TIP3    H241775   6.252   6.050   5.164  0.9290  0.2552  0.3615
 6762TIP3   OH241776   3.154   4.450  17.263 -0.6144 -0.1448  0.1730
 6762TIP3    H141777   3.068   4.449  17.222  0.1007 -0.5506 -1.3917
 6762TIP3    H241778   3.205   4.511  17.211  0.5931 -1.3858 -0.1500
 6763TIP3   OH241779   2.977   5.057   5.083  0.7303  0.2640 -0.4208
 6763TIP3    H141780   3.021   5.094   5.007  1.3521  0.3124 -0.0418
 6763TIP3    H241781   3.048   5.037   5.144  0.2922 -0.3668 -0.1121
 6764TIP3   OH241782   5.218   5.492  15.741  0.4531 -0.3670 -0.2638
 6764TIP3    H141783   5.210   5.534  15.827 -2.5273 -1.9758  0.3036
 6764TIP3    H241784   5.165   5.546  15.683 -0.5518 -1.3711 -0.2824
 6765TIP3   OH241785   5.742   2.220   4.179  0.3098 -0.2509  0.3800
 6765TIP3    H141786   5.814   2.207   4.241  1.1705  1.3244 -0.2875
 6765TIP3    H241787   5.784   2.219   4.093 -0.7498 -1.3653 -0.1490
 6766TIP3   OH241788   3.506   4.777   5.032 -0.7491 -0.0561  0.4518
 6766TIP3    H141789   3.584   4.830   5.048 -0.4089 -0.6471  0.7745
 6766TIP3    H241790   3.454   4.786   5.112 -1.9300  1.8797 -0.5041
 6767TIP3   OH241791   1.496   2.570  16.482  0.2548 -0.5420  0.0561
 6767TIP3    H141792   1.543   2.590  16.401 -0.7939 -1.3456 -0.7747
 6767TIP3    H241793   1.425   2.511  16.455  0.5344 -1.7010  1.7303
 6768TIP3   OH241794   0.591   2.213   0.250  0.8003 -0.6147 -0.0981
 6768TIP3    H141795   0.550   2.265   0.318  1.4317 -1.2824  0.7979
 6768TIP3    H241796   0.547   2.128   0.256  2.3320 -1.3517  0.8989
 6769TIP3   OH241797   0.196   6.808  14.594  0.0023 -0.3680 -0.2199
 6769TIP3    H141798   0.233   6.749  14.660 -0.2856 -3.2785 -2.5786
 6769TIP3    H241799   0.157   6.750  14.529 -0.7875  2.4588 -2.3499
 6770TIP3   OH241800   2.159   5.971  11.845 -0.2636 -0.2970  0.8683
 6770TIP3    H141801   2.182   6.035  11.912  2.1434 -2.1419  1.8482
 6770TIP3    H241802   2.076   5.933  11.876  0.8864 -1.2164  2.8926
 6771TIP3   OH241803   2.622   0.221   1.441 -0.1508  0.6109 -0.2910
 6771TIP3    H141804   2.667   0.199   1.359 -0.0521 -1.0104  0.1897
 6771TIP3    H241805   2.585   0.308   1.425  1.8466  1.3220 -1.2295
 6772TIP3   OH241806   5.538   3.742   3.720 -0.0609 -0.1784 -0.5327
 6772TIP3    H141807   5.531   3.706   3.809 -0.9296  1.7688  0.2206
 6772TIP3    H241808   5.467   3.702   3.672  1.0061 -2.0014 -0.6409
 6773TIP3   OH241809   2.022   6.365  15.534 -0.2741  0.3625  0.3132
 6773TIP3    H141810   1.950   6.331  15.480  1.0444 -1.0019 -0.6389
 6773TIP3    H241811   2.024   6.459  15.514 -2.8503  0.7446  1.6420
 6774TIP3   OH241812   2.371   0.722  14.435  0.0968 -0.2960  0.2003
 6774TIP3    H141813   2.309   0.740  14.365  0.9179  0.8678 -0.2449
 6774TIP3    H241814   2.432   0.658  14.398  1.4303  1.4491 -0.6944
 6775TIP3   OH241815   0.449   1.649   4.391 -0.2739 -0.4060  0.1926
 6775TIP3    H141816   0.413   1.661   4.479 -1.7787  2.4690 -0.7383
 6775TIP3    H241817   0.394   1.582   4.351 -1.4153  0.3600  0.4768
 6776TIP3   OH241818   3.344   5.273   5.662  0.2775  0.2089 -0.4045
 6776TIP3    H141819   3.422   5.268   5.608  0.7414  2.1859  0.0376
 6776TIP3    H241820   3.363   5.343   5.725 -0.7375 -1.1942  1.5010
 6777TIP3   OH241821   4.279   5.768   1.350 -0.2930 -0.1776  0.4707
 6777TIP3    H141822   4.228   5.759   1.431  0.4039  1.5462  1.1146
 6777TIP3    H241823   4.219   5.737   1.282 -0.8581 -1.7440  1.6337
 6778TIP3   OH241824   4.252   5.818   1.985 -0.1285 -0.4767  0.5570
 6778TIP3    H141825   4.242   5.726   1.960 -1.0709 -0.0893 -0.5556
 6778TIP3    H241826   4.342   5.840   1.960  0.7536 -1.6164  2.6256
 6779TIP3   OH241827   1.900   2.989   0.468 -0.4408  0.2789 -0.4565
 6779TIP3    H141828   1.824   3.044   0.483 -1.5669 -1.1331 -0.8820
 6779TIP3    H241829   1.879   2.940   0.388  0.0581 -1.5577  0.4983
 6780TIP3   OH241830   6.802   4.120   3.397  0.4655 -0.5926 -0.5583
 6780TIP3    H141831   6.830   4.067   3.322 -1.6327 -0.4438 -1.4713
 6780TIP3    H241832   6.838   4.207   3.380  0.1455 -0.6070 -1.3137
 6781TIP3   OH241833   4.806   3.935  11.344  0.5072 -0.3377  0.6171
 6781TIP3    H141834   4.825   3.973  11.430 -0.2659  1.7109 -0.0647
 6781TIP3    H241835   4.710   3.930  11.342  0.5583 -1.0843  0.1763
 6782TIP3   OH241836   0.160   3.686  14.808 -0.7077  0.0261  0.1389
 6782TIP3    H141837   0.067   3.676  14.829 -0.4374 -0.7605  1.0093
 6782TIP3    H241838   0.163   3.686  14.712 -1.4999 -0.9863  0.0999
 6783TIP3   OH241839   4.657   6.511  15.334 -0.0182 -0.3960 -0.0103
 6783TIP3    H141840   4.733   6.453  15.336 -0.3181 -0.8433 -1.2439
 6783TIP3    H241841   4.634   6.518  15.241  0.7101  2.6162 -0.0045
 6784TIP3   OH241842   3.682   4.236  15.499  0.3576 -0.0154  0.2280
 6784TIP3    H141843   3.750   4.173  15.523  1.0394  1.6643  2.9369
 6784TIP3    H241844   3.721   4.289  15.430  0.9387 -0.5457  0.1493
 6785TIP3   OH241845   0.326   6.209   2.935 -0.1150  0.2259 -0.2275
 6785TIP3    H141846   0.287   6.192   3.020  0.9313  1.5608  0.5501
 6785TIP3    H241847   0.252   6.234   2.879 -0.6436  0.5975  0.6328
 6786TIP3   OH241848   2.700   1.501  15.978 -0.1942  0.2123  0.0296
 6786TIP3    H141849   2.687   1.512  15.883  1.6264  0.3538 -0.2150
 6786TIP3    H241850   2.763   1.430  15.985  0.4867  0.9130  1.0954
 6787TIP3   OH241851   6.030   6.450  11.629 -0.1740  0.0964  0.0375
 6787TIP3    H141852   6.105   6.413  11.583 -0.0074 -0.1274  0.4831
 6787TIP3    H241853   5.961   6.453  11.563  0.0121 -0.3758 -0.1846
 6788TIP3   OH241854   2.396   0.814   0.136  0.1447  0.6985  0.4159
 6788TIP3    H141855   2.446   0.877   0.084  2.3131 -1.1784  0.1463
 6788TIP3    H241856   2.406   0.845   0.227 -1.1779  2.3078  0.0400
 6789TIP3   OH241857   3.580   2.120  13.400  0.3912 -0.4723 -0.9342
 6789TIP3    H141858   3.486   2.138  13.391  0.8269  3.0117  0.8651
 6789TIP3    H241859   3.620   2.164  13.326  1.0247  2.0945  0.8978
 6790TIP3   OH241860   6.040   5.425  12.244  0.4891  0.7635 -0.2210
 6790TIP3    H141861   6.014   5.376  12.323  1.2286 -1.8321 -1.5448
 6790TIP3    H241862   6.100   5.492  12.277  0.5288 -0.0628  1.4727
 6791TIP3   OH241863   1.311   0.521  11.046  0.0722 -0.2709 -0.3623
 6791TIP3    H141864   1.389   0.545  10.995 -1.4962  1.8095 -1.8468
 6791TIP3    H241865   1.288   0.433  11.016  0.5385  0.0051 -1.5602
 6792TIP3   OH241866   3.842   4.742  16.307  0.0742  0.3637  0.0319
 6792TIP3    H141867   3.913   4.800  16.278  0.3036 -0.5023 -1.2191
 6792TIP3    H241868   3.812   4.700  16.226 -1.7742  0.5986  0.5779
 6793TIP3   OH241869   6.768   0.108  14.161 -0.2910 -0.8655 -0.1264
 6793TIP3    H141870   6.815   0.025  14.171  0.5012 -0.4252 -0.1866
 6793TIP3    H241871   6.819   0.171  14.212  0.2005  0.0063 -1.6625
 6794TIP3   OH241872   1.794   6.698  10.808  0.4265  0.1791 -0.3629
 6794TIP3    H141873   1.700   6.700  10.790 -0.0268  1.7183  1.9581
 6794TIP3    H241874   1.807   6.616  10.856  0.5144 -0.6218 -1.7075
 6795TIP3   OH241875   4.909   2.482  14.114 -0.1801  0.2174 -0.2700
 6795TIP3    H141876   4.894   2.575  14.095  0.7975  0.3120 -0.6128
 6795TIP3    H241877   4.937   2.445  14.031  2.5025  0.2745  0.5698
 6796TIP3   OH241878   5.746   5.250  12.755 -0.0851 -0.1478 -0.3725
 6796TIP3    H141879   5.780   5.175  12.707 -0.7829  0.7637 -2.3615
 6796TIP3    H241880   5.824   5.294  12.789  0.5996  0.2166 -2.2908
 6797TIP3   OH241881   1.683   3.901  13.624  0.1178  0.5822  0.3403
 6797TIP3    H141882   1.680   3.806  13.634  0.8644  0.2140 -2.5911
 6797TIP3    H241883   1.773   3.925  13.648  0.3977  0.3515 -0.4800
 6798TIP3   OH241884   0.792   1.672  11.713  0.1574  0.0125 -0.2399
 6798TIP3    H141885   0.876   1.631  11.693 -0.8247 -0.6857 -3.2959
 6798TIP3    H241886   0.807   1.765  11.702  0.3757 -0.1664 -1.5565
 6799TIP3   OH241887   4.795   5.534  16.899  0.0920  0.0846  0.2753
 6799TIP3    H141888   4.766   5.566  16.984 -1.3294 -0.8327  0.1551
 6799TIP3    H241889   4.755   5.448  16.890  0.0207  0.2639 -1.4239
 6800TIP3   OH241890   4.526   5.044  14.710 -0.1019 -0.1726 -0.0230
 6800TIP3    H141891   4.451   5.056  14.769  0.0308 -1.7403  0.4926
 6800TIP3    H241892   4.599   5.024  14.767  0.2396 -0.7702 -0.6569
 6801TIP3   OH241893   6.250   0.857  12.742  0.1680 -0.1105 -0.0797
 6801TIP3    H141894   6.311   0.818  12.804  0.1218 -1.2351 -0.7222
 6801TIP3    H241895   6.264   0.808  12.660 -1.2471 -0.0723 -0.3622
 6802TIP3   OH241896   0.178   0.322   0.650  0.0350 -0.0207  0.0719
 6802TIP3    H141897   0.209   0.235   0.676  0.7199 -0.1116 -1.0197
 6802TIP3    H241898   0.131   0.307   0.567 -0.9814  0.4607  0.5442
 6803TIP3   OH241899   5.450   1.584   0.402  0.4913 -0.0059  0.4117
 6803TIP3    H141900   5.500   1.527   0.461  1.6249  0.5526  0.0164
 6803TIP3    H241901   5.480   1.558   0.314 -1.1454 -0.8026  0.0684
 6804TIP3   OH241902   5.588   1.865  16.443 -0.1454 -0.1271 -0.2487
 6804TIP3    H141903   5.533   1.854  16.521 -0.4735  0.9822 -0.3138
 6804TIP3    H241904   5.619   1.955  16.449 -0.2890  0.0012 -1.4877
 6805TIP3   OH241905   1.937   1.073  12.350 -0.7250 -0.3095 -0.1631
 6805TIP3    H141906   1.936   1.097  12.443 -0.8479 -1.9094  0.2667
 6805TIP3    H241907   1.957   1.155  12.304  1.9544 -0.0220  1.4252
 6806TIP3   OH241908   0.110   4.371   4.941 -0.0372  0.9245 -0.1107
 6806TIP3    H141909   0.108   4.362   4.846 -1.6090 -1.9276  0.1400
 6806TIP3    H241910   0.203   4.371   4.963  0.3172 -1.7105 -1.4085
 6807TIP3   OH241911   5.830   1.040  14.906 -0.8322  0.0475 -0.2724
 6807TIP3    H141912   5.787   0.989  14.974  1.6829 -1.2315  0.4615
 6807TIP3    H241913   5.923   1.035  14.928 -0.3747  3.9575 -0.9147
 6808TIP3   OH241914   5.651   2.463   3.965  0.4109  0.2832 -0.5837
 6808TIP3    H141915   5.635   2.462   4.060 -0.7597 -0.6400 -0.7793
 6808TIP3    H241916   5.657   2.556   3.943  2.3278  0.4893  0.6527
 6809TIP3   OH241917   0.293   2.630  11.713 -0.5991 -0.0330  0.0579
 6809TIP3    H141918   0.240   2.680  11.775 -0.2543 -0.1781  0.4808
 6809TIP3    H241919   0.232   2.600  11.646 -0.8488  0.7516 -0.0662
 6810TIP3   OH241920   5.375   2.290   3.106  0.1722 -0.2880 -0.0484
 6810TIP3    H141921   5.383   2.265   3.198 -3.3252  0.1807  0.4319
 6810TIP3    H241922   5.417   2.376   3.101  1.3337 -0.7899  0.8426
 6811TIP3   OH241923   5.903   1.021   3.512 -0.0510 -0.3111 -0.7166
 6811TIP3    H141924   5.830   1.019   3.450 -0.2067 -1.8931 -0.4928
 6811TIP3    H241925   5.972   1.068   3.466 -1.1754  1.1658 -0.9596
 6812TIP3   OH241926   0.245   6.481  17.037 -0.0237 -0.4276  0.0891
 6812TIP3    H141927   0.305   6.554  17.018  0.1405 -1.5287 -4.0996
 6812TIP3    H241928   0.161   6.524  17.054  0.4302  0.8466 -0.7797
 6813TIP3   OH241929   0.101   6.430   0.812 -0.0336 -0.4976 -0.4534
 6813TIP3    H141930   0.161   6.395   0.747 -0.0034 -0.1454 -0.6148
 6813TIP3    H241931   0.017   6.391   0.791  0.0281 -0.5756 -0.5550
 6814TIP3   OH241932   3.236   6.126   5.804 -0.2876 -0.1579 -0.1100
 6814TIP3    H141933   3.144   6.109   5.826 -0.8503 -1.8460 -3.4109
 6814TIP3    H241934   3.233   6.150   5.711  2.4734  1.2815  0.1450
 6815TIP3   OH241935   1.698   1.420  15.643  0.1129  0.4065 -0.7680
 6815TIP3    H141936   1.774   1.400  15.696  0.1351  0.3071 -0.8383
 6815TIP3    H241937   1.734   1.458  15.562  0.0731  0.6933 -0.6526
 6816TIP3   OH241938   3.742   5.627   4.576 -0.3349 -0.8015  0.5963
 6816TIP3    H141939   3.775   5.585   4.496  0.6497  0.5334  0.2951
 6816TIP3    H241940   3.683   5.696   4.544  0.8920  0.4383  0.9821
 6817TIP3   OH241941   3.111   3.859   2.425 -0.5037  0.1456  0.8392
 6817TIP3    H141942   3.143   3.851   2.515  0.9769 -0.3237  0.2913
 6817TIP3    H241943   3.037   3.798   2.420  0.0105 -0.5293  1.4743
 6818TIP3   OH241944   6.800   0.970   1.372 -0.5494  0.2380  0.5344
 6818TIP3    H141945   6.802   1.056   1.414  0.1461 -0.3715  1.7654
 6818TIP3    H241946   6.860   0.979   1.298  0.3108  0.5011  1.2609
 6819TIP3   OH241947   6.041   1.510   5.671  0.1918  0.5951 -0.3492
 6819TIP3    H141948   6.001   1.527   5.586  2.8711 -1.9267 -2.2076
 6819TIP3    H241949   6.069   1.418   5.667  1.9397  0.9255  2.5816
 6820TIP3   OH241950   4.720   4.170  13.618  0.1245  0.3619 -0.1128
 6820TIP3    H141951   4.679   4.209  13.541  1.0382  0.9913 -0.2920
 6820TIP3    H241952   4.654   4.111  13.654 -0.0770 -0.3960 -1.7277
 6821TIP3   OH241953   5.270   0.539  12.264 -0.1571 -0.0909  0.1815
 6821TIP3    H141954   5.292   0.573  12.350 -0.8483  1.4394 -0.2379
 6821TIP3    H241955   5.322   0.591  12.203 -1.2836  0.2962 -0.4677
 6822TIP3   OH241956   2.085   6.631  13.267 -0.1627 -0.4963  0.4725
 6822TIP3    H141957   2.128   6.705  13.223  1.5100 -0.2980  2.3501
 6822TIP3    H241958   2.009   6.670  13.309 -1.0751 -0.4579 -1.1988
 6823TIP3   OH241959   2.869   3.492  14.581  0.4590 -0.5857 -0.2398
 6823TIP3    H141960   2.879   3.584  14.605 -1.6823 -0.4434  0.1631
 6823TIP3    H241961   2.958   3.464  14.559  1.1740  1.5093 -0.1663
 6824TIP3   OH241962   1.393   5.807  16.615 -0.7012  0.1054  0.2858
 6824TIP3    H141963   1.298   5.810  16.625 -0.7993 -0.6168 -0.3832
 6824TIP3    H241964   1.412   5.878  16.553 -0.8734 -0.1464 -0.0571
 6825TIP3   OH241965   3.123   2.659  15.032 -0.1441 -0.3338  0.0089
 6825TIP3    H141966   3.136   2.673  15.126 -3.0862  0.4869  0.3460
 6825TIP3    H241967   3.159   2.571  15.016 -0.1056 -0.7108  2.0270
 6826TIP3   OH241968   6.113   4.502  14.621 -0.1294 -0.0516  0.0263
 6826TIP3    H141969   6.051   4.436  14.590  0.0309  0.2747 -1.0123
 6826TIP3    H241970   6.178   4.508  14.551  0.9265 -0.1933  0.9863
 6827TIP3   OH241971   5.192   4.914  14.407 -0.7548 -0.8714 -0.1814
 6827TIP3    H141972   5.199   4.993  14.461  3.6585 -0.8383 -0.6288
 6827TIP3    H241973   5.147   4.943  14.328  0.9610  1.2828 -0.4087
 6828TIP3   OH241974   1.891   5.834   3.961 -0.6716  0.4110 -0.1274
 6828TIP3    H141975   1.916   5.920   3.926 -2.1058  0.8311 -0.1361
 6828TIP3    H241976   1.923   5.771   3.896  1.1053  0.8769  0.2761
 6829TIP3   OH241977   5.408   3.331   4.168 -0.4046  0.0035 -0.2696
 6829TIP3    H141978   5.424   3.274   4.243  0.4441 -0.8560 -1.0927
 6829TIP3    H241979   5.424   3.276   4.092 -0.7738  1.0078 -1.0868
 6830TIP3   OH241980   0.523   4.873  16.500  0.3669  0.0906 -0.1435
 6830TIP3    H141981   0.605   4.860  16.451  0.7176  0.9967  0.2026
 6830TIP3    H241982   0.502   4.965  16.488 -0.3806 -0.0446  0.1268
 6831TIP3   OH241983   6.343   5.202  14.373  0.0989  0.0516  0.4470
 6831TIP3    H141984   6.259   5.207  14.417 -0.8233  0.0718 -1.2715
 6831TIP3    H241985   6.335   5.264  14.300  2.6019  2.2064  1.8982
 6832TIP3   OH241986   1.365   6.352  12.995  0.0926 -0.5553 -0.4804
 6832TIP3    H141987   1.448   6.400  13.002 -0.3563  0.3337 -1.0849
 6832TIP3    H241988   1.297   6.419  13.007 -0.5433 -1.0305 -1.3440
 6833TIP3   OH241989   6.227   4.559   1.973  0.0245  0.1228  0.8077
 6833TIP3    H141990   6.192   4.600   2.052  1.6244  3.1641 -0.0099
 6833TIP3    H241991   6.160   4.576   1.906  0.5465  1.1543  0.5423
 6834TIP3   OH241992   5.310   2.298   4.062  0.3157 -0.3100  0.0916
 6834TIP3    H141993   5.394   2.258   4.086  0.1631  0.7817  2.6839
 6834TIP3    H241994   5.252   2.276   4.136 -0.8735  1.2987 -0.3480
 6835TIP3   OH241995   3.212   2.556  16.131  0.0147  0.2138 -0.0926
 6835TIP3    H141996   3.278   2.617  16.164 -0.8134  2.0445 -1.6956
 6835TIP3    H241997   3.241   2.470  16.161  1.8292  1.2647  1.2479
 6836TIP3   OH241998   1.184   3.997  16.545 -0.7361  0.3605  0.3896
 6836TIP3    H141999   1.127   3.963  16.614 -1.0972 -0.4406 -0.2841
 6836TIP3    H242000   1.127   4.002  16.468 -0.1705  0.5919 -0.0144
 6837TIP3   OH242001   2.236   4.309   4.288 -0.7895 -0.2314 -0.4077
 6837TIP3    H142002   2.168   4.243   4.274 -0.7019 -0.3019 -0.5014
 6837TIP3    H242003   2.280   4.316   4.203  1.1200 -2.1782  0.4161
 6838TIP3   OH242004   6.444   0.835   5.280  0.0604 -0.5236  0.0336
 6838TIP3    H142005   6.453   0.854   5.373  0.2658 -3.7169  0.7290
 6838TIP3    H242006   6.352   0.812   5.269 -0.2383  1.0219 -0.8138
 6839TIP3   OH242007   1.305   3.858   4.647  0.2567  0.6089 -0.5496
 6839TIP3    H142008   1.288   3.862   4.742 -2.5474 -1.4107 -0.9044
 6839TIP3    H242009   1.218   3.849   4.608  1.5729 -1.0855 -3.1790
 6840TIP3   OH242010   4.668   3.912  16.097 -0.1185  0.2114 -0.2670
 6840TIP3    H142011   4.626   3.938  16.014  0.9912 -0.4974 -1.0702
 6840TIP3    H242012   4.599   3.867  16.146 -1.3593  2.3566  0.0535
 6841TIP3   OH242013   1.195   1.552   5.762 -0.4434 -0.0429 -0.1682
 6841TIP3    H142014   1.205   1.459   5.779 -3.1457 -0.4164 -0.3158
 6841TIP3    H242015   1.277   1.579   5.721  0.2202 -2.4319 -0.4400
 6842TIP3   OH242016   1.207   1.069  12.954  0.2576  0.0941 -0.2474
 6842TIP3    H142017   1.264   1.031  13.021 -0.4628 -0.3737  0.1249
 6842TIP3    H242018   1.135   1.107  13.004 -0.9183 -1.3412 -0.7931
 6843TIP3   OH242019   3.972   1.478  15.788  0.1269  0.3720 -0.5248
 6843TIP3    H142020   3.946   1.496  15.697  0.6017  1.0329 -0.5346
 6843TIP3    H242021   3.892   1.445  15.829 -0.2433  0.6050 -1.0416
 6844TIP3   OH242022   4.283   2.952   1.754  0.2930  0.0605 -0.0512
 6844TIP3    H142023   4.298   2.953   1.849 -3.8421 -0.4452  0.6948
 6844TIP3    H242024   4.258   2.862   1.735 -0.0180  0.4352 -1.4681
 6845TIP3   OH242025   3.054   3.372  16.036 -0.1251  0.3258  0.2154
 6845TIP3    H142026   3.003   3.399  16.112  1.0455  0.8376  0.8280
 6845TIP3    H242027   3.068   3.453  15.986 -0.6451  0.0420 -0.4012
 6846TIP3   OH242028   2.832   5.199   6.640  0.5034  0.1842 -0.5075
 6846TIP3    H142029   2.799   5.160   6.559 -0.3510 -1.4390  0.6027
 6846TIP3    H242030   2.787   5.283   6.646 -0.2269 -0.1542 -1.1829
 6847TIP3   OH242031   1.831   4.415  13.715  0.3170  0.2260 -0.2674
 6847TIP3    H142032   1.748   4.463  13.717  0.2887  0.1704 -0.0044
 6847TIP3    H242033   1.884   4.456  13.783 -0.3036 -1.1499  1.1059
 6848TIP3   OH242034   3.781   4.635  11.762  0.0005 -0.1395  0.4052
 6848TIP3    H142035   3.697   4.589  11.762 -1.6963  2.8031 -0.9629
 6848TIP3    H242036   3.798   4.654  11.670  1.4351  0.5550  0.7924
 6849TIP3   OH242037   2.776   0.202  15.862  0.1345  0.2831 -0.2149
 6849TIP3    H142038   2.796   0.116  15.899  0.7503  1.3301  1.9984
 6849TIP3    H242039   2.767   0.186  15.768  0.5343 -2.1361  0.1115
 6850TIP3   OH242040   3.560   5.777   3.417  0.5263 -0.1825 -0.1385
 6850TIP3    H142041   3.551   5.841   3.488 -1.8202 -0.6756  0.0322
 6850TIP3    H242042   3.655   5.771   3.403  0.8777  2.0502  0.9927
 6851TIP3   OH242043   2.936   5.287   5.267  0.4726  0.2804  0.2889
 6851TIP3    H142044   2.940   5.239   5.184  1.0430  0.1191  0.4069
 6851TIP3    H242045   2.941   5.219   5.334 -3.0102  0.1272  0.5012
 6852TIP3   OH242046   2.646   5.013   1.552 -0.3265 -0.4198 -0.0609
 6852TIP3    H142047   2.572   5.053   1.507 -0.4873 -1.9597 -1.1986
 6852TIP3    H242048   2.613   4.928   1.582  0.6855 -0.6941  0.2961
 6853TIP3   OH242049   1.534   2.110  11.201  0.0489 -0.5148 -0.1675
 6853TIP3    H142050   1.569   2.192  11.235 -0.3195 -0.3613 -0.1617
 6853TIP3    H242051   1.464   2.137  11.141 -0.2243 -0.8355  0.0107
 6854TIP3   OH242052   3.453   4.225   3.787  0.0092 -0.2662 -0.5185
 6854TIP3    H142053   3.397   4.290   3.828 -0.7481 -1.7825  0.8995
 6854TIP3    H242054   3.393   4.172   3.733  0.2986 -0.9945 -0.1338
 6855TIP3   OH242055   5.723   1.115   3.274 -0.6613  0.2851 -0.0091
 6855TIP3    H142056   5.709   1.026   3.243 -0.5640 -0.2944  1.5363
 6855TIP3    H242057   5.653   1.130   3.338  1.6363 -0.1587  2.7021
 6856TIP3   OH242058   6.003   4.323   0.916  0.0185 -0.4095  0.8354
 6856TIP3    H142059   5.921   4.274   0.917  0.5239 -1.2843  0.4970
 6856TIP3    H242060   5.982   4.407   0.955 -1.5782  0.2181 -1.2718
 6857TIP3   OH242061   3.181   5.751  16.989 -0.5372 -0.1958 -0.0179
 6857TIP3    H142062   3.201   5.696  17.065 -0.9425  0.7632  0.7785
 6857TIP3    H242063   3.175   5.688  16.916  1.9899 -0.8768  0.3224
 6858TIP3   OH242064   2.125   3.541  14.036  0.1378  0.7290 -1.0192
 6858TIP3    H142065   2.203   3.511  14.084  0.4770  2.5587 -0.3598
 6858TIP3    H242066   2.065   3.569  14.105 -1.1862 -0.8094 -1.5249
 6859TIP3   OH242067   5.389   1.092  12.680 -0.4105 -0.5354 -0.5529
 6859TIP3    H142068   5.356   1.163  12.735 -0.6873  0.0253 -1.4240
 6859TIP3    H242069   5.483   1.108  12.674 -0.4180 -0.4543 -0.4561
 6860TIP3   OH242070   2.453   3.433   0.488  0.0111 -0.1755 -0.0732
 6860TIP3    H142071   2.522   3.435   0.421  0.2123 -0.2278  0.1297
 6860TIP3    H242072   2.447   3.523   0.519 -0.8289  0.0573 -0.9138
 6861TIP3   OH242073   4.063   4.597  11.653  0.0213  0.4554 -0.0682
 6861TIP3    H142074   4.050   4.662  11.722 -0.0209  1.1496 -0.7259
 6861TIP3    H242075   4.061   4.648  11.572  0.7936 -0.2607 -0.5384
 6862TIP3   OH242076   6.688   1.398  11.729  0.2094 -0.0873  0.0233
 6862TIP3    H142077   6.743   1.383  11.652 -1.5418 -1.5489 -1.0070
 6862TIP3    H242078   6.712   1.328  11.789  0.6999  0.3111  0.2901
 6863TIP3   OH242079   4.571   5.647   3.354  0.1891  0.2746 -0.0653
 6863TIP3    H142080   4.639   5.629   3.288 -0.4678 -0.3510 -0.5799
 6863TIP3    H242081   4.556   5.562   3.396  0.6247  0.6771  0.9146
 6864TIP3   OH242082   1.388   4.375  13.183 -0.1433 -0.0532 -0.1886
 6864TIP3    H142083   1.478   4.394  13.207 -0.0406 -0.7697  0.0082
 6864TIP3    H242084   1.393   4.296  13.130 -0.6695 -0.2039 -0.0224
 6865TIP3   OH242085   0.276   0.629   5.096  0.3439 -0.2926  0.2890
 6865TIP3    H142086   0.228   0.547   5.098  1.1518 -0.7594  1.1297
 6865TIP3    H242087   0.356   0.611   5.146  1.1242  0.6257 -0.6113
 6866TIP3   OH242088   0.073   0.250   0.945  0.1059 -0.5848 -0.0834
 6866TIP3    H142089   0.028   0.318   0.896  0.5644 -0.5582 -0.4756
 6866TIP3    H242090   0.025   0.243   1.027  1.2118  1.5773  0.7969
 6867TIP3   OH242091   4.271   4.959  10.329 -0.4711 -0.0473  0.5736
 6867TIP3    H142092   4.341   4.894  10.327 -1.6884 -1.4891  2.3361
 6867TIP3    H242093   4.231   4.954  10.242  1.6655  0.8768 -0.4706
 6868TIP3   OH242094   4.913   2.356   2.085 -1.0663  0.4148 -0.0364
 6868TIP3    H142095   4.818   2.343   2.088 -1.1141  0.5723 -0.9004
 6868TIP3    H242096   4.945   2.282   2.034 -0.7685  0.5971 -0.1104
 6869TIP3   OH242097   5.196   0.001   0.271 -0.4265 -0.1122  0.2781
 6869TIP3    H142098   5.189  -0.095   0.279 -0.0427 -0.2370 -0.7310
 6869TIP3    H242099   5.253   0.027   0.343 -1.4967 -0.4962  1.2940
 6870TIP3   OH242100   5.689   6.504  13.063 -0.2440 -0.3714 -0.4825
 6870TIP3    H142101   5.706   6.432  13.002  3.2432 -0.8033  0.8771
 6870TIP3    H242102   5.690   6.463  13.149  1.0344  1.1568  0.2616
 6871TIP3   OH242103   0.394   4.946   6.472  0.1462  0.1087  0.3670
 6871TIP3    H142104   0.348   4.924   6.553  0.3861  0.1713  0.5208
 6871TIP3    H242105   0.487   4.942   6.496  0.1955  2.6923  0.7763
 6872TIP3   OH242106   1.215   3.735  15.182  0.2929  0.2084 -0.1676
 6872TIP3    H142107   1.256   3.663  15.133  0.2494  1.0482 -1.4473
 6872TIP3    H242108   1.151   3.692  15.238 -0.1286 -0.7065 -1.3322
 6873TIP3   OH242109   0.682   5.333  12.604 -0.2697  0.1949  0.1515
 6873TIP3    H142110   0.672   5.255  12.659  1.5017 -0.4172 -0.3651
 6873TIP3    H242111   0.597   5.378  12.610 -1.1144 -1.4734  0.9012
 6874TIP3   OH242112   4.936   6.628   3.602 -0.7226 -0.2338  0.5522
 6874TIP3    H142113   5.022   6.589   3.620 -0.3806  0.2397 -0.0220
 6874TIP3    H242114   4.881   6.553   3.579  0.2385 -0.2785 -1.7176
 6875TIP3   OH242115   2.751   4.408  16.963 -0.1097  0.8964 -0.5392
 6875TIP3    H142116   2.665   4.449  16.978  0.7899  2.0082  1.7442
 6875TIP3    H242117   2.732   4.314  16.962 -1.4774  1.1614 -0.8650
 6876TIP3   OH242118   0.970   3.722  13.448  0.2187 -0.3356  0.4611
 6876TIP3    H142119   0.953   3.653  13.512  1.5085 -1.2008 -0.1012
 6876TIP3    H242120   0.955   3.804  13.495 -0.5139 -0.9873  1.3738
 6877TIP3   OH242121   3.185   0.118  15.087  0.7192  0.3021 -0.2466
 6877TIP3    H142122   3.184   0.073  15.002  1.5561  0.9266 -0.5999
 6877TIP3    H242123   3.147   0.204  15.070 -1.4351 -0.4708  0.5623
 6878TIP3   OH242124   0.570   0.879   2.618  0.1850  0.0688  0.1908
 6878TIP3    H142125   0.558   0.799   2.669 -0.2518  0.3832  0.5796
 6878TIP3    H242126   0.536   0.949   2.674  1.2715  0.6223  0.1710
 6879TIP3   OH242127   2.344   5.414   5.166 -0.3188 -0.4712  0.5537
 6879TIP3    H142128   2.318   5.437   5.255 -2.1042 -0.2323 -0.0135
 6879TIP3    H242129   2.335   5.319   5.163  1.8409 -0.7335  1.2583
 6880TIP3   OH242130   0.653   3.289  13.953  0.0336  0.1342  0.0804
 6880TIP3    H142131   0.714   3.216  13.947 -0.0410  0.1111 -0.4394
 6880TIP3    H242132   0.591   3.263  14.021 -0.3725 -0.5748 -0.5568
 6881TIP3   OH242133   1.497   4.952  11.357 -0.1621  0.2458 -0.6185
 6881TIP3    H142134   1.437   4.884  11.387 -0.2240  0.6052  0.0946
 6881TIP3    H242135   1.531   4.920  11.274  1.3218 -1.5705  0.6464
 6882TIP3   OH242136   5.715   5.161   4.063 -0.2428 -0.2650  0.2734
 6882TIP3    H142137   5.620   5.157   4.069 -0.3504 -0.3759 -1.1791
 6882TIP3    H242138   5.745   5.164   4.153 -1.6878  1.2730  0.7389
 6883TIP3   OH242139   5.043   1.772   2.837  0.3109 -0.0267 -0.0335
 6883TIP3    H142140   5.054   1.687   2.794  3.2249  0.1969  0.1429
 6883TIP3    H242141   5.025   1.750   2.928 -1.8027 -0.4683 -0.5452
 6884TIP3   OH242142   2.282   1.523   2.350  0.4429 -1.5953  0.3909
 6884TIP3    H142143   2.298   1.520   2.256 -3.3669 -1.0812 -0.3512
 6884TIP3    H242144   2.255   1.435   2.373 -0.4402 -1.2699  0.6249
 6885TIP3   OH242145   0.974   6.318   3.389 -0.1446 -0.4854 -0.6765
 6885TIP3    H142146   1.043   6.323   3.322 -0.2646  1.3379 -0.6707
 6885TIP3    H242147   0.893   6.334   3.340 -0.2866  0.2674 -0.1970
 6886TIP3   OH242148   4.484   0.960   5.563  0.0075 -0.4310 -0.2892
 6886TIP3    H142149   4.542   1.023   5.605  1.0456 -1.3018 -0.3812
 6886TIP3    H242150   4.518   0.874   5.590 -2.3505 -0.9501  1.1539
 6887TIP3   OH242151   6.658   3.542   2.851  0.3949 -0.5245 -0.3206
 6887TIP3    H142152   6.588   3.602   2.825  1.0680  0.9490  1.1891
 6887TIP3    H242153   6.614   3.458   2.863 -1.1587  0.4239  0.7988
 6888TIP3   OH242154   1.132   3.436   5.524  0.1133 -0.0712  0.3580
 6888TIP3    H142155   1.132   3.387   5.606 -0.7913  1.0296  1.0330
 6888TIP3    H242156   1.225   3.452   5.505  0.4405 -2.2368 -0.0137
 6889TIP3   OH242157   2.723   1.761   6.088  0.1316 -0.2392 -0.0169
 6889TIP3    H142158   2.749   1.737   5.999  0.8851 -1.5714  0.5471
 6889TIP3    H242159   2.639   1.806   6.078  1.4566  1.9831 -1.6585
 6890TIP3   OH242160   3.959   6.677   5.661 -0.0624  0.0376 -0.0560
 6890TIP3    H142161   4.038   6.623   5.653  0.6354  1.0413 -0.0474
 6890TIP3    H242162   3.905   6.652   5.586 -0.0638 -1.1636  0.3216
 6891TIP3   OH242163   0.467   1.125  13.938  0.0402  0.4032 -0.4559
 6891TIP3    H142164   0.425   1.210  13.931  1.6217  1.2647  0.0700
 6891TIP3    H242165   0.519   1.131  14.019 -1.1826 -1.6767  0.5242
 6892TIP3   OH242166   5.934   0.019   5.314 -0.1077 -0.2465 -0.1692
 6892TIP3    H142167   5.840   0.036   5.326  0.3845  1.3836  1.7911
 6892TIP3    H242168   5.945  -0.074   5.334 -0.8403  0.2741  2.9708
 6893TIP3   OH242169   0.115   2.910   5.524 -0.1738  0.9468 -0.5526
 6893TIP3    H142170   0.176   2.902   5.451  1.7596 -0.1841  1.1264
 6893TIP3    H242171   0.139   2.993   5.566  0.5768  0.2590  0.4051
 6894TIP3   OH242172   1.192   6.650  11.368 -0.3425 -0.4421  0.0765
 6894TIP3    H142173   1.267   6.593  11.347 -1.1652 -1.7172  0.5168
 6894TIP3    H242174   1.122   6.619  11.310 -1.2016 -0.8072  1.2887
 6895TIP3   OH242175   0.682   1.523  13.137  0.8398 -0.0414 -0.5491
 6895TIP3    H142176   0.745   1.476  13.191  0.6872  0.4031  0.0190
 6895TIP3    H242177   0.688   1.481  13.051  0.1876 -1.5503  0.1290
 6896TIP3   OH242178   2.871   3.578   0.769  0.0026  0.0605 -0.0028
 6896TIP3    H142179   2.878   3.486   0.796 -0.4983  0.4346  1.4670
 6896TIP3    H242180   2.953   3.618   0.798 -0.1013  0.2363  0.0518
 6897TIP3   OH242181   0.620   5.845   6.931 -0.2129  0.0801 -0.0511
 6897TIP3    H142182   0.557   5.902   6.888 -0.7865  1.6511  2.7345
 6897TIP3    H242183   0.650   5.895   7.007  2.1405 -1.8369  0.3539
 6898TIP3   OH242184   4.286   2.402   2.682  0.4482  0.7452 -0.3192
 6898TIP3    H142185   4.361   2.454   2.654  0.6402 -0.4032 -1.9595
 6898TIP3    H242186   4.304   2.381   2.774  1.7526  1.1070 -0.4847
 6899TIP3   OH242187   2.791   2.434  15.350 -0.8956  0.2074  0.0571
 6899TIP3    H142188   2.834   2.378  15.414  0.5322 -1.8103 -2.5215
 6899TIP3    H242189   2.860   2.453  15.285 -2.5575  1.1781 -1.4697
 6900TIP3   OH242190   4.956   2.831   4.441  0.7336  0.4127 -0.3143
 6900TIP3    H142191   4.964   2.738   4.416  2.1964  0.4310  0.0496
 6900TIP3    H242192   4.868   2.855   4.414  0.0065 -1.3386  0.3862
 6901TIP3   OH242193   1.647   3.504   3.446 -0.2426 -0.3336  0.0788
 6901TIP3    H142194   1.584   3.433   3.461  0.7595 -1.6475 -1.7752
 6901TIP3    H242195   1.706   3.500   3.521  0.1007 -1.7945 -0.2542
 6902TIP3   OH242196   1.461   6.473   0.816 -0.7365  0.4002 -0.6011
 6902TIP3    H142197   1.406   6.420   0.874 -0.6303  2.4751  1.4421
 6902TIP3    H242198   1.399   6.508   0.751 -0.9534 -1.4042 -1.4130
 6903TIP3   OH242199   5.477   1.951  15.384  0.1351 -0.2635 -0.5554
 6903TIP3    H142200   5.442   1.864  15.400 -0.4428 -0.1049 -0.9154
 6903TIP3    H242201   5.570   1.937  15.366  0.1017 -0.7706 -0.3398
 6904TIP3   OH242202   2.533   4.987  14.999 -0.1832  0.1126  0.4120
 6904TIP3    H142203   2.570   4.961  14.915 -1.6017 -2.2772  0.4722
 6904TIP3    H242204   2.456   5.040  14.977 -0.5637 -0.5259  0.1856
 6905TIP3   OH242205   4.974   0.652   0.791  0.2991  0.5375 -0.7452
 6905TIP3    H142206   5.044   0.612   0.843 -0.0499 -0.4314 -1.0051
 6905TIP3    H242207   4.913   0.688   0.856  0.9285  1.1918 -0.5159
 6906TIP3   OH242208   3.051   6.137  16.498  0.3572  0.5522  0.1953
 6906TIP3    H142209   3.057   6.218  16.449 -0.5229 -0.3140 -1.3993
 6906TIP3    H242210   3.063   6.068  16.433 -2.8461 -0.6883  0.7960
 6907TIP3   OH242211   3.219   0.690  15.765  0.0142 -0.2266 -0.0742
 6907TIP3    H142212   3.265   0.774  15.763 -0.2526 -0.1040 -2.9647
 6907TIP3    H242213   3.127   0.713  15.754 -0.1905 -0.8265  0.3773
 6908TIP3   OH242214   1.530   2.630   6.032 -0.2404 -0.4158  0.3096
 6908TIP3    H142215   1.516   2.647   6.125 -0.3472 -2.3992  0.6789
 6908TIP3    H242216   1.487   2.703   5.988 -0.6665  0.2604  1.8127
 6909TIP3   OH242217   0.367   1.068   2.720  0.1624 -0.4825  0.2782
 6909TIP3    H142218   0.284   1.068   2.672  0.0391 -0.4436  0.4933
 6909TIP3    H242219   0.343   1.085   2.811  0.0902 -3.4309  0.8571
 6910TIP3   OH242220   1.091   3.685   5.277  0.2684 -0.0066  0.0425
 6910TIP3    H142221   1.052   3.668   5.192  0.0419  0.2025  0.1016
 6910TIP3    H242222   1.016   3.689   5.337  0.4096  0.0489  0.2152
 6911TIP3   OH242223   6.475   2.338  11.978 -0.7342  0.5474  0.0761
 6911TIP3    H142224   6.389   2.311  11.948  0.7049 -1.8128 -2.1869
 6911TIP3    H242225   6.486   2.294  12.062 -1.1175 -0.4698 -0.3934
 6912TIP3   OH242226   1.997   5.399   1.786  0.0329  0.1709  0.2110
 6912TIP3    H142227   2.060   5.454   1.833 -0.8422  2.3642 -1.0938
 6912TIP3    H242228   2.010   5.311   1.822  1.1115  1.3176  2.7398
 6913TIP3   OH242229   4.884   6.592  14.244 -0.3148 -0.2088  0.3410
 6913TIP3    H142230   4.883   6.677  14.200 -1.2959 -0.3247  0.1313
 6913TIP3    H242231   4.852   6.530  14.178  1.7557 -0.9697  0.0405
 6914TIP3   OH242232   3.847   3.910  15.113 -0.0002 -0.5237 -0.1815
 6914TIP3    H142233   3.851   3.831  15.167 -0.4607  0.8804  1.9429
 6914TIP3    H242234   3.933   3.915  15.071  0.6064 -1.2560  0.9594
 6915TIP3   OH242235   0.118   2.794  16.277  0.3527  0.4779  0.2130
 6915TIP3    H142236   0.190   2.734  16.258 -0.6841 -0.7799  0.1202
 6915TIP3    H242237   0.156   2.863  16.331  2.0155  0.8300 -1.3704
 6916TIP3   OH242238   3.731   5.212   4.960 -0.3804 -0.2552  0.2651
 6916TIP3    H142239   3.766   5.289   4.916  2.4458 -1.1151  0.8797
 6916TIP3    H242240   3.728   5.144   4.892  0.4778 -0.5616  0.5268
 6917TIP3   OH242241   6.173   3.705  16.859  0.6273  0.5206  0.2684
 6917TIP3    H142242   6.178   3.783  16.915 -1.2076  1.4085 -0.7335
 6917TIP3    H242243   6.115   3.646  16.907 -2.2214  1.9012 -1.2961
 6918TIP3   OH242244   0.349   4.679  13.630  0.5452 -0.4406 -0.3835
 6918TIP3    H142245   0.414   4.748  13.633  1.2590 -1.0844 -0.9292
 6918TIP3    H242246   0.357   4.642  13.542 -0.5822 -0.4996 -0.4788
 6919TIP3   OH242247   0.436   6.115  11.094 -0.1265  0.0447 -0.6750
 6919TIP3    H142248   0.422   6.210  11.085 -1.7602 -0.2804 -1.7597
 6919TIP3    H242249   0.356   6.076  11.058  0.5516 -1.7533 -0.2536
 6920TIP3   OH242250   2.013   5.617   4.565 -0.3547  0.3914  0.5818
 6920TIP3    H142251   1.956   5.693   4.576  0.2713  0.9222  0.2022
 6920TIP3    H242252   1.996   5.588   4.475  0.8337  1.2823  0.0443
 6921TIP3   OH242253   2.284   1.231   2.356  0.4988  0.3477 -0.3148
 6921TIP3    H142254   2.253   1.199   2.272  1.5606  1.5240 -1.1834
 6921TIP3    H242255   2.368   1.186   2.370 -0.9466 -1.9023  1.4368
 6922TIP3   OH242256   2.750   1.867  15.131  0.6186 -0.4888 -0.0947
 6922TIP3    H142257   2.683   1.829  15.073  0.8601 -0.8095 -0.1666
 6922TIP3    H242258   2.823   1.887  15.073  0.4667  0.1655 -0.0685
 6923TIP3   OH242259   3.824   1.549  13.277 -0.5635 -0.4038  0.1752
 6923TIP3    H142260   3.736   1.514  13.285 -0.7313 -0.0894 -0.2699
 6923TIP3    H242261   3.819   1.613  13.206  0.1582 -0.8151 -0.2554
 6924TIP3   OH242262   1.377   0.893  16.384 -0.3643 -0.4067  0.0713
 6924TIP3    H142263   1.468   0.919  16.374 -0.4464 -0.7264 -1.6960
 6924TIP3    H242264   1.327   0.967  16.349 -0.7391 -0.7654 -0.1597
 6925TIP3   OH242265   2.394   1.921  11.377 -0.2172  0.4462 -0.2395
 6925TIP3    H142266   2.388   1.830  11.406  0.7202 -0.0803 -1.6175
 6925TIP3    H242267   2.375   1.973  11.455 -2.5325 -0.9207  0.1609
 6926TIP3   OH242268   3.229   4.609  12.656 -0.0657 -0.0202  0.1654
 6926TIP3    H142269   3.316   4.649  12.645  0.2801 -0.8095 -0.0265
 6926TIP3    H242270   3.243   4.517  12.635 -0.4847 -0.5908  2.2783
 6927TIP3   OH242271   4.554   0.769   5.767  0.2862 -0.2307  0.3912
 6927TIP3    H142272   4.537   0.677   5.752  1.7051 -0.0572 -2.5129
 6927TIP3    H242273   4.642   0.772   5.804 -0.3907 -0.1308  2.0386
 6928TIP3   OH242274   0.278   0.049   0.218 -0.1104 -0.0307 -0.2337
 6928TIP3    H142275   0.235   0.051   0.132 -0.3907  0.7763 -0.0787
 6928TIP3    H242276   0.327   0.131   0.223  0.3450 -0.3231  0.1563
 6929TIP3   OH242277   0.607   4.180   2.001  0.2927 -0.5915 -0.2177
 6929TIP3    H142278   0.561   4.105   2.039 -1.0934  0.4247  0.1592
 6929TIP3    H242279   0.537   4.236   1.967  1.0427  2.2315  2.6264
 6930TIP3   OH242280   5.786   5.266   0.479 -0.2467 -0.0254  0.5713
 6930TIP3    H142281   5.856   5.330   0.466  0.1318 -0.5192  0.1558
 6930TIP3    H242282   5.795   5.205   0.405 -0.9459 -0.2416  0.6624
 6931TIP3   OH242283   0.444   6.425   1.522  0.6092  0.3925 -0.1857
 6931TIP3    H142284   0.366   6.374   1.545  1.5588 -0.3566  1.4151
 6931TIP3    H242285   0.412   6.489   1.459 -1.5761  0.9259  1.3949
 6932TIP3   OH242286   0.255   3.372   4.882 -0.0526 -0.4467  0.3653
 6932TIP3    H142287   0.303   3.434   4.826 -2.3197  1.3648  0.3616
 6932TIP3    H242288   0.294   3.287   4.862  0.7066  0.4689 -2.3065
 6933TIP3   OH242289   1.129   6.689  15.742 -0.1546  0.3123  0.1765
 6933TIP3    H142290   1.139   6.695  15.647  1.8197  1.1532  0.4088
 6933TIP3    H242291   1.040   6.656  15.754 -0.5967  0.6045 -1.9513
 6934TIP3   OH242292   5.096   4.522   3.299  0.2106 -0.0282 -0.1378
 6934TIP3    H142293   5.169   4.466   3.325 -0.0771  0.5942  2.0566
 6934TIP3    H242294   5.021   4.486   3.345 -0.2243  1.3518  0.2471
 6935TIP3   OH242295   4.569   0.681  11.703  0.1330 -0.3757  0.3949
 6935TIP3    H142296   4.623   0.699  11.626  2.7489 -2.0321  1.7789
 6935TIP3    H242297   4.550   0.767  11.740 -1.2208  0.4470 -2.0998
 6936TIP3   OH242298   6.542   2.045   3.744  0.4794  0.0633 -0.5204
 6936TIP3    H142299   6.479   1.978   3.771  1.2156 -0.6397 -0.5252
 6936TIP3    H242300   6.495   2.128   3.756 -0.2938 -0.4227 -0.1109
 6937TIP3   OH242301   1.099   2.550  15.348  0.3586  0.0537 -0.5773
 6937TIP3    H142302   1.146   2.473  15.380 -2.0376 -0.5025  1.7998
 6937TIP3    H242303   1.046   2.517  15.275  0.9226 -0.0862 -0.9280
 6938TIP3   OH242304   1.597   4.728   3.408  0.2626 -0.2761  0.4477
 6938TIP3    H142305   1.637   4.741   3.494  0.0618  1.3160  0.3322
 6938TIP3    H242306   1.651   4.661   3.366  1.9846  0.8309  0.8176
 6939TIP3   OH242307   5.645   3.922  15.890  0.6041 -0.4250 -0.1644
 6939TIP3    H142308   5.704   3.868  15.942  0.9495  0.0877 -0.0145
 6939TIP3    H242309   5.702   3.988  15.850  0.2268 -0.3351 -0.5652
 6940TIP3   OH242310   3.350   6.590  12.420 -0.1101  0.3888  0.1811
 6940TIP3    H142311   3.361   6.670  12.473 -1.6028 -0.0545  1.1761
 6940TIP3    H242312   3.326   6.623  12.333 -0.9229  1.0274  0.6353
 6941TIP3   OH242313   2.772   0.794  12.058  0.2621 -0.2735 -0.2130
 6941TIP3    H142314   2.772   0.712  12.010 -2.2782 -1.1426  1.1665
 6941TIP3    H242315   2.864   0.821  12.061  1.4076 -4.0453  0.9792
 6942TIP3   OH242316   2.065   2.519   2.919  0.3665 -0.2734  0.1595
 6942TIP3    H142317   1.988   2.537   2.973 -0.0186 -0.3260 -0.3751
 6942TIP3    H242318   2.138   2.559   2.968  0.1810 -1.2619  1.2633
 6943TIP3   OH242319   4.093   3.541  13.753 -0.5185  0.4638  0.0709
 6943TIP3    H142320   4.117   3.463  13.702  0.9941  0.9806 -0.0547
 6943TIP3    H242321   3.998   3.538  13.760 -0.4011 -1.8480  0.8013
 6944TIP3   OH242322   6.253   0.468   1.589 -0.2039 -0.1163 -0.3748
 6944TIP3    H142323   6.286   0.413   1.660 -1.0403  0.0378  0.1314
 6944TIP3    H242324   6.278   0.557   1.613 -0.3914 -0.0767 -0.3256
 6945TIP3   OH242325   5.321   6.751   4.688 -0.4993  0.0263  0.3279
 6945TIP3    H142326   5.400   6.797   4.716 -0.4391  1.5296 -2.0708
 6945TIP3    H242327   5.268   6.744   4.767  1.0743  0.9998  1.5080
 6946TIP3   OH242328   5.900   0.084   4.500  0.4170  0.5128  0.0305
 6946TIP3    H142329   5.847   0.159   4.475  1.4226  0.4287 -2.5458
 6946TIP3    H242330   5.987   0.102   4.463  1.0210 -1.3212  0.4714
 6947TIP3   OH242331   5.621   2.264  11.637  0.1906 -0.3028 -0.3147
 6947TIP3    H142332   5.583   2.289  11.721  1.2989  2.0043 -0.4842
 6947TIP3    H242333   5.713   2.247  11.656  0.6180  0.9795 -1.2061
 6948TIP3   OH242334   1.847   0.415  14.045  0.1207 -0.1245  0.1247
 6948TIP3    H142335   1.777   0.444  14.104 -0.8330  0.6235 -1.3316
 6948TIP3    H242336   1.802   0.401  13.961  1.4806 -1.0061 -0.4663
 6949TIP3   OH242337   1.276   4.689   5.324 -0.2877  0.1730  0.6621
 6949TIP3    H142338   1.239   4.602   5.310  0.6280  0.0111 -0.8345
 6949TIP3    H242339   1.200   4.747   5.328 -0.7868 -0.3412 -0.9708
 6950TIP3   OH242340   3.480   0.276  16.977  0.1219 -0.4981  0.1775
 6950TIP3    H142341   3.461   0.328  16.899  1.5177  1.7467  1.2730
 6950TIP3    H242342   3.555   0.222  16.951  1.9899  1.8021  0.5426
 6951TIP3   OH242343   1.575   6.413   5.946 -0.2104  0.3913  0.6062
 6951TIP3    H142344   1.651   6.472   5.947  0.6168 -0.6733  1.8628
 6951TIP3    H242345   1.500   6.470   5.962  0.3784  1.3683 -0.0538
 6952TIP3   OH242346   0.208   4.566   1.306 -0.2604  0.1056  0.0529
 6952TIP3    H142347   0.259   4.607   1.237 -0.9062  2.1145  0.7308
 6952TIP3    H242348   0.166   4.639   1.352 -0.7559 -1.2536  1.8382
 6953TIP3   OH242349   5.817   4.357   2.780 -0.1522 -0.0482  0.1292
 6953TIP3    H142350   5.896   4.385   2.828  1.4308 -1.0963 -1.7918
 6953TIP3    H242351   5.830   4.264   2.764 -1.5471 -0.1182 -0.6674
 6954TIP3   OH242352   5.503   3.707   2.440 -0.2056 -0.0362 -0.0852
 6954TIP3    H142353   5.453   3.708   2.522 -0.5045 -0.0135 -0.2686
 6954TIP3    H242354   5.495   3.617   2.408 -1.3128  0.3262 -0.8430
 6955TIP3   OH242355   4.907   6.316   0.507  0.0858  0.2159 -0.1730
 6955TIP3    H142356   4.913   6.257   0.582  0.4107  2.4294  1.5815
 6955TIP3    H242357   4.998   6.336   0.486 -0.0546  1.1258  0.0828
 6956TIP3   OH242358   0.789   6.211  11.499 -0.2679 -0.3284  0.1535
 6956TIP3    H142359   0.812   6.204  11.592  2.3782 -0.5130 -0.4618
 6956TIP3    H242360   0.743   6.129  11.480  0.9738 -1.2179  0.8440
 6957TIP3   OH242361   1.299   3.439  14.927  0.3483 -0.3813  0.3162
 6957TIP3    H142362   1.229   3.383  14.895 -0.0995 -0.2772  1.0983
 6957TIP3    H242363   1.270   3.528  14.908  0.4956 -0.3597  0.1898
 6958TIP3   OH242364   2.307   4.161  14.641 -0.4005 -0.2062  0.5264
 6958TIP3    H142365   2.362   4.088  14.612 -0.6076 -0.7628  1.4832
 6958TIP3    H242366   2.256   4.186  14.564 -0.7029 -1.4322  0.3176
 6959TIP3   OH242367   5.673   3.050   3.841  0.1648 -0.6425  0.2330
 6959TIP3    H142368   5.728   3.125   3.818 -0.9489  0.2810  0.5626
 6959TIP3    H242369   5.736   2.983   3.870  1.1682  0.1466 -0.0858
 6960TIP3   OH242370   2.911   6.137  14.141  0.1922 -0.3567  0.0242
 6960TIP3    H142371   2.993   6.143  14.191  1.2027 -0.2645 -1.5937
 6960TIP3    H242372   2.871   6.223  14.150  1.3615  0.2990 -0.9705
 6961TIP3   OH242373   1.505   5.242   2.293 -0.1138 -0.2069  0.0805
 6961TIP3    H142374   1.581   5.254   2.350  1.1048  1.2328 -1.8099
 6961TIP3    H242375   1.480   5.150   2.307  1.4557 -0.4793  1.3251
 6962TIP3   OH242376   4.959   5.143   2.580  0.3108  0.2632 -0.2546
 6962TIP3    H142377   4.913   5.145   2.664 -1.5431 -0.0758 -1.2357
 6962TIP3    H242378   4.960   5.050   2.557 -1.4067  0.5955 -1.7735
 6963TIP3   OH242379   5.773   6.254  16.262 -0.1784 -0.1296  0.2422
 6963TIP3    H142380   5.719   6.315  16.211 -0.9281 -0.4360  0.6727
 6963TIP3    H242381   5.853   6.243  16.209  0.9889  2.9919  1.2196
 6964TIP3   OH242382   1.829   1.745  16.432  0.0896 -0.0484 -0.0181
 6964TIP3    H142383   1.816   1.743  16.527 -2.0081 -1.7239 -0.2988
 6964TIP3    H242384   1.910   1.695  16.418  1.1165  1.3176  0.9745
 6965TIP3   OH242385   2.235   4.195  12.264  0.0958  0.0131 -0.6646
 6965TIP3    H142386   2.213   4.102  12.258  1.1929 -0.3067  0.2063
 6965TIP3    H242387   2.295   4.209  12.191 -1.3905  0.4450 -1.8425
 6966TIP3   OH242388   1.774   4.272   5.037  0.0951 -0.3660  0.2477
 6966TIP3    H142389   1.782   4.363   5.066  1.7732 -0.9867  1.7530
 6966TIP3    H242390   1.858   4.232   5.057  0.0358 -1.7808 -2.1656
 6967TIP3   OH242391   6.063   4.702  11.397  0.0475  0.2520 -0.2223
 6967TIP3    H142392   6.116   4.674  11.322 -0.6084 -1.5784 -0.0354
 6967TIP3    H242393   5.977   4.719  11.360 -0.0361  0.2537 -0.0275
 6968TIP3   OH242394   6.816   3.658   6.385  0.2175  0.0201 -0.1203
 6968TIP3    H142395   6.814   3.576   6.434  1.3334 -0.0009 -0.1123
 6968TIP3    H242396   6.903   3.661   6.347  0.5572  1.7389  0.7648
 6969TIP3   OH242397   5.515   5.913  14.319  0.1679 -0.5606 -0.2252
 6969TIP3    H142398   5.462   5.968  14.378 -1.4032  1.7250 -3.6024
 6969TIP3    H242399   5.472   5.828  14.319 -1.0926  0.0753  0.2196
 6970TIP3   OH242400   2.308   4.965  15.348  0.4395 -0.0311  0.3286
 6970TIP3    H142401   2.284   5.057  15.359 -0.4973 -0.0779 -1.2831
 6970TIP3    H242402   2.382   4.953  15.408  1.6452  2.2031 -0.6318
 6971TIP3   OH242403   0.399   6.621   6.030 -0.1186  0.3106 -0.2836
 6971TIP3    H142404   0.327   6.586   6.082  0.9066 -2.2791 -0.5403
 6971TIP3    H242405   0.383   6.716   6.027 -2.5091 -0.0175  1.1371
 6972TIP3   OH242406   4.253   6.221  16.229 -0.1942 -0.2033  0.1356
 6972TIP3    H142407   4.242   6.265  16.313  0.8793 -1.1662  0.7959
 6972TIP3    H242408   4.335   6.255  16.194 -0.3025 -0.2959 -0.2120
 6973TIP3   OH242409   4.495   4.401   3.336  0.8475 -0.1446 -0.5841
 6973TIP3    H142410   4.500   4.312   3.370  1.4079 -0.5135 -1.5935
 6973TIP3    H242411   4.586   4.424   3.317  0.6493  0.4263 -0.8632
 6974TIP3   OH242412   6.415   1.841   6.284 -0.3664  0.0829  0.5767
 6974TIP3    H142413   6.327   1.828   6.248 -0.5256 -0.2543  1.0739
 6974TIP3    H242414   6.416   1.787   6.363 -0.2214  1.2522  1.3854
 6975TIP3   OH242415   2.668   6.044   3.594  0.9167  0.4828 -0.0748
 6975TIP3    H142416   2.672   6.115   3.658  0.0382  0.4225  0.0519
 6975TIP3    H242417   2.753   6.046   3.550  1.1475  1.1693  0.4040
 6976TIP3   OH242418   2.591   3.678   0.740  0.1282  0.6816 -0.2216
 6976TIP3    H142419   2.578   3.690   0.646  0.4732  0.9208 -0.2383
 6976TIP3    H242420   2.685   3.661   0.750 -0.0858 -0.4163 -0.0298
 6977TIP3   OH242421   0.249   0.130   3.761  0.0474  0.2287  0.0813
 6977TIP3    H142422   0.186   0.198   3.738 -1.1793 -0.6824  0.6670
 6977TIP3    H242423   0.331   0.159   3.723 -1.2438  0.2668 -2.8128
 6978TIP3   OH242424   2.378   1.139   2.877  0.1950  0.1690 -0.6654
 6978TIP3    H142425   2.400   1.103   2.963  0.2933  2.2419  0.1930
 6978TIP3    H242426   2.284   1.124   2.868  0.5210 -1.7913 -1.0526
 6979TIP3   OH242427   4.579   3.567  10.656 -0.3334  0.1217  0.4679
 6979TIP3    H142428   4.521   3.491  10.645  0.6573 -0.2566 -2.5343
 6979TIP3    H242429   4.659   3.531  10.693  0.1453 -0.3060 -0.9781
 6980TIP3   OH242430   0.664   3.245   4.812 -0.2842  0.2317  0.7456
 6980TIP3    H142431   0.661   3.340   4.821 -1.6219  0.1705  1.0147
 6980TIP3    H242432   0.705   3.230   4.726  1.0355  1.0169  1.2344
 6981TIP3   OH242433   4.119   0.815   1.604 -0.4393 -0.1717  0.3145
 6981TIP3    H142434   4.202   0.859   1.623 -0.9464  0.5334  0.9435
 6981TIP3    H242435   4.061   0.841   1.676 -1.1633 -0.7646 -0.0468
 6982TIP3   OH242436   2.471   4.745   6.274 -0.2520 -0.3997 -0.2652
 6982TIP3    H142437   2.436   4.830   6.298  0.3620 -0.7078  1.8327
 6982TIP3    H242438   2.401   4.683   6.298 -0.5581 -0.5301 -1.4569
 6983TIP3   OH242439   5.174   4.225   4.051 -0.0064  0.3175 -0.1023
 6983TIP3    H142440   5.255   4.264   4.085  1.4308 -3.4299  1.0741
 6983TIP3    H242441   5.192   4.209   3.958  1.0447 -1.3959  0.3668
 6984TIP3   OH242442   1.624   0.527  13.716 -0.5992  0.0550 -0.5630
 6984TIP3    H142443   1.561   0.522  13.644 -0.5471 -0.8201 -0.5462
 6984TIP3    H242444   1.651   0.437  13.731 -1.7243  0.0405  1.5375
 6985TIP3   OH242445   5.057   1.648  14.173 -0.0875 -0.4466  0.0023
 6985TIP3    H142446   5.141   1.692  14.161 -0.3728  0.2321  0.5015
 6985TIP3    H242447   5.024   1.634  14.084  0.1621  0.0243 -0.1653
 6986TIP3   OH242448   0.241   3.498   2.207  0.0546  0.0456 -0.2710
 6986TIP3    H142449   0.240   3.411   2.245 -1.2172  0.6315  1.0698
 6986TIP3    H242450   0.151   3.529   2.216  0.4649  1.4444 -0.8598
 6987TIP3   OH242451   0.629   3.509  17.268  0.2183  0.2208  0.0095
 6987TIP3    H142452   0.581   3.426  17.272 -2.3703  1.3703 -4.1188
 6987TIP3    H242453   0.566   3.574  17.299  0.0662  1.3719 -2.5854
 6988TIP3   OH242454   5.828   1.215   1.475  0.4444 -0.0128 -0.1854
 6988TIP3    H142455   5.869   1.252   1.552  1.5696 -0.2637 -0.6598
 6988TIP3    H242456   5.737   1.244   1.480  0.8541  1.1739  0.4718
 6989TIP3   OH242457   6.030   4.475  12.033  0.5558  0.0458 -0.4166
 6989TIP3    H142458   6.061   4.490  11.943  0.4796  0.3707 -0.3862
 6989TIP3    H242459   6.082   4.534  12.087  0.7239 -0.2766 -0.2247
 6990TIP3   OH242460   1.204   5.905  14.822 -0.0150  0.4581 -0.5917
 6990TIP3    H142461   1.166   5.990  14.800  0.3220  1.1477  1.4103
 6990TIP3    H242462   1.295   5.925  14.847  0.4738 -0.6668 -1.4254
 6991TIP3   OH242463   3.157   0.042   4.462 -0.5012 -0.0942  0.7009
 6991TIP3    H142464   3.187   0.013   4.548  0.1582  1.8345  1.1559
 6991TIP3    H242465   3.228   0.097   4.430 -1.0519 -0.2308 -0.7821
 6992TIP3   OH242466   5.821   0.473  17.165 -0.3934  0.3285 -0.3064
 6992TIP3    H142467   5.739   0.522  17.175  0.3812  1.4127  0.8362
 6992TIP3    H242468   5.870   0.493  17.245  1.0157 -0.2659 -1.0204
 6993TIP3   OH242469   6.315   0.152  13.626 -0.5412  0.1080 -0.4462
 6993TIP3    H142470   6.363   0.088  13.575 -1.1573 -0.8762  0.1899
 6993TIP3    H242471   6.377   0.181  13.693 -0.5771 -0.5738 -0.1135
 6994TIP3   OH242472   0.534   1.519   2.020  0.0793  0.1398  0.3017
 6994TIP3    H142473   0.577   1.587   2.072 -1.2122  0.0469  1.5172
 6994TIP3    H242474   0.547   1.546   1.929  1.8709  0.6098  0.6715
 6995TIP3   OH242475   1.884   3.835  15.247  0.0507 -0.4445 -0.3048
 6995TIP3    H142476   1.800   3.847  15.203  0.2576  2.0338 -0.0757
 6995TIP3    H242477   1.926   3.921  15.244  1.4753 -1.0073  1.8593
 6996TIP3   OH242478   0.493   2.152   4.662  0.0830  0.1006 -0.3879
 6996TIP3    H142479   0.562   2.217   4.654 -0.5740  0.7618 -0.7559
 6996TIP3    H242480   0.441   2.161   4.582 -1.1891  0.5104  0.4593
 6997TIP3   OH242481   3.157   3.223  12.294  0.0739 -0.1346 -0.0166
 6997TIP3    H142482   3.128   3.132  12.298 -1.3881  0.3057 -0.2836
 6997TIP3    H242483   3.076   3.274  12.302  0.8213  1.1317 -0.4475
 6998TIP3   OH242484   2.881   1.642   6.274 -0.1016 -0.7684  0.2124
 6998TIP3    H142485   2.841   1.685   6.198 -0.3937 -0.0404  0.7666
 6998TIP3    H242486   2.816   1.653   6.343  0.1389 -1.4856  0.5481
 6999TIP3   OH242487   0.861   4.643   0.499  0.7636  0.0125 -0.1023
 6999TIP3    H142488   0.769   4.672   0.501  0.8116  0.8818 -4.2750
 6999TIP3    H242489   0.857   4.549   0.514 -0.7957  0.0742 -0.0094
 7000TIP3   OH242490   0.681   1.151  14.388  0.4764 -0.9032  0.1937
 7000TIP3    H142491   0.655   1.241  14.408  0.6535 -0.9338  0.5763
 7000TIP3    H242492   0.599   1.106  14.366  0.6915 -0.0048 -2.6276
 7001TIP3   OH242493   5.622   4.975   3.070 -0.0858  0.3253 -0.4530
 7001TIP3    H142494   5.684   5.043   3.096  0.5659 -0.5385  0.2719
 7001TIP3    H242495   5.536   5.011   3.092  0.3903 -0.0338  2.1278
 7002TIP3   OH242496   4.547   2.759   5.897 -0.5124 -0.4480 -0.3434
 7002TIP3    H142497   4.473   2.737   5.954  1.0171 -1.4081  1.3193
 7002TIP3    H242498   4.571   2.848   5.923 -0.4910 -0.4829 -0.2432
 7003TIP3   OH242499   4.319   3.599   3.934 -0.1021 -0.5129  0.2031
 7003TIP3    H142500   4.258   3.624   4.003  0.7074  0.9384  0.3960
 7003TIP3    H242501   4.356   3.681   3.902 -0.0632 -1.2027 -1.5916
 7004TIP3   OH242502   2.512   2.634  12.167 -0.4034 -0.2699 -0.1074
 7004TIP3    H142503   2.561   2.559  12.198  0.0722 -0.8158 -2.0751
 7004TIP3    H242504   2.565   2.669  12.095 -3.3800 -1.5239 -3.0237
 7005TIP3   OH242505   2.091   0.881   6.168 -0.2705  0.1405  0.3311
 7005TIP3    H142506   2.030   0.822   6.212 -0.7042  1.0175  0.8980
 7005TIP3    H242507   2.119   0.832   6.090  0.2511 -1.2762  1.3919
 7006TIP3   OH242508   6.582   3.288  16.988 -0.2424  0.0466  0.9349
 7006TIP3    H142509   6.552   3.235  16.914  0.4691 -0.9987  1.3842
 7006TIP3    H242510   6.504   3.335  17.018 -1.0068 -1.1962  0.9044
 7007TIP3   OH242511   3.655   6.669  16.030 -0.2728  0.3236  0.3190
 7007TIP3    H142512   3.563   6.693  16.042 -0.2549  1.5464 -1.6926
 7007TIP3    H242513   3.659   6.637  15.940  1.4662  1.2862  0.0457
 7008TIP3   OH242514   3.968   0.054  12.891 -0.2180 -0.4281  0.1483
 7008TIP3    H142515   4.004  -0.031  12.918 -1.4974 -0.9260  0.3537
 7008TIP3    H242516   4.043   0.105  12.863  0.5981 -1.5512  0.2752
 7009TIP3   OH242517   5.109   3.413   1.133 -0.5011  0.5394 -0.6058
 7009TIP3    H142518   5.177   3.358   1.172 -0.7192  0.5073 -0.2718
 7009TIP3    H242519   5.035   3.355   1.121  0.3336 -0.0641 -3.2816
 7010TIP3   OH242520   1.118   5.472  12.171 -0.6196 -0.2189 -0.4666
 7010TIP3    H142521   1.044   5.501  12.224  0.4524  0.4344  0.6994
 7010TIP3    H242522   1.192   5.470  12.232  0.9985  2.0973 -2.2399
 7011TIP3   OH242523   4.847   4.212  14.441  0.3900  0.6272  0.3124
 7011TIP3    H142524   4.904   4.285  14.418  0.4352  0.0317 -1.5471
 7011TIP3    H242525   4.891   4.135  14.403  0.0142 -0.2721  1.6865
 7012TIP3   OH242526   6.602   0.489   1.535 -0.2887  0.0319 -0.7608
 7012TIP3    H142527   6.690   0.523   1.523  0.1068 -0.9863 -0.7717
 7012TIP3    H242528   6.592   0.482   1.630 -0.5214  0.5521 -0.7431
 7013TIP3   OH242529   5.799   4.516  12.504 -0.2268 -0.3620  0.0766
 7013TIP3    H142530   5.776   4.471  12.585  0.6418  0.0142  0.5449
 7013TIP3    H242531   5.829   4.602  12.532 -1.4830  0.3719 -0.7795
 7014TIP3   OH242532   6.199   1.549   5.338 -0.0653 -0.1515  0.5720
 7014TIP3    H142533   6.193   1.614   5.267 -1.4893  0.3619  1.1292
 7014TIP3    H242534   6.205   1.465   5.293 -1.5649  0.1202 -0.1785
 7015TIP3   OH242535   4.323   2.671  10.276  0.2733  0.2548 -0.3677
 7015TIP3    H142536   4.239   2.709  10.299 -1.0531 -1.4250 -2.2707
 7015TIP3    H242537   4.340   2.605  10.343  1.4981  2.5471  1.6507
 7016TIP3   OH242538   4.495   4.169  11.852 -0.5364  0.3821 -0.5933
 7016TIP3    H142539   4.569   4.228  11.871 -0.6458 -0.2766  2.1379
 7016TIP3    H242540   4.518   4.128  11.769  1.8191  0.7659 -0.1713
 7017TIP3   OH242541   4.631   2.188   2.541  0.6640  0.3082  0.8469
 7017TIP3    H142542   4.680   2.179   2.460 -1.5835  0.2150 -0.5668
 7017TIP3    H242543   4.578   2.108   2.546 -0.1798  0.9055  1.7386
 7018TIP3   OH242544   6.515   4.692   0.970 -0.3129  0.4036  0.3579
 7018TIP3    H142545   6.452   4.737   0.914  0.6284  0.6718 -0.5099
 7018TIP3    H242546   6.509   4.600   0.943  1.6700  0.8447 -1.7271
 7019TIP3   OH242547   5.430   4.292  13.066  0.7210 -0.1249 -0.6200
 7019TIP3    H142548   5.358   4.337  13.023 -0.6020 -2.6166 -1.1294
 7019TIP3    H242549   5.401   4.280  13.156  0.9848 -0.1209 -0.5327
 7020TIP3   OH242550   0.105   1.989   1.722 -0.1901  0.0062 -0.4901
 7020TIP3    H142551   0.141   2.077   1.712 -0.5585 -0.0144 -2.0194
 7020TIP3    H242552   0.050   1.976   1.645 -1.1858 -1.0708  0.3778
 7021TIP3   OH242553   3.851   0.685  14.127  0.4188  0.1193 -0.4753
 7021TIP3    H142554   3.873   0.714  14.038 -0.3712 -1.9998 -1.4029
 7021TIP3    H242555   3.793   0.753  14.161  2.1707  1.8656 -0.8787
 7022TIP3   OH242556   1.832   2.279  11.652 -0.2346  0.3762  0.6792
 7022TIP3    H142557   1.833   2.200  11.598  0.0353  1.3341 -0.7399
 7022TIP3    H242558   1.749   2.322  11.631  0.3329  1.2775  0.2319
 7023TIP3   OH242559   3.205   6.387   2.560  0.3086  0.1175 -0.2514
 7023TIP3    H142560   3.296   6.363   2.576  0.5188  1.0727  0.0358
 7023TIP3    H242561   3.155   6.334   2.622  0.6757 -0.3748 -0.3782
 7024TIP3   OH242562   3.686   6.397   5.369 -0.4941 -0.2623  0.2628
 7024TIP3    H142563   3.613   6.336   5.377 -0.0329 -0.7095  1.1768
 7024TIP3    H242564   3.734   6.387   5.451 -0.4941  1.4355  0.4937
 7025TIP3   OH242565   4.362   1.283  16.763  0.0519  0.2397  0.1528
 7025TIP3    H142566   4.419   1.359  16.771 -0.8326  0.9329 -0.1846
 7025TIP3    H242567   4.362   1.245  16.851  1.9090 -0.4108 -0.0911
 7026TIP3   OH242568   6.251   3.706   3.811  0.1790 -0.3497 -0.6089
 7026TIP3    H142569   6.279   3.685   3.722 -0.5143 -1.8042 -0.5002
 7026TIP3    H242570   6.198   3.630   3.838 -0.2185  0.4038  0.7685
 7027TIP3   OH242571   1.151   2.192  16.518 -0.1498 -0.6034  0.1907
 7027TIP3    H142572   1.129   2.175  16.610 -3.0385 -0.6461 -0.4469
 7027TIP3    H242573   1.165   2.105  16.481  0.3913 -0.6273  0.4539
 7028TIP3   OH242574   6.211   3.711  10.691  0.3677  0.7223 -0.7478
 7028TIP3    H142575   6.194   3.669  10.776  0.4007 -0.2972 -1.2441
 7028TIP3    H242576   6.182   3.647  10.626  2.0553  0.7522 -1.5418
 7029TIP3   OH242577   6.234   5.476   6.033 -0.0558 -0.1931  0.9634
 7029TIP3    H142578   6.281   5.425   5.967  0.3071  0.0127  1.0640
 7029TIP3    H242579   6.165   5.417   6.063  1.8849 -1.6017  2.8859
 7030TIP3   OH242580   6.317   1.977   3.892  0.1061 -0.2689 -0.0134
 7030TIP3    H142581   6.273   1.918   3.954  2.7954 -1.4124  0.8836
 7030TIP3    H242582   6.285   1.949   3.806 -0.6149 -1.3437  0.5828
 7031TIP3   OH242583   2.410   3.983  16.540  0.2132 -0.2072  0.1392
 7031TIP3    H142584   2.345   4.052  16.536 -0.0387 -0.4494  0.0789
 7031TIP3    H242585   2.403   3.937  16.456  0.8241  0.0967 -0.0882
 7032TIP3   OH242586   6.640   4.900  12.696  0.2799  0.0958 -0.3418
 7032TIP3    H142587   6.614   4.817  12.735 -1.1578  1.5192  1.8517
 7032TIP3    H242588   6.718   4.926  12.746 -1.3810  1.7770  1.4415
 7033TIP3   OH242589   4.917   0.686   2.123  0.1948 -0.2561  0.0699
 7033TIP3    H142590   4.994   0.727   2.160  0.1176 -1.7998  2.0282
 7033TIP3    H242591   4.846   0.708   2.183 -0.0259 -2.4112  0.6419
 7034TIP3   OH242592   1.190   4.313  15.049 -0.5147  0.4392  0.1000
 7034TIP3    H142593   1.200   4.323  14.955 -1.3644 -1.3557 -0.2077
 7034TIP3    H242594   1.266   4.261  15.076 -1.1712 -0.5213  0.1195
 7035TIP3   OH242595   6.268   3.072  14.515 -0.1099 -0.2154  0.7286
 7035TIP3    H142596   6.306   3.153  14.480  1.1556 -1.2125 -0.2120
 7035TIP3    H242597   6.185   3.100  14.554 -0.5766  1.2350 -1.2579
 7036TIP3   OH242598   6.726   4.812  16.815 -0.0228 -0.3659  0.3961
 7036TIP3    H142599   6.676   4.745  16.862  0.3512 -0.3560  0.8059
 7036TIP3    H242600   6.795   4.839  16.876 -1.0493  1.4489  0.8006
 7037TIP3   OH242601   0.162   5.570  13.570 -0.1406  0.5105 -0.1372
 7037TIP3    H142602   0.232   5.565  13.635 -0.2801  1.6318  0.1119
 7037TIP3    H242603   0.183   5.648  13.518  0.2972 -0.7275 -1.8257
 7038TIP3   OH242604   1.147   4.780  15.917 -0.5314  0.4273  0.3795
 7038TIP3    H142605   1.139   4.845  15.846 -1.5863  1.3165  1.3060
 7038TIP3    H242606   1.233   4.741  15.902 -0.3372  1.2594 -0.8527
 7039TIP3   OH242607   0.735   2.039  12.833  0.1563  0.3703 -1.0316
 7039TIP3    H142608   0.810   2.015  12.779  0.5998  2.1456 -1.2631
 7039TIP3    H242609   0.681   1.960  12.837  1.2649 -0.4625 -2.1547
 7040TIP3   OH242610   5.047   2.718   2.581  0.4264 -0.1575  0.5127
 7040TIP3    H142611   5.056   2.670   2.663  1.4543 -1.8103 -0.5281
 7040TIP3    H242612   5.129   2.701   2.534 -0.3517  0.3304 -1.0773
 7041TIP3   OH242613   2.988   4.930   0.465  0.2996  0.0622  0.2213
 7041TIP3    H142614   2.940   4.860   0.510 -1.7734  0.3921 -1.4151
 7041TIP3    H242615   3.025   4.982   0.536 -1.9773 -0.0746  1.5563
 7042TIP3   OH242616   2.688   4.077   4.253 -0.3384  0.2304  0.2508
 7042TIP3    H142617   2.671   4.155   4.305 -2.3238 -1.2152  1.8249
 7042TIP3    H242618   2.678   4.004   4.314  1.4312 -1.2911 -1.1963
 7043TIP3   OH242619   2.271   5.057   2.774 -0.0016 -0.2824 -0.1075
 7043TIP3    H142620   2.227   5.054   2.689 -1.1860  0.2656  0.4735
 7043TIP3    H242621   2.326   5.135   2.770  2.9249 -2.3367 -1.7750
 7044TIP3   OH242622   5.179   4.698   1.892 -0.1220  0.3154 -0.2052
 7044TIP3    H142623   5.254   4.661   1.845 -1.0150 -1.5401 -0.2046
 7044TIP3    H242624   5.212   4.716   1.980  0.5346  0.2370 -0.4360
 7045TIP3   OH242625   0.132   5.277   5.163  0.3795 -0.4488 -0.1608
 7045TIP3    H142626   0.206   5.293   5.105  1.2315 -1.6115  0.5807
 7045TIP3    H242627   0.171   5.257   5.248 -0.7830 -0.8353  0.2974
 7046TIP3   OH242628   5.683   5.564  10.906 -0.0406 -0.4577  0.5604
 7046TIP3    H142629   5.776   5.546  10.917 -0.0235  1.1557  3.4822
 7046TIP3    H242630   5.681   5.651  10.864 -0.2087  0.2549  2.0128
 7047TIP3   OH242631   0.032   6.483  16.683  0.4048  0.0615  0.1483
 7047TIP3    H142632   0.078   6.466  16.765 -0.1068  0.1402  0.4508
 7047TIP3    H242633   0.066   6.418  16.622  1.1926  0.3572  0.2681
 7048TIP3   OH242634   6.383   0.486   1.325 -0.1561  0.1905  0.1473
 7048TIP3    H142635   6.445   0.490   1.398 -0.7845 -2.9852  0.8964
 7048TIP3    H242636   6.303   0.449   1.363 -0.3977 -1.7581 -2.1908
 7049TIP3   OH242637   6.809   2.662   4.648  0.2432 -0.1499 -0.5029
 7049TIP3    H142638   6.847   2.731   4.702  0.7162 -0.4598 -0.4425
 7049TIP3    H242639   6.723   2.696   4.623 -0.0646 -0.1064  0.6223
 7050TIP3   OH242640   2.880   2.014   0.802 -0.4628  0.0926  0.2260
 7050TIP3    H142641   2.846   2.092   0.846 -0.6185 -0.6061  1.3684
 7050TIP3    H242642   2.972   2.010   0.829 -0.4336 -0.0707  0.0974
 7051TIP3   OH242643   0.610   3.824  12.843  0.2896  0.1025  0.6927
 7051TIP3    H142644   0.614   3.838  12.748  0.5642  0.1267  0.7094
 7051TIP3    H242645   0.699   3.840  12.874 -0.1058  1.5759  1.1464
 7052TIP3   OH242646   5.781   4.941   6.092  0.0618 -0.3085 -0.1344
 7052TIP3    H142647   5.769   5.036   6.098 -1.1674 -0.4355 -0.4700
 7052TIP3    H242648   5.692   4.906   6.085  0.5679 -1.4022 -1.2325
 7053TIP3   OH242649   5.095   4.434  12.023  0.4754 -0.3288 -0.1146
 7053TIP3    H142650   5.069   4.402  11.936 -0.0420  0.1345 -0.1231
 7053TIP3    H242651   5.038   4.508  12.041 -0.4822 -1.3887  1.3081
 7054TIP3   OH242652   5.341   0.593  14.089 -0.3216 -0.1672 -0.1391
 7054TIP3    H142653   5.405   0.622  14.154  0.0954 -1.3233 -0.0321
 7054TIP3    H242654   5.387   0.598  14.005 -0.1587 -0.7997 -0.0870
 7055TIP3   OH242655   2.196   0.501   0.360 -0.2028 -0.3323  0.0193
 7055TIP3    H142656   2.234   0.456   0.435  2.0522 -0.3795 -1.1142
 7055TIP3    H242657   2.211   0.594   0.377  0.5190 -0.3550 -0.4628
 7056TIP3   OH242658   0.023   3.015  11.742 -0.4539  0.1537  0.6447
 7056TIP3    H142659   0.107   3.013  11.697 -0.5996 -1.6691  0.4370
 7056TIP3    H242660  -0.033   2.956  11.692 -0.9212 -1.1013  2.6024
 7057TIP3   OH242661   1.912   5.803   2.921  0.4342  0.5149 -0.5504
 7057TIP3    H142662   1.916   5.733   2.855 -2.4761  0.9053 -1.2073
 7057TIP3    H242663   1.885   5.758   3.001  0.5159  0.5883 -0.4822
 7058TIP3   OH242664   3.045   2.775  10.626 -0.0037 -0.1628 -0.5254
 7058TIP3    H142665   3.117   2.781  10.690 -0.0592  0.8091 -0.5516
 7058TIP3    H242666   2.973   2.736  10.675  0.7128 -1.6593 -0.6472
 7059TIP3   OH242667   0.722   3.634  14.862  0.1164  0.0587  0.1669
 7059TIP3    H142668   0.760   3.675  14.784 -0.4494  0.2883  0.0101
 7059TIP3    H242669   0.629   3.658  14.859 -0.3757 -1.8888 -0.3350
 7060TIP3   OH242670   4.445   3.448   5.458 -0.1766  0.2955  0.2064
 7060TIP3    H142671   4.458   3.533   5.414 -0.5038 -0.4515 -1.3623
 7060TIP3    H242672   4.533   3.421   5.484  0.3894 -0.5363 -2.4390
 7061TIP3   OH242673   3.803   2.949  10.664  0.3408  0.3125 -0.2478
 7061TIP3    H142674   3.889   2.984  10.686  0.7940 -0.6157 -0.5120
 7061TIP3    H242675   3.753   2.956  10.745  1.7609 -2.3810  0.9130
 7062TIP3   OH242676   4.363   6.631   1.255 -0.3031  0.2125 -0.3257
 7062TIP3    H142677   4.402   6.571   1.319 -1.1288 -0.5492 -0.5238
 7062TIP3    H242678   4.403   6.606   1.172  0.4634  0.9292 -0.1734
 7063TIP3   OH242679   5.852   5.001  14.344 -0.4675  0.3000 -0.2897
 7063TIP3    H142680   5.799   5.034  14.416 -0.8614  0.8606 -0.8324
 7063TIP3    H242681   5.792   4.950  14.290 -0.7013  1.7311 -1.4308
 7064TIP3   OH242682   6.009   1.320   0.610 -0.1816  0.5761  0.4070
 7064TIP3    H142683   6.065   1.246   0.588 -0.7343 -0.2994  1.8648
 7064TIP3    H242684   5.922   1.281   0.622 -0.9986  1.8266 -1.2446
 7065TIP3   OH242685   4.231   6.227  14.676  0.7486  0.1257 -0.3317
 7065TIP3    H142686   4.158   6.185  14.630  0.4255 -2.0611  2.0688
 7065TIP3    H242687   4.211   6.320  14.671 -2.3747 -0.4303  0.4660
 7066TIP3   OH242688   2.143   5.378   2.107  0.1920  0.3846  0.5960
 7066TIP3    H142689   2.049   5.394   2.116  0.1600  0.4592  0.1128
 7066TIP3    H242690   2.175   5.448   2.050  0.0154 -1.3495 -1.7222
 7067TIP3   OH242691   4.908   1.841  15.738  0.1114 -0.1370  0.0782
 7067TIP3    H142692   4.973   1.816  15.672 -1.9410 -0.8520 -1.7195
 7067TIP3    H242693   4.943   1.807  15.820  1.8392 -0.8114 -0.9071
 7068TIP3   OH242694   4.271   0.968  16.357  0.3258  0.4636 -0.4844
 7068TIP3    H142695   4.202   0.955  16.292  1.2810  0.1102 -1.4372
 7068TIP3    H242696   4.286   0.882  16.395 -0.3239  0.6931  0.3200
 7069TIP3   OH242697   5.615   2.615  12.260  0.1107 -0.5703  0.2760
 7069TIP3    H142698   5.534   2.635  12.213  0.9812 -1.0205 -1.4660
 7069TIP3    H242699   5.591   2.549  12.324 -0.6252 -1.7826 -1.2153
 7070TIP3   OH242700   0.224   0.433   2.028 -0.2057 -0.5581  0.1692
 7070TIP3    H142701   0.251   0.497   2.094  0.5167 -1.4681  0.7639
 7070TIP3    H242702   0.287   0.442   1.957 -0.5334 -0.1067 -0.0651
 7071TIP3   OH242703   5.932   2.393  16.024 -0.0877  0.2894  0.1660
 7071TIP3    H142704   5.939   2.460  16.092  0.3759  1.3836 -0.9351
 7071TIP3    H242705   5.838   2.376  16.016 -0.4275  2.5790 -1.1924
 7072TIP3   OH242706   3.873   2.373   4.760  0.1842 -0.7278 -0.8751
 7072TIP3    H142707   3.850   2.438   4.694 -3.9768  0.4469  1.5306
 7072TIP3    H242708   3.857   2.289   4.718  0.0696 -0.0427 -2.2028
 7073TIP3   OH242709   2.793   0.432   4.825  0.2695 -0.0701  0.2720
 7073TIP3    H142710   2.774   0.396   4.912 -0.8080  0.1354  0.1338
 7073TIP3    H242711   2.888   0.440   4.823  0.3825 -1.0188  1.0569
 7074TIP3   OH242712   4.873   6.162   4.345  0.7306  0.2643 -0.3659
 7074TIP3    H142713   4.839   6.099   4.282 -0.0907 -0.0786  0.3991
 7074TIP3    H242714   4.868   6.117   4.429 -0.7329  1.6465  0.3273
 7075TIP3   OH242715   2.872   5.937   4.360 -0.8063 -0.0349  0.4449
 7075TIP3    H142716   2.870   5.983   4.276  0.7263 -1.2569 -0.2814
 7075TIP3    H242717   2.804   5.979   4.412 -1.0949  1.4022 -1.0625
 7076TIP3   OH242718   3.023   5.162  15.161 -0.2698  0.1117  0.5652
 7076TIP3    H142719   2.927   5.160  15.156 -0.2923 -1.1437  1.3945
 7076TIP3    H242720   3.047   5.076  15.196  1.2185  0.0755 -0.5252
 7077TIP3   OH242721   1.564   0.381   5.162  0.1602 -0.2126  0.0711
 7077TIP3    H142722   1.591   0.393   5.253  0.9845 -1.9736  0.0835
 7077TIP3    H242723   1.492   0.318   5.166 -1.8660  1.9956 -0.2610
 7078TIP3   OH242724   6.338   4.840  11.135  0.5288 -0.6194  0.2599
 7078TIP3    H142725   6.362   4.848  11.042 -2.1243  0.5676 -0.3783
 7078TIP3    H242726   6.395   4.903  11.180  0.0247  0.7473 -0.9450
 7079TIP3   OH242727   3.840   2.163  12.385 -0.1339 -0.1345  0.3801
 7079TIP3    H142728   3.778   2.099  12.350 -1.1655  0.7536  0.5384
 7079TIP3    H242729   3.896   2.185  12.311 -1.4101  0.6817 -0.3750
 7080TIP3   OH242730   3.260   1.927  11.984  0.0791  0.7787 -0.0532
 7080TIP3    H142731   3.237   1.997  11.923 -0.0584  0.6629 -0.1378
 7080TIP3    H242732   3.179   1.911  12.033 -0.4319 -0.5424 -1.2699
 7081TIP3   OH242733   0.249   5.363   6.173  0.2373 -0.1202  0.0345
 7081TIP3    H142734   0.277   5.424   6.105  0.3856  0.4534  0.6079
 7081TIP3    H242735   0.156   5.383   6.186  0.5252  0.6343  0.9060
 7082TIP3   OH242736   3.276   3.202  15.997 -0.3372 -0.1913  0.0181
 7082TIP3    H142737   3.203   3.261  16.011  0.2291  0.5818 -0.2319
 7082TIP3    H242738   3.353   3.259  15.996  0.2582 -0.9861  0.2256
 7083TIP3   OH242739   0.783   1.816   0.925  0.3923 -0.0900 -0.4020
 7083TIP3    H142740   0.723   1.793   0.854 -1.3597 -0.5590  1.1815
 7083TIP3    H242741   0.737   1.884   0.975  2.4120  1.6145 -0.7981
 7084TIP3   OH242742   0.852   4.834   2.809  0.0736 -0.1368  0.5710
 7084TIP3    H142743   0.900   4.751   2.814  0.5937  0.1311 -0.0395
 7084TIP3    H242744   0.886   4.885   2.883  0.4139 -0.1113  0.3958
 7085TIP3   OH242745   5.160   3.187   2.389 -0.1223  0.5381  0.6693
 7085TIP3    H142746   5.199   3.241   2.457  0.5284  1.2845 -0.2831
 7085TIP3    H242747   5.097   3.132   2.435 -0.8519  2.1478  1.6604
 7086TIP3   OH242748   0.084   6.224   5.727  0.1353  0.1425  0.4906
 7086TIP3    H142749  -0.004   6.188   5.741 -0.1717  0.8403  0.3608
 7086TIP3    H242750   0.094   6.226   5.632 -0.3345  1.5649  0.4647
 7087TIP3   OH242751   0.542   4.891   0.939 -0.2344 -0.0522 -0.2179
 7087TIP3    H142752   0.488   4.848   0.873 -0.7532 -1.1695  0.9053
 7087TIP3    H242753   0.503   4.978   0.950 -0.7892 -0.2514 -0.6113
 7088TIP3   OH242754   6.306   2.989   2.992  0.0550  0.2696  0.0324
 7088TIP3    H142755   6.395   3.019   2.976  0.9682 -1.7476  1.1255
 7088TIP3    H242756   6.293   2.918   2.930 -0.3971 -0.1403  0.5912
 7089TIP3   OH242757   6.688   1.793  14.563 -0.0487 -0.4599  0.4324
 7089TIP3    H142758   6.733   1.874  14.540  2.7763 -1.8214  1.0119
 7089TIP3    H242759   6.682   1.744  14.481 -2.3086  0.5331 -0.0455
 7090TIP3   OH242760   5.574   5.261   0.244 -0.5246  0.4138  0.5541
 7090TIP3    H142761   5.570   5.314   0.165  0.0320 -0.4481 -0.0698
 7090TIP3    H242762   5.622   5.182   0.217 -4.2604 -1.9600  0.5546
 7091TIP3   OH242763   3.576   1.977   3.800 -0.8477  0.1951 -0.1975
 7091TIP3    H142764   3.533   2.043   3.854 -1.8402 -1.1084  0.6452
 7091TIP3    H242765   3.510   1.952   3.736 -0.4728  0.0364 -0.5220
 7092TIP3   OH242766   1.273   1.586  12.135 -0.2304 -0.4755  0.2907
 7092TIP3    H142767   1.303   1.674  12.156  0.0497  0.2109 -2.7475
 7092TIP3    H242768   1.345   1.529  12.163  0.2146  0.3830  0.9224
 7093TIP3   OH242769   2.185   2.349   1.495 -0.2175 -0.3048 -0.2996
 7093TIP3    H142770   2.208   2.296   1.571 -2.0381  0.3825  0.7735
 7093TIP3    H242771   2.254   2.415   1.490 -0.1830 -0.2527  0.8619
 7094TIP3   OH242772   4.055   4.594   4.311  0.0955 -0.9000  0.7441
 7094TIP3    H142773   4.037   4.529   4.243 -0.4978  0.0307  0.0055
 7094TIP3    H242774   4.008   4.672   4.283  0.3057 -0.3332  1.9426
 7095TIP3   OH242775   4.090   6.256   4.303  0.0595 -0.6001  0.7576
 7095TIP3    H142776   4.029   6.279   4.232 -1.1001  2.3597  2.6080
 7095TIP3    H242777   4.037   6.204   4.364  0.0706 -0.1735  1.1351
 7096TIP3   OH242778   0.571   1.851   2.417  0.3697 -0.0056  0.4485
 7096TIP3    H142779   0.537   1.783   2.475 -0.3178 -1.5129 -1.6411
 7096TIP3    H242780   0.526   1.835   2.333  2.5256  1.0835 -0.9538
 7097TIP3   OH242781   4.982   0.534  13.847 -0.0110  0.0552  0.1142
 7097TIP3    H142782   4.922   0.475  13.801 -0.6519 -0.3738  1.4809
 7097TIP3    H242783   5.063   0.529  13.796 -1.0393  0.4421 -1.5948
 7098TIP3   OH242784   5.729   5.177   5.838  0.3875 -0.4950  0.6175
 7098TIP3    H142785   5.648   5.127   5.832  0.0490  0.0115  0.9237
 7098TIP3    H242786   5.731   5.208   5.929  0.6537 -0.0626  0.4645
 7099TIP3   OH242787   0.473   6.031   2.316  0.2862 -0.0175  0.1869
 7099TIP3    H142788   0.522   5.992   2.388  0.6764  0.6463  0.2896
 7099TIP3    H242789   0.384   6.041   2.350  0.4074  0.0519  0.4866
 7100TIP3   OH242790   4.652   0.477  14.072  0.1420 -0.1464  0.0744
 7100TIP3    H142791   4.557   0.464  14.064 -0.2003  2.2773 -0.0303
 7100TIP3    H242792   4.687   0.437  13.992 -0.7879 -1.0830  0.1185
 7101TIP3   OH242793   6.252   2.312  13.525  0.3853 -0.0226  0.3789
 7101TIP3    H142794   6.247   2.389  13.581  0.9051  0.4608 -0.2437
 7101TIP3    H242795   6.161   2.289  13.508  0.2279  0.1908  0.9213
 7102TIP3   OH242796   3.008   0.898   4.466 -0.1186  0.4084  0.3918
 7102TIP3    H142797   2.949   0.859   4.529 -0.3412  0.6942  0.3616
 7102TIP3    H242798   2.956   0.965   4.422  0.2952  0.8327  0.5392
 7103TIP3   OH242799   1.404   0.174  12.246 -0.1615  0.1574  0.1534
 7103TIP3    H142800   1.486   0.127  12.264 -1.7177 -2.1027  1.5891
 7103TIP3    H242801   1.345   0.107  12.211 -1.0056  2.0532 -2.1655
 7104TIP3   OH242802   2.663   1.336  12.507 -0.3636  0.0762 -0.5877
 7104TIP3    H142803   2.593   1.327  12.441  0.1340 -1.0669 -0.9737
 7104TIP3    H242804   2.619   1.323  12.591 -1.1249  2.1959 -0.6418
 7105TIP3   OH242805   0.546   4.197   6.030  0.5558 -0.7641 -0.3565
 7105TIP3    H142806   0.539   4.175   6.123  1.9811  0.6448  0.1174
 7105TIP3    H242807   0.640   4.194   6.012  0.3887  0.2592 -1.4267
 7106TIP3   OH242808   2.956   5.826  12.045  0.4451  0.3724 -0.2588
 7106TIP3    H142809   3.036   5.878  12.032  0.1965  0.2636 -2.4418
 7106TIP3    H242810   2.884   5.887  12.030  0.1504 -0.5840 -3.1202
 7107TIP3   OH242811   0.439   6.119   4.729 -0.2698  0.3293  0.0414
 7107TIP3    H142812   0.474   6.083   4.647  0.8007 -0.2116  0.7384
 7107TIP3    H242813   0.516   6.145   4.779 -0.9263  0.6051  0.9166
 7108TIP3   OH242814   0.257   1.110   5.771  0.1468 -0.1910  0.2027
 7108TIP3    H142815   0.247   1.159   5.689  0.1315 -1.2498 -0.4297
 7108TIP3    H242816   0.186   1.046   5.771 -1.1299  1.1559  2.0387
 7109TIP3   OH242817   4.846   4.683  12.317 -0.2374  0.5630 -0.2287
 7109TIP3    H142818   4.882   4.721  12.397  1.3345  3.0757 -2.0947
 7109TIP3    H242819   4.903   4.608  12.298  0.1404  0.7166  0.2925
 7110TIP3   OH242820   6.509   3.695   5.589 -0.0100 -0.9444 -0.3185
 7110TIP3    H142821   6.581   3.729   5.640 -0.6078  0.7793 -0.5941
 7110TIP3    H242822   6.544   3.617   5.546  0.5248 -2.3398  2.5924
 7111TIP3   OH242823   1.667   4.765   2.264  0.2204 -0.2779  0.3002
 7111TIP3    H142824   1.618   4.687   2.237 -0.4260  0.4977 -0.7834
 7111TIP3    H242825   1.706   4.798   2.183  0.6734  0.3980  0.7917
 7112TIP3   OH242826   5.161   3.471  16.790 -0.0424  0.2583  0.7194
 7112TIP3    H142827   5.143   3.534  16.860  2.8037  0.3019  1.4762
 7112TIP3    H242828   5.131   3.387  16.825 -2.6645  0.9326  0.2158
 7113TIP3   OH242829   6.357   2.051   2.157 -0.2167 -0.6654  0.5191
 7113TIP3    H142830   6.301   1.981   2.190 -0.0046 -0.8725  0.4483
 7113TIP3    H242831   6.350   2.121   2.221  1.0962 -1.5085  1.6068
 7114TIP3   OH242832   4.942   1.342  10.328  0.2337  0.6431  0.3756
 7114TIP3    H142833   5.020   1.308  10.286 -1.4658 -0.6499 -1.8316
 7114TIP3    H242834   4.895   1.387  10.258 -1.6667  0.2013  1.3385
 7115TIP3   OH242835   6.819   3.024  15.662 -0.3809  0.2003 -0.5647
 7115TIP3    H142836   6.908   3.044  15.690 -0.6954 -0.6077  1.0564
 7115TIP3    H242837   6.804   3.082  15.587  1.0620  1.2087 -0.0937
 7116TIP3   OH242838   4.999   2.155   5.101 -0.3524 -0.4178 -0.0865
 7116TIP3    H142839   4.998   2.243   5.139  2.2586  0.4322 -1.8995
 7116TIP3    H242840   5.020   2.098   5.175 -0.2183  0.6778  0.7430
 7117TIP3   OH242841   6.331   2.510   0.829 -0.0742  0.5887 -0.2736
 7117TIP3    H142842   6.374   2.520   0.915 -0.5702 -0.1804  0.0699
 7117TIP3    H242843   6.286   2.593   0.815 -1.1044  0.2413  0.8421
 7118TIP3   OH242844   4.319   1.034   5.335  0.3396 -0.5292 -0.2768
 7118TIP3    H142845   4.361   1.022   5.420 -2.3002 -0.4452  1.0792
 7118TIP3    H242846   4.392   1.032   5.273  2.1108 -2.9418  1.7302
 7119TIP3   OH242847   6.350   6.334   3.774  0.0030 -0.1215 -0.6961
 7119TIP3    H142848   6.290   6.286   3.716  0.6360 -1.4440 -0.2604
 7119TIP3    H242849   6.430   6.282   3.774  0.7579  1.0304 -0.3494
 7120TIP3   OH242850   0.648   1.180  11.644 -0.6605  0.3917  0.1404
 7120TIP3    H142851   0.715   1.219  11.586  0.7506  0.5178  1.8077
 7120TIP3    H242852   0.608   1.256  11.687 -1.9572  0.3182 -0.8950
 7121TIP3   OH242853   6.160   5.637  16.242  0.4556 -0.3879  0.0802
 7121TIP3    H142854   6.084   5.593  16.281  1.0050 -1.2072  0.2201
 7121TIP3    H242855   6.226   5.569  16.233  1.4419  0.4755  0.6394
 7122TIP3   OH242856   2.241   2.382   4.668 -0.5917  0.1162  0.3608
 7122TIP3    H142857   2.165   2.325   4.671 -0.3668 -0.3275 -1.6755
 7122TIP3    H242858   2.316   2.323   4.677 -0.4507  0.5301  2.1556
 7123TIP3   OH242859   5.276   5.939   3.121  0.0887 -0.6748  0.2362
 7123TIP3    H142860   5.312   5.856   3.089  0.7669 -0.0060 -0.7573
 7123TIP3    H242861   5.288   5.934   3.216  2.7781 -0.5312 -0.0315
 7124TIP3   OH242862   1.709   5.517  11.500  0.0786 -0.1511 -0.6667
 7124TIP3    H142863   1.649   5.586  11.471 -0.5907  0.2085  1.4849
 7124TIP3    H242864   1.658   5.465  11.562  2.0949  0.3367  1.4318
 7125TIP3   OH242865   3.826   1.621   6.006 -0.4717  0.4410  0.3737
 7125TIP3    H142866   3.768   1.550   6.032  0.7652 -1.0927 -0.9486
 7125TIP3    H242867   3.874   1.643   6.086 -0.7220 -0.3343  0.7465
 7126TIP3   OH242868   4.374   3.964   3.026  0.9431  0.2719 -0.0294
 7126TIP3    H142869   4.386   4.057   3.044  1.6000  0.6657 -2.2904
 7126TIP3    H242870   4.382   3.922   3.112 -1.6359  2.4581  1.3800
 7127TIP3   OH242871   2.478   0.182  13.356 -0.1982  0.2036 -0.4024
 7127TIP3    H142872   2.494   0.098  13.399 -0.0522  0.7053  0.5564
 7127TIP3    H242873   2.462   0.242  13.429  1.8973  1.4847 -0.9681
 7128TIP3   OH242874   6.078   5.862   4.573 -0.2111 -0.4311 -0.5136
 7128TIP3    H142875   6.156   5.895   4.529 -0.4248  1.4910  0.5158
 7128TIP3    H242876   6.081   5.902   4.660 -2.9853  0.6252 -0.8691
 7129TIP3   OH242877   3.561   3.267  16.959 -0.8823  0.0051 -0.5273
 7129TIP3    H142878   3.576   3.345  17.012 -0.9172  0.3824 -1.0674
 7129TIP3    H242879   3.492   3.219  17.005 -0.9354  0.3438 -0.2570
 7130TIP3   OH242880   0.087   3.969  14.723 -0.1442  0.5351 -0.0883
 7130TIP3    H142881   0.084   4.008  14.636 -2.8502  1.2184  0.2693
 7130TIP3    H242882   0.042   3.885  14.713  3.7457 -1.6568 -0.3626
 7131TIP3   OH242883   6.717   0.987  12.718  0.1636 -0.4884 -0.4064
 7131TIP3    H142884   6.782   0.935  12.670  0.8976 -1.0680  1.1971
 7131TIP3    H242885   6.636   0.974  12.669  0.6468 -2.0360 -0.8320
 7132TIP3   OH242886   3.524   4.049   1.030  0.1016 -0.3673  0.2195
 7132TIP3    H142887   3.489   4.027   1.116  0.1012  0.9081  0.5595
 7132TIP3    H242888   3.453   4.027   0.969  0.2043 -1.5301  0.5147
 7133TIP3   OH242889   5.296   5.176   0.121  0.0075 -0.1514 -0.1043
 7133TIP3    H142890   5.344   5.258   0.121 -0.0633 -0.1020 -1.2449
 7133TIP3    H242891   5.364   5.109   0.135  0.3321 -0.0410 -1.1228
 7134TIP3   OH242892   2.416   5.196   1.488  0.0058 -0.1474  0.1666
 7134TIP3    H142893   2.380   5.281   1.512 -0.1974 -0.7597  2.1930
 7134TIP3    H242894   2.456   5.209   1.402  0.4760  2.1353  0.7028
 7135TIP3   OH242895   1.153   0.399  16.618  0.1940  0.7894 -0.5297
 7135TIP3    H142896   1.186   0.422  16.705  1.8113 -2.8206 -0.0822
 7135TIP3    H242897   1.175   0.306  16.609 -2.5987  0.3629 -3.6212
 7136TIP3   OH242898   4.780   2.748  13.768  0.7530 -0.1442  0.1465
 7136TIP3    H142899   4.741   2.730  13.682  2.5510  0.4542 -0.8227
 7136TIP3    H242900   4.784   2.843  13.774  2.7175 -0.1982 -0.0896
 7137TIP3   OH242901   5.642   6.182   3.154 -0.4833  0.2894 -0.2725
 7137TIP3    H142902   5.718   6.195   3.097  0.0469 -1.6045 -0.0124
 7137TIP3    H242903   5.568   6.178   3.094  0.2865 -3.7033 -1.0668
 7138TIP3   OH242904   2.643   4.553  15.624 -0.0015  0.1164 -0.5822
 7138TIP3    H142905   2.586   4.591  15.557  1.0129  1.9811 -0.4093
 7138TIP3    H242906   2.610   4.464  15.635 -1.8980  0.6629 -1.6055
 7139TIP3   OH242907   4.524   5.435   3.548 -0.5980 -0.5438 -0.4180
 7139TIP3    H142908   4.429   5.432   3.560 -0.6495  1.3513 -0.3223
 7139TIP3    H242909   4.555   5.352   3.584 -2.0262 -0.3605  1.2806
 7140TIP3   OH242910   1.686   0.976   4.877 -0.0784  0.2063 -0.4336
 7140TIP3    H142911   1.698   0.898   4.932  0.1544  0.1014 -0.6339
 7140TIP3    H242912   1.708   0.947   4.789  1.6720  0.9207 -0.2585
 7141TIP3   OH242913   6.765   3.810  12.744 -0.6190 -0.1346  0.3449
 7141TIP3    H142914   6.745   3.885  12.687 -0.0545 -1.1353 -1.2220
 7141TIP3    H242915   6.799   3.849  12.824  0.7678  1.2587 -0.8968
 7142TIP3   OH242916   4.308   1.839  13.320  0.6488 -0.0868 -0.0635
 7142TIP3    H142917   4.343   1.769  13.266  0.3735 -0.6145  0.4392
 7142TIP3    H242918   4.227   1.803  13.357 -0.0958  0.8866 -0.7058
 7143TIP3   OH242919   3.504   5.213   2.045  0.1227  0.2029  0.1186
 7143TIP3    H142920   3.465   5.297   2.071 -0.2787 -0.4258  1.5638
 7143TIP3    H242921   3.593   5.236   2.018  0.0171  1.0907  0.5019
 7144TIP3   OH242922   4.942   5.079   4.180 -0.8281  0.4855 -0.2316
 7144TIP3    H142923   4.968   5.028   4.256 -0.1526 -2.0818 -2.1290
 7144TIP3    H242924   4.979   5.166   4.196  0.7332 -0.4774  1.5810
 7145TIP3   OH242925   1.320   1.516  16.101 -0.2220  0.6115 -0.2111
 7145TIP3    H142926   1.309   1.552  16.012 -0.1302  0.9467 -0.0881
 7145TIP3    H242927   1.231   1.492  16.128 -0.3771  1.3546 -0.0420
 7146TIP3   OH242928   0.162   2.008   6.757  0.4954  0.1835 -0.2692
 7146TIP3    H142929   0.186   2.093   6.719  1.6328 -0.3909 -0.8583
 7146TIP3    H242930   0.190   2.014   6.849  0.9323  0.3069 -0.4090
 7147TIP3   OH242931   1.952   3.320  11.987 -0.3336 -0.4692 -0.2022
 7147TIP3    H142932   1.914   3.338  12.073  1.0001 -1.4936  0.6156
 7147TIP3    H242933   2.025   3.262  12.005 -1.0602 -2.0502 -2.2087
 7148TIP3   OH242934   2.205   1.771  13.140 -0.9542  0.6905 -0.6683
 7148TIP3    H142935   2.229   1.781  13.232  0.5359 -1.0769 -0.8232
 7148TIP3    H242936   2.257   1.837  13.095  2.3863 -1.8257 -0.7683
 7149TIP3   OH242937   6.732   4.526  13.472 -0.0841 -0.3912  0.2498
 7149TIP3    H142938   6.694   4.498  13.554  3.5960  0.5414  2.3941
 7149TIP3    H242939   6.755   4.445  13.426  1.2495 -0.9337  1.8460
 7150TIP3   OH242940   5.743   2.199  14.333 -0.9858  0.1550  0.1607
 7150TIP3    H142941   5.763   2.214  14.425  1.3740 -1.0622 -0.1085
 7150TIP3    H242942   5.690   2.119  14.333  1.2694 -1.3940  0.3152
 7151TIP3   OH242943   3.355   6.586  14.045  0.0006  0.6387  0.0962
 7151TIP3    H142944   3.350   6.572  13.951  1.1031  0.1399  0.1042
 7151TIP3    H242945   3.342   6.680  14.057  0.6385  0.8152 -0.6156
 7152TIP3   OH242946   5.263   1.970  13.009  0.4011 -0.1432  0.0591
 7152TIP3    H142947   5.317   1.998  13.083 -0.9513  0.0849  0.9810
 7152TIP3    H242948   5.321   1.915  12.956  1.3856 -0.3304  1.3027
 7153TIP3   OH242949   2.033   0.124   5.956  0.0682  0.5183  0.1805
 7153TIP3    H142950   2.062   0.093   6.042  1.2864 -1.0516 -0.7570
 7153TIP3    H242951   2.115   0.135   5.907 -0.6967 -0.1644 -1.2679
 7154TIP3   OH242952   6.440   1.875  14.052 -0.0131  0.2081  0.0215
 7154TIP3    H142953   6.395   1.848  14.132 -1.7495 -0.7786 -1.2524
 7154TIP3    H242954   6.523   1.827  14.054 -0.9733 -1.4932  0.1821
 7155TIP3   OH242955   0.847   1.997  12.027 -0.6008 -0.0295  0.3002
 7155TIP3    H142956   0.759   2.025  12.055 -0.1328  1.1609  0.6280
 7155TIP3    H242957   0.894   2.079  12.013  0.4909 -0.6687  0.2137
 7156TIP3   OH242958   4.251   0.924   4.403 -0.3756 -0.2117  0.0967
 7156TIP3    H142959   4.229   0.839   4.364  0.1862  0.2206 -1.2172
 7156TIP3    H242960   4.337   0.911   4.441  0.2625  0.0875 -1.2003
 7157TIP3   OH242961   5.668   2.008  14.702  0.1479 -0.4729 -0.1277
 7157TIP3    H142962   5.619   2.085  14.730 -0.4609 -0.8115 -0.2643
 7157TIP3    H242963   5.757   2.040  14.688 -0.0413  0.1473  0.0818
 7158TIP3   OH242964   6.633   1.586  13.765 -0.3358 -0.2702 -0.3216
 7158TIP3    H142965   6.665   1.550  13.682 -0.3545 -1.9761  0.3823
 7158TIP3    H242966   6.705   1.638  13.798  0.6166 -1.6180 -0.2234
 7159TIP3   OH242967   6.392   4.965   0.700 -0.1654  0.1428 -0.1039
 7159TIP3    H142968   6.358   4.883   0.734 -1.9257  0.1772 -1.7020
 7159TIP3    H242969   6.391   5.025   0.775 -2.8601 -0.1061  0.0960
 7160TIP3   OH242970   2.561   3.374  15.949  0.1375 -0.4261  0.3787
 7160TIP3    H142971   2.480   3.414  15.917  0.1826 -0.9684 -0.4315
 7160TIP3    H242972   2.587   3.428  16.023  0.7037  1.5705 -1.2569
 7161TIP3   OH242973   2.649   3.451  11.408 -0.3155  0.5714  0.0443
 7161TIP3    H142974   2.668   3.538  11.374 -1.5781  1.5206  1.7013
 7161TIP3    H242975   2.605   3.467  11.491 -0.0094 -1.6630  0.6585
 7162TIP3   OH242976   5.310   1.365   1.993 -0.0422  0.0622  0.5117
 7162TIP3    H142977   5.289   1.272   1.995 -0.0104  0.0580  0.6369
 7162TIP3    H242978   5.225   1.409   1.983 -0.0380  0.0104  0.2415
 7163TIP3   OH242979   2.835   6.058   3.246 -0.1496  0.4507 -0.5078
 7163TIP3    H142980   2.836   6.104   3.331  0.2663 -0.6336  0.0887
 7163TIP3    H242981   2.898   6.106   3.193 -0.9979  1.6331 -0.4790
 7164TIP3   OH242982   3.446   0.361   5.228 -0.0381 -0.3566 -0.6074
 7164TIP3    H142983   3.453   0.415   5.150 -1.2863  1.8717  0.8007
 7164TIP3    H242984   3.367   0.309   5.214  0.0045 -0.3112 -1.0315
 7165TIP3   OH242985   4.480   0.281   0.592  0.4326  0.4323  0.0882
 7165TIP3    H142986   4.474   0.206   0.533  0.7652  0.0261  0.5654
 7165TIP3    H242987   4.552   0.259   0.651  0.3681  1.0182  0.3868
 7166TIP3   OH242988   2.119   0.472   5.010 -0.1676  0.0553  0.5618
 7166TIP3    H142989   2.139   0.566   5.007 -2.1683  0.4768 -0.5762
 7166TIP3    H242990   2.032   0.468   5.050 -0.3953 -1.2641 -0.0685
 7167TIP3   OH242991   3.798   2.231  14.057  0.4524 -0.3278 -0.8388
 7167TIP3    H142992   3.758   2.162  14.003  2.4108 -2.4107  0.3320
 7167TIP3    H242993   3.877   2.256  14.009 -0.7533  1.8640 -1.7652
 7168TIP3   OH242994   2.167   5.809  16.394  0.3248 -0.1624 -0.4631
 7168TIP3    H142995   2.077   5.811  16.361 -0.1725  0.5592  0.9259
 7168TIP3    H242996   2.209   5.884  16.351  0.1459 -0.2218 -0.7442
 7169TIP3   OH242997   2.533   2.603   2.178 -0.7926 -0.4593  0.6882
 7169TIP3    H142998   2.514   2.640   2.092 -1.2718 -1.1285  0.5082
 7169TIP3    H242999   2.448   2.580   2.214 -0.4471 -2.2288  0.4190
 7170TIP3   OH243000   4.235   6.054   1.316  0.0062  0.0184  0.0334
 7170TIP3    H143001   4.317   6.083   1.276  0.8817 -2.5865 -0.1860
 7170TIP3    H243002   4.243   5.958   1.319 -2.9466 -0.2622  0.2091
 7171TIP3   OH243003   1.217   3.471  16.971  0.5301  0.5362 -0.2126
 7171TIP3    H143004   1.212   3.547  16.913 -1.1361 -0.0141 -0.8316
 7171TIP3    H243005   1.285   3.416  16.933  1.8741  1.8077  0.3490
 7172TIP3   OH243006   1.702   1.449  13.321  0.1732 -0.1003 -0.5155
 7172TIP3    H143007   1.638   1.428  13.254 -1.1361 -2.4165  1.3966
 7172TIP3    H243008   1.755   1.369  13.330  0.2686  0.1453  1.2491
 7173TIP3   OH243009   4.720   1.669  13.100 -0.2509 -0.4758  0.3904
 7173TIP3    H143010   4.738   1.738  13.036  0.2837 -0.5226  0.4869
 7173TIP3    H243011   4.794   1.672  13.160 -1.4179  0.4473  1.7953
 7174TIP3   OH243012   6.234   2.997  14.067  0.3574 -0.7283 -0.6409
 7174TIP3    H143013   6.273   2.951  14.142 -1.2007 -1.9850 -0.5845
 7174TIP3    H243014   6.302   2.995  14.000  1.9688  0.8669  0.8999
 7175TIP3   OH243015   0.994   5.300  11.324  0.3451 -0.1484  0.4012
 7175TIP3    H143016   0.944   5.220  11.337 -1.2877  1.0100  1.4074
 7175TIP3    H243017   0.944   5.368  11.370  1.8075  1.4082 -0.2418
 7176TIP3   OH243018   5.649   4.316   5.211 -0.6345  0.4602 -0.2492
 7176TIP3    H143019   5.728   4.366   5.232 -1.8419  2.0544  0.5397
 7176TIP3    H243020   5.615   4.288   5.296 -0.4344 -1.0103 -0.6330
 7177TIP3   OH243021   0.577   0.399  13.233 -0.1353 -0.0768 -0.1708
 7177TIP3    H143022   0.503   0.425  13.288  1.2343  0.0177  1.6762
 7177TIP3    H243023   0.577   0.304  13.237 -0.2566 -0.0811 -0.2870
 7178TIP3   OH243024   4.727   6.694  12.088 -0.7654  0.2113  0.3542
 7178TIP3    H143025   4.677   6.705  12.008  0.7889  1.7645 -0.4466
 7178TIP3    H243026   4.721   6.601  12.108 -4.2748  0.4058  0.5383
 7179TIP3   OH243027   6.370   1.570  13.749  0.2177 -0.1908 -0.5283
 7179TIP3    H143028   6.350   1.638  13.684 -1.2049 -1.4570 -1.4582
 7179TIP3    H243029   6.464   1.577  13.763  0.5008  0.3385 -2.4854
 7180TIP3   OH243030   2.955   4.330   1.730  0.0223  0.0692  0.0071
 7180TIP3    H143031   2.923   4.326   1.640 -0.1437  0.1296  0.0643
 7180TIP3    H243032   3.012   4.253   1.739  0.0482  0.0698 -0.1519
 7181TIP3   OH243033   3.463   1.127   3.698  0.0851  0.2213  0.7062
 7181TIP3    H143034   3.419   1.209   3.678  0.6700  0.6222  1.0412
 7181TIP3    H243035   3.445   1.112   3.791  0.0636  0.0224  0.6709
 7182TIP3   OH243036   2.751   1.812  12.411 -0.1631 -0.7880  0.5428
 7182TIP3    H143037   2.730   1.766  12.329  0.4945 -1.1109  0.5459
 7182TIP3    H243038   2.719   1.901  12.397 -0.3424 -0.9250  0.0522
 7183TIP3   OH243039   5.712   5.886  16.126 -0.0568  0.3743 -0.2720
 7183TIP3    H143040   5.787   5.943  16.107 -1.8168  2.4650 -1.0838
 7183TIP3    H243041   5.702   5.833  16.047 -0.3565  1.1562 -0.7692
 7184TIP3   OH243042   1.284   5.492   0.920 -0.6447 -0.4783 -0.6647
 7184TIP3    H143043   1.308   5.409   0.879 -1.1971 -1.3836  0.8048
 7184TIP3    H243044   1.195   5.509   0.890  0.3135  0.8278 -2.8824
 7185TIP3   OH243045   6.477   4.096  16.100 -0.0031 -0.6248 -0.0453
 7185TIP3    H143046   6.410   4.060  16.159  0.7881  0.6839  1.7136
 7185TIP3    H243047   6.560   4.066  16.138  0.7061  3.1029  1.5976
 7186TIP3   OH243048   2.875   0.670  16.284  0.0158  0.0041  0.5310
 7186TIP3    H143049   2.788   0.648  16.253 -0.1774  1.7924 -0.2604
 7186TIP3    H243050   2.928   0.679  16.205 -0.4004  4.2357  0.6380
 7187TIP3   OH243051   3.850   6.053  15.805 -0.4555 -0.0937 -0.2219
 7187TIP3    H143052   3.859   6.147  15.819  0.0031 -0.0992 -0.4740
 7187TIP3    H243053   3.856   6.014  15.893  2.0348 -0.1047 -0.3539
 7188TIP3   OH243054   3.319   2.954  13.858  0.1001  0.0015 -0.7263
 7188TIP3    H143055   3.395   2.900  13.883  0.4338 -0.7963 -3.3390
 7188TIP3    H243056   3.293   2.921  13.772 -3.7648 -0.2890  0.4651
 7189TIP3   OH243057   4.029   4.426   5.380  0.1322  0.5221  0.3511
 7189TIP3    H143058   3.965   4.360   5.354  1.6280 -0.8396  0.1027
 7189TIP3    H243059   4.081   4.384   5.447  3.0193  0.3699 -1.8968
 7190TIP3   OH243060   3.517   0.404  14.958  0.0157 -0.1770  0.5874
 7190TIP3    H143061   3.581   0.413  14.888  0.4808 -0.6727  0.9484
 7190TIP3    H243062   3.432   0.400  14.913  0.4006 -1.7595 -0.0282
 7191TIP3   OH243063   5.629   3.365  14.255 -0.6880 -1.1170 -0.5449
 7191TIP3    H143064   5.616   3.306  14.180  0.1618 -2.6725  0.4956
 7191TIP3    H243065   5.544   3.369  14.298 -1.1642 -0.2779 -1.5248
 7192TIP3   OH243066   5.976   2.565  11.621 -0.7937  0.0878 -0.0891
 7192TIP3    H143067   5.951   2.627  11.553 -0.6274 -0.4215 -0.6126
 7192TIP3    H243068   6.071   2.557  11.613 -0.7934 -0.1020  0.0961
 7193TIP3   OH243069   4.490   4.280   4.313  0.1043  0.4883  0.1509
 7193TIP3    H143070   4.401   4.302   4.340 -0.2897 -1.8034  0.8419
 7193TIP3    H243071   4.505   4.333   4.235 -1.7312  1.1663  0.2359
 7194TIP3   OH243072   2.721   4.085  14.602  0.0549 -0.0955 -0.2002
 7194TIP3    H143073   2.773   4.076  14.522 -0.8055 -1.0238 -0.6640
 7194TIP3    H243074   2.642   4.035  14.585 -0.6220  0.6011  0.8293
 7195TIP3   OH243075   1.938   3.093   4.290  0.6671  0.3135  0.0302
 7195TIP3    H143076   1.873   3.052   4.234  0.7726 -1.5379  1.2273
 7195TIP3    H243077   2.019   3.090   4.240  0.2898  0.7166 -0.6128
 7196TIP3   OH243078   1.031   3.866  12.783 -0.2040 -0.0970 -0.5696
 7196TIP3    H143079   1.008   3.932  12.717 -2.3885  0.0015  0.2310
 7196TIP3    H243080   0.968   3.881  12.854  2.0179 -0.2777  1.4948
 7197TIP3   OH243081   4.029   0.740  15.341 -0.1685 -0.5357  0.3204
 7197TIP3    H143082   3.942   0.731  15.303 -0.1690 -0.2645  0.2563
 7197TIP3    H243083   4.088   0.709  15.272 -0.1496  0.2403 -0.0151
 7198TIP3   OH243084   0.237   2.885   0.967  0.8205  0.1139 -0.3384
 7198TIP3    H143085   0.326   2.863   0.996  1.4651  1.1942 -1.4672
 7198TIP3    H243086   0.250   2.931   0.884 -0.8996 -1.2020 -1.3501
 7199TIP3   OH243087   0.036   4.412  14.913  0.3584  0.1202 -0.4951
 7199TIP3    H143088   0.003   4.468  14.983  1.0349 -0.7851  0.5662
 7199TIP3    H243089   0.130   4.429  14.911  0.5951 -1.0923 -0.0470
 7200TIP3   OH243090   5.562   0.886  11.039  0.5074  0.1705  0.3157
 7200TIP3    H143091   5.494   0.953  11.051 -0.0170 -0.4180  0.6036
 7200TIP3    H243092   5.595   0.903  10.950 -1.0519 -0.4855 -0.4096
 7201TIP3   OH243093   2.967   0.222   2.393 -0.3436 -0.1093 -0.4628
 7201TIP3    H143094   2.957   0.277   2.316 -2.2700  0.3298  0.0748
 7201TIP3    H243095   2.879   0.215   2.429  0.4450 -0.7079  1.4129
 7202TIP3   OH243096   1.607   1.359   3.999  0.1951 -0.5803 -0.0082
 7202TIP3    H143097   1.603   1.431   4.062 -0.4517 -1.6711  1.2393
 7202TIP3    H243098   1.606   1.401   3.914  0.3613  0.9070  0.7096
 7203TIP3   OH243099   6.147   1.810   4.444  0.4917 -0.0014  0.1336
 7203TIP3    H143100   6.082   1.848   4.385 -0.1110 -0.3693  0.5591
 7203TIP3    H243101   6.096   1.768   4.513  1.2189  2.2983  2.1238
 7204TIP3   OH243102   1.578   0.566  10.968  0.5822  0.6127  0.3482
 7204TIP3    H143103   1.633   0.566  10.890 -2.5240 -1.6730 -1.9605
 7204TIP3    H243104   1.594   0.480  11.008 -1.5052 -0.1939 -0.5143
 7205TIP3   OH243105   4.694   4.471  12.579 -0.2566  0.0883  0.0409
 7205TIP3    H143106   4.731   4.455  12.492 -1.2720  0.0647 -0.3962
 7205TIP3    H243107   4.662   4.562  12.574  1.0969  0.6285  0.9102
 7206TIP3   OH243108   3.569   3.738   6.704 -0.0625  0.8096 -0.1041
 7206TIP3    H143109   3.564   3.827   6.670 -0.8798  0.6364 -0.4536
 7206TIP3    H243110   3.546   3.746   6.796  0.5299  1.0550  0.0216
 7207TIP3   OH243111   5.415   1.492   5.041 -0.3216 -0.4383 -0.1075
 7207TIP3    H143112   5.383   1.533   4.961 -0.7492  0.5958  0.5811
 7207TIP3    H243113   5.493   1.543   5.065  0.4532 -1.4401 -0.4691
 7208TIP3   OH243114   4.029   3.832   2.657  0.0042  0.5225  0.6871
 7208TIP3    H143115   3.964   3.791   2.600  0.9223  0.8807 -0.6242
 7208TIP3    H243116   4.078   3.758   2.695 -0.0800  0.3148  0.3885
 7209TIP3   OH243117   5.452   2.439   1.796  0.1989  0.1398 -0.3262
 7209TIP3    H143118   5.385   2.419   1.731  0.6911 -0.3928 -0.6623
 7209TIP3    H243119   5.534   2.410   1.757  0.7914  1.8851 -0.4153
 7210TIP3   OH243120   0.770   3.091  11.354  0.4027 -0.1403 -0.0097
 7210TIP3    H143121   0.841   3.130  11.304 -0.7714  0.4330 -1.2637
 7210TIP3    H243122   0.719   3.166  11.386 -0.1594 -0.5572  0.0885
 7211TIP3   OH243123   5.483   6.392  10.396  0.3971  0.8640 -0.4953
 7211TIP3    H143124   5.448   6.454  10.461 -1.6127  0.2469 -0.9539
 7211TIP3    H243125   5.452   6.307  10.426  0.4282  0.4465 -1.6412
 7212TIP3   OH243126   3.922   2.219  16.112 -0.2878  0.4504  0.1451
 7212TIP3    H143127   3.971   2.139  16.093 -0.9494 -0.5803  2.6006
 7212TIP3    H243128   3.848   2.216  16.052  0.5073  0.0196 -0.8377
 7213TIP3   OH243129   6.365   0.144   0.735 -0.8552 -0.0365  0.3042
 7213TIP3    H143130   6.291   0.204   0.750 -0.3007  0.8441 -0.4363
 7213TIP3    H243131   6.442   0.196   0.756 -0.3369 -0.3194 -0.8612
 7214TIP3   OH243132   2.847   6.139   4.166 -0.0457  0.0362 -0.2988
 7214TIP3    H143133   2.783   6.186   4.113 -0.9206  0.2341  0.9116
 7214TIP3    H243134   2.919   6.202   4.178 -1.0146  0.9327  0.9390
 7215TIP3   OH243135   3.746   3.301   2.187 -0.1923 -0.3051 -0.0971
 7215TIP3    H143136   3.770   3.217   2.225  0.0734  0.3482  1.1796
 7215TIP3    H243137   3.794   3.304   2.104  1.2937 -0.5847  0.7353
 7216TIP3   OH243138   4.403   0.261   1.984 -0.2003  0.9034  0.8482
 7216TIP3    H143139   4.443   0.205   1.918 -4.0342 -2.8943  1.5674
 7216TIP3    H243140   4.402   0.208   2.064 -1.0628  3.1902  2.4115
 7217TIP3   OH243141   4.506   3.385   4.866 -0.3593  0.0099 -0.3253
 7217TIP3    H143142   4.591   3.363   4.904 -0.3808  1.2754  0.4800
 7217TIP3    H243143   4.476   3.461   4.915 -1.6721 -0.0231 -1.0327
 7218TIP3   OH243144   2.638   5.192  12.305 -0.7339  0.3800  0.1498
 7218TIP3    H143145   2.689   5.131  12.252 -1.7146  0.1855 -0.5779
 7218TIP3    H243146   2.579   5.235  12.242  0.9625  3.1636  0.3703
 7219TIP3   OH243147   6.583   6.564  11.511  0.7202  0.3621  0.1949
 7219TIP3    H143148   6.603   6.658  11.516 -0.7211  0.6452  1.0279
 7219TIP3    H243149   6.512   6.559  11.446  0.8895 -0.1634  0.0550
 7220TIP3   OH243150   1.311   0.896  11.237 -0.1496  0.4597 -0.4182
 7220TIP3    H143151   1.377   0.964  11.248 -0.9306  1.3555 -1.2387
 7220TIP3    H243152   1.249   0.932  11.174 -1.6787 -0.1803  0.6925
 7221TIP3   OH243153   1.679   5.079  12.430 -0.5134 -0.1827  0.3387
 7221TIP3    H143154   1.769   5.103  12.453  0.8299 -0.0179 -4.6036
 7221TIP3    H243155   1.675   4.985  12.447  1.4969 -0.7115 -1.7822
 7222TIP3   OH243156   0.732   2.685   2.566  0.6352  0.0574 -1.1098
 7222TIP3    H143157   0.742   2.596   2.534 -1.3938 -1.4877  2.3218
 7222TIP3    H243158   0.642   2.709   2.542  0.1405  0.0102  0.6749
 7223TIP3   OH243159   1.818   1.238   5.314 -0.2924  0.1949  0.5871
 7223TIP3    H143160   1.753   1.226   5.245  0.7852  1.6101 -0.6913
 7223TIP3    H243161   1.895   1.191   5.283 -1.0618 -2.5949  2.6952
 7224TIP3   OH243162   5.209   4.466  13.723 -0.2327  0.4822 -0.2341
 7224TIP3    H143163   5.241   4.460  13.813 -0.2097 -0.0578 -0.2777
 7224TIP3    H243164   5.190   4.375  13.699  0.1903  0.5758 -0.9265
 7225TIP3   OH243165   1.967   1.294   5.659  0.2900  0.2070 -0.0195
 7225TIP3    H143166   2.040   1.232   5.657  0.2640  0.1795 -0.1298
 7225TIP3    H243167   1.906   1.259   5.724  0.8001  0.7083  0.7450
 7226TIP3   OH243168   4.459   2.660  16.074  0.1618 -0.5494  0.6334
 7226TIP3    H143169   4.492   2.612  16.150  0.3142  1.3417  1.8026
 7226TIP3    H243170   4.520   2.733  16.063 -0.7929  0.1344 -0.2742
 7227TIP3   OH243171   6.121   5.656  14.345 -0.3564 -0.2038  0.7111
 7227TIP3    H143172   6.045   5.715  14.337  0.3759  0.6053 -0.4035
 7227TIP3    H243173   6.082   5.570  14.363 -1.6121  0.0023 -0.8290
 7228TIP3   OH243174   6.383   2.489  14.487  0.6971  0.4399 -0.1181
 7228TIP3    H143175   6.433   2.432  14.546  0.8196  0.6020 -0.0652
 7228TIP3    H243176   6.400   2.453  14.400  0.6283  0.2851 -0.0693
 7229TIP3   OH243177   4.062   5.478   4.723 -0.0101  0.1024 -0.3758
 7229TIP3    H143178   4.024   5.544   4.782  0.1754  0.1686 -0.3286
 7229TIP3    H243179   4.135   5.524   4.681  0.5355 -0.2770  0.1530
 7230TIP3   OH243180   5.274   4.089   5.709 -0.7102  0.5970 -0.0799
 7230TIP3    H143181   5.256   4.139   5.789  0.6948  3.3706 -1.3941
 7230TIP3    H243182   5.360   4.050   5.724 -0.8240  0.4116  0.0919
 7231TIP3   OH243183   4.862   3.374  11.718 -0.0715  0.6167 -0.0920
 7231TIP3    H143184   4.813   3.305  11.762  0.7413  1.1122  1.6415
 7231TIP3    H243185   4.824   3.379  11.630 -0.8972 -1.2384  0.1510
 7232TIP3   OH243186   2.462   0.335  11.574  0.0466 -0.1860 -0.3823
 7232TIP3    H143187   2.399   0.402  11.549  2.2773  2.3387  0.4292
 7232TIP3    H243188   2.533   0.344  11.510  1.2575 -0.4378  0.9026
 7233TIP3   OH243189   3.140   2.149   0.537 -0.1540  0.0087  0.2963
 7233TIP3    H143190   3.181   2.128   0.621  0.6920 -0.8535 -0.3183
 7233TIP3    H243191   3.072   2.083   0.526  0.1431 -0.2611  0.0325
 7234TIP3   OH243192   5.853   6.816   6.778 -0.4027 -0.4367 -0.2642
 7234TIP3    H143193   5.809   6.742   6.820 -0.7093 -0.0579  0.0947
 7234TIP3    H243194   5.939   6.820   6.820 -0.4991 -0.4082 -0.0654
 7235TIP3   OH243195   4.132   0.688   2.036  0.3503 -0.9428 -0.4679
 7235TIP3    H143196   4.126   0.597   2.009 -0.3928 -1.2326  0.6295
 7235TIP3    H243197   4.141   0.684   2.132 -0.6360  0.1511 -0.3191
 7236TIP3   OH243198   3.874   4.829  16.846 -0.0655  0.3285  0.0856
 7236TIP3    H143199   3.863   4.769  16.772  2.2110  0.2139 -0.1780
 7236TIP3    H243200   3.786   4.836  16.884 -0.6753 -1.9148 -0.8307
 7237TIP3   OH243201   6.732   3.386  17.207 -0.7206  0.3959  0.4376
 7237TIP3    H143202   6.749   3.300  17.245  0.9693 -0.1358 -1.4443
 7237TIP3    H243203   6.658   3.372  17.148  0.2727 -0.0466 -0.7263
 7238TIP3   OH243204   2.860   1.049  16.195  0.4874  0.1451 -0.2194
 7238TIP3    H143205   2.783   1.039  16.138  0.1094 -0.2458  0.3476
 7238TIP3    H243206   2.829   1.022  16.282  1.0805  0.6524  0.1555
 7239TIP3   OH243207   2.262   4.988  13.156  0.0311 -0.1025  0.4716
 7239TIP3    H143208   2.298   4.998  13.068 -0.7320  1.0362  0.2833
 7239TIP3    H243209   2.269   5.075  13.195  2.2823 -1.0158  2.2956
 7240TIP3   OH243210   6.423   3.546  15.137  0.4425  0.3092  0.3165
 7240TIP3    H143211   6.389   3.616  15.192  0.2227  0.7210 -0.3313
 7240TIP3    H243212   6.517   3.563  15.132  0.3379  0.7640 -0.1263
 7241TIP3   OH243213   1.838   3.652   0.750  0.4288 -0.1337  0.1112
 7241TIP3    H143214   1.932   3.659   0.767  0.3660 -1.6236  1.1785
 7241TIP3    H243215   1.802   3.614   0.830 -0.9842 -0.1821 -0.5323
 7242TIP3   OH243216   0.919   5.504  16.869 -0.5114  0.3001  0.0104
 7242TIP3    H143217   0.847   5.447  16.896 -0.6527  0.1246 -0.7345
 7242TIP3    H243218   0.977   5.507  16.946 -0.9787 -0.0789  0.3803
 7243TIP3   OH243219   3.065   2.399   1.466 -0.0574 -0.1161 -0.2774
 7243TIP3    H143220   3.066   2.359   1.553  0.7231  0.9032  0.1925
 7243TIP3    H243221   3.034   2.488   1.481 -0.7726 -0.2150 -1.1690
 7244TIP3   OH243222   5.444   6.620   2.679  0.6314  0.2524  0.1688
 7244TIP3    H143223   5.427   6.526   2.690  1.2505  0.2448  1.0875
 7244TIP3    H243224   5.532   6.632   2.712  2.1982  0.4414 -3.7400
 7245TIP3   OH243225   0.615   0.663  12.748 -0.8794  0.2601  0.1972
 7245TIP3    H143226   0.648   0.744  12.708 -0.3405  0.9799  2.0541
 7245TIP3    H243227   0.672   0.649  12.824  0.5104 -3.1180 -1.3453
 7246TIP3   OH243228   4.602   5.448   2.962 -0.8081 -0.3066 -0.4015
 7246TIP3    H143229   4.607   5.535   3.001  0.5246  0.4459 -2.2164
 7246TIP3    H243230   4.693   5.421   2.950 -1.1365 -3.0376  2.4281
 7247TIP3   OH243231   6.219   4.555  15.176 -0.1096 -0.3107  0.2178
 7247TIP3    H143232   6.173   4.505  15.108 -1.0802 -1.1546  1.4785
 7247TIP3    H243233   6.158   4.559  15.249  1.1060  0.1521  1.2322
 7248TIP3   OH243234   1.489   5.515   5.758  0.0271  0.2363 -0.1826
 7248TIP3    H143235   1.569   5.482   5.797 -1.0228 -0.9373  0.9981
 7248TIP3    H243236   1.424   5.445   5.771 -0.7836  0.5028 -2.5192
 7249TIP3   OH243237   0.405   0.516   0.581  0.0239  0.4629  0.0401
 7249TIP3    H143238   0.369   0.544   0.497  1.0117  0.5727 -0.3592
 7249TIP3    H243239   0.345   0.449   0.612 -1.0737  1.3556 -0.1237
 7250TIP3   OH243240   3.036   2.296  11.298 -0.5759  0.2688 -0.1770
 7250TIP3    H143241   3.127   2.300  11.329 -0.6716 -0.9537  0.2796
 7250TIP3    H243242   2.991   2.242  11.363 -1.3107 -0.3155 -1.1646
 7251TIP3   OH243243   0.882   5.544  12.338 -0.7515 -0.2702 -0.1702
 7251TIP3    H143244   0.878   5.582  12.425 -0.1673  1.2190 -0.7695
 7251TIP3    H243245   0.865   5.618  12.279 -0.4155 -1.1026 -1.3337
 7252TIP3   OH243246   0.428   2.007   5.008 -0.2451 -0.2551 -0.2865
 7252TIP3    H143247   0.371   2.066   4.960  0.4032  1.0615  0.5117
 7252TIP3    H243248   0.392   2.006   5.097  1.5528  1.4213  0.4930
 7253TIP3   OH243249   1.058   5.827  12.067 -0.0224  0.2904 -0.5283
 7253TIP3    H143250   1.045   5.849  12.159 -1.7746 -3.4951  0.2436
 7253TIP3    H243251   1.009   5.894  12.019 -0.4075  1.3831  1.3524
 7254TIP3   OH243252   3.950   6.344   3.760  0.6664 -0.5184  0.1602
 7254TIP3    H143253   3.863   6.384   3.762  1.3752  1.2541 -1.7860
 7254TIP3    H243254   4.005   6.406   3.808  0.5948 -2.4024  2.7420
 7255TIP3   OH243255   0.244   4.437   2.495 -0.4805  0.1121 -0.0594
 7255TIP3    H143256   0.294   4.379   2.552 -0.0453 -0.1127 -0.6581
 7255TIP3    H243257   0.281   4.422   2.408  0.5895  2.3372 -0.0222
 7256TIP3   OH243258   4.829   1.708   4.491 -0.9108 -0.0394  0.3748
 7256TIP3    H143259   4.786   1.648   4.553  0.0593 -1.2623 -0.1075
 7256TIP3    H243260   4.759   1.736   4.432 -1.0611 -2.1667 -0.5278
 7257TIP3   OH243261   2.326   6.223  16.999  0.0056 -0.2491  0.6281
 7257TIP3    H143262   2.312   6.135  17.033 -0.3652 -0.6589 -0.5443
 7257TIP3    H243263   2.375   6.268  17.067 -0.1005 -1.2595  1.3844
 7258TIP3   OH243264   6.789   5.603  14.658 -0.2526 -0.8964  0.0367
 7258TIP3    H143265   6.730   5.633  14.726 -1.1192 -1.8588 -0.2660
 7258TIP3    H243266   6.817   5.516  14.687  0.1315 -0.9144 -0.3720
 7259TIP3   OH243267   2.207   6.338   3.212 -0.0659  0.3158 -0.2540
 7259TIP3    H143268   2.135   6.376   3.161  0.3399  2.4793  0.7037
 7259TIP3    H243269   2.177   6.344   3.303  0.7741 -0.0162  0.0514
 7260TIP3   OH243270   3.536   6.514  15.018 -0.0906 -0.3530  0.3676
 7260TIP3    H143271   3.508   6.507  14.927 -0.0920 -0.7706  0.3950
 7260TIP3    H243272   3.604   6.446  15.027 -0.4775 -0.6848  0.8160
 7261TIP3   OH243273   6.209   0.328   3.219  0.1110 -0.3376 -0.0885
 7261TIP3    H143274   6.218   0.416   3.255 -1.2416 -0.1200 -0.2711
 7261TIP3    H243275   6.183   0.341   3.128  2.0996 -0.9114 -0.7576
 7262TIP3   OH243276   5.435   4.857   2.385 -0.1726  0.2380 -0.0157
 7262TIP3    H143277   5.378   4.841   2.461  1.9921  0.6799  1.7420
 7262TIP3    H243278   5.440   4.952   2.379 -0.2222  0.1997 -0.6376
 7263TIP3   OH243279   4.140   1.577   2.249  0.0518  0.5645  0.5935
 7263TIP3    H143280   4.185   1.554   2.168  1.2598  0.9397  1.1569
 7263TIP3    H243281   4.055   1.534   2.242  1.0122 -1.2776  0.1300
 7264TIP3   OH243282   0.839   3.853  12.993  0.0207  0.1650 -0.4190
 7264TIP3    H143283   0.804   3.939  13.014  2.4905  0.9378  0.7022
 7264TIP3    H243284   0.846   3.808  13.077  0.6986 -0.3620 -0.7480
 7265TIP3   OH243285   6.425   3.847  14.744  0.2713  0.2622  0.0703
 7265TIP3    H143286   6.433   3.761  14.786  0.4792  0.3589  0.2332
 7265TIP3    H243287   6.441   3.909  14.815 -0.2611  0.4424  0.0342
 7266TIP3   OH243288   1.869   0.845   0.990 -0.2722  0.4806 -0.2964
 7266TIP3    H143289   1.884   0.925   0.940 -0.5816  0.6922 -0.0465
 7266TIP3    H243290   1.779   0.852   1.022 -0.1979  0.1761 -0.0154
 7267TIP3   OH243291   3.275   5.134   3.035  0.0767  0.1979 -0.3689
 7267TIP3    H143292   3.311   5.082   3.108  0.3450 -2.9628 -2.6553
 7267TIP3    H243293   3.349   5.186   3.004  0.7102 -0.5905 -0.1999
 7268TIP3   OH243294   1.565   4.237  17.042 -0.4626 -0.3360 -0.1226
 7268TIP3    H143295   1.482   4.248  16.995 -0.7345 -0.6045  0.2959
 7268TIP3    H243296   1.630   4.231  16.973 -0.7548  0.1705 -0.4440
 7269TIP3   OH243297   5.951   5.240  11.037 -0.2936  0.1710  0.0144
 7269TIP3    H143298   5.865   5.234  10.997  0.1959  1.4569 -1.2443
 7269TIP3    H243299   6.010   5.198  10.974  0.0742 -0.3472  0.6908
 7270TIP3   OH243300   3.103   2.173   0.946  0.6562  0.4388  0.3455
 7270TIP3    H143301   3.118   2.166   1.040 -0.8014  2.0443  0.7138
 7270TIP3    H243302   3.082   2.266   0.931 -2.1538 -0.3610 -1.0954
 7271TIP3   OH243303   1.792   2.138  16.516  0.1957  0.5331  0.1364
 7271TIP3    H143304   1.795   2.050  16.478  0.0292  0.5789  0.0138
 7271TIP3    H243305   1.866   2.140  16.577  0.8191  0.6569 -0.6129
 7272TIP3   OH243306   2.709   1.241  15.739  0.2413 -0.1505 -0.6486
 7272TIP3    H143307   2.661   1.260  15.659 -2.2519 -0.6754  0.6742
 7272TIP3    H243308   2.763   1.319  15.753 -0.2619  0.4907 -2.1286
 7273TIP3   OH243309   4.262   1.655   5.793  0.0372 -0.4221  0.5038
 7273TIP3    H143310   4.180   1.699   5.812  0.6742  0.8372  0.4469
 7273TIP3    H243311   4.256   1.570   5.836 -1.4057 -0.4610  0.2335
 7274TIP3   OH243312   1.705   5.805   3.203  0.2252  0.1008  0.0424
 7274TIP3    H143313   1.693   5.858   3.124 -1.2975  0.5436  0.5472
 7274TIP3    H243314   1.756   5.862   3.261 -1.2693  0.9820  0.5209
 7275TIP3   OH243315   6.408   1.828  14.984 -0.0210  0.2778 -0.7079
 7275TIP3    H143316   6.444   1.740  14.990 -1.0560 -0.2615 -2.2027
 7275TIP3    H243317   6.469   1.882  15.034  1.3158 -1.0755 -0.8406
 7276TIP3   OH243318   1.738   4.153   3.638  0.8482 -0.1171  0.8608
 7276TIP3    H143319   1.651   4.136   3.674  0.2425  0.2277 -0.3941
 7276TIP3    H243320   1.792   4.082   3.672 -0.4839 -1.7301 -0.2503
 7277TIP3   OH243321   2.949   0.417  17.166  0.1663 -0.4816 -0.1935
 7277TIP3    H143322   2.896   0.346  17.131 -0.9886  0.4268 -0.3147
 7277TIP3    H243323   3.012   0.437  17.097 -1.4675  0.6479 -1.3838
 7278TIP3   OH243324   2.962   1.091   0.114  0.2647 -0.2098  0.3635
 7278TIP3    H143325   2.872   1.060   0.109  0.4058 -0.4392 -0.7172
 7278TIP3    H243326   3.016   1.012   0.107  0.5697 -0.0141  0.4459
 7279TIP3   OH243327   4.275   0.279   5.303 -0.4648 -0.1407 -0.4748
 7279TIP3    H143328   4.259   0.294   5.210 -0.7349 -0.9861 -0.5707
 7279TIP3    H243329   4.305   0.188   5.308  2.1421  0.6979 -0.0437
 7280TIP3   OH243330   5.828   1.033   0.038  0.3326  0.7304  0.0017
 7280TIP3    H143331   5.817   1.065   0.127  0.0894  0.9941 -0.1224
 7280TIP3    H243332   5.893   1.092  -0.001  0.1248  0.8721 -0.1276
 7281TIP3   OH243333   2.714   0.174   1.190  0.0614 -0.4170  0.1847
 7281TIP3    H143334   2.744   0.233   1.121 -1.7551 -1.2609 -1.3328
 7281TIP3    H243335   2.753   0.090   1.168 -0.2153 -0.6031  0.4102
 7282TIP3   OH243336   6.270   5.012  13.472  0.0772 -0.0659  0.4098
 7282TIP3    H143337   6.189   5.019  13.522 -0.8585  1.4337 -1.2803
 7282TIP3    H243338   6.309   5.099  13.476  1.8832 -0.8891  1.6153
 7283TIP3   OH243339   6.068   0.930   5.936 -0.4032  0.1750 -0.4135
 7283TIP3    H143340   6.102   0.923   6.025 -0.5895 -1.6787 -0.4651
 7283TIP3    H243341   6.017   1.011   5.936 -0.3706  0.2169  1.1618
 7284TIP3   OH243342   1.749   5.848  13.949 -0.6339  0.3944 -0.1895
 7284TIP3    H143343   1.786   5.842  14.037 -0.0611  0.9856 -0.3910
 7284TIP3    H243344   1.748   5.941  13.929  0.1327  0.1977 -1.1843
 7285TIP3   OH243345   5.079   1.353  12.972  0.3115 -0.4718 -0.3968
 7285TIP3    H143346   4.985   1.364  12.963  0.6536  1.0609 -2.3635
 7285TIP3    H243347   5.089   1.280  13.033 -2.1289  0.7450  1.5315
 7286TIP3   OH243348   6.000   2.612   5.840  0.2644 -0.2571 -0.7556
 7286TIP3    H143349   6.054   2.655   5.907 -0.0018  0.6969 -1.1404
 7286TIP3    H243350   6.023   2.519   5.846  1.3798  0.0358 -0.4003
 7287TIP3   OH243351   0.158   2.550  15.351 -0.3598 -0.7803 -0.4630
 7287TIP3    H143352   0.224   2.618  15.339 -0.6260 -0.7278 -1.6375
 7287TIP3    H243353   0.209   2.472  15.375  0.2447 -1.0412 -2.5241
 7288TIP3   OH243354   6.600   2.012   4.748 -0.0099 -0.1005  0.0563
 7288TIP3    H143355   6.648   2.083   4.706 -1.1425  0.0926 -0.9178
 7288TIP3    H243356   6.649   1.933   4.724 -0.5651  0.0237 -1.5162
 7289TIP3   OH243357   5.663   2.609  11.762  0.6903 -0.0479 -0.7315
 7289TIP3    H143358   5.655   2.698  11.727  0.1334  0.3098  0.2681
 7289TIP3    H243359   5.730   2.568  11.709  2.2769  1.5759 -0.0306
 7290TIP3   OH243360   4.678   5.295  16.840  0.2729  0.2408  0.0887
 7290TIP3    H143361   4.584   5.295  16.821  0.4104  0.9881 -0.6284
 7290TIP3    H243362   4.711   5.217  16.795 -0.1925 -0.7300  1.3846
 7291TIP3   OH243363   0.755   2.836   4.173 -0.1216  0.4911 -0.2414
 7291TIP3    H143364   0.762   2.760   4.116 -1.0413 -0.3997  0.8249
 7291TIP3    H243365   0.682   2.887   4.137 -0.4286  0.1393 -0.1230
 7292TIP3   OH243366   2.084   1.554   1.191  0.0309 -0.1514  0.1978
 7292TIP3    H143367   1.995   1.589   1.196 -0.5620 -1.5571 -0.1749
 7292TIP3    H243368   2.072   1.459   1.182  1.5771 -0.3992  0.5858
 7293TIP3   OH243369   5.503   0.862  12.852  0.2532  0.3810  0.0774
 7293TIP3    H143370   5.423   0.877  12.800  1.2721 -1.6255 -2.1736
 7293TIP3    H243371   5.544   0.949  12.858 -1.4815  1.2208  0.2685
 7294TIP3   OH243372   0.015   0.119  13.605 -0.3176  0.7401  0.0542
 7294TIP3    H143373  -0.036   0.175  13.547  1.1033 -0.8631 -2.8581
 7294TIP3    H243374   0.022   0.036  13.558  3.7042  0.4566  0.9476
 7295TIP3   OH243375   0.601   2.364  16.707  0.2559 -0.2732 -0.5926
 7295TIP3    H143376   0.690   2.343  16.734  0.4333 -2.2266 -2.5927
 7295TIP3    H243377   0.612   2.422  16.632 -0.2028  1.7074  0.8369
 7296TIP3   OH243378   3.169   1.517   1.639  0.2679 -0.5266 -0.5645
 7296TIP3    H143379   3.219   1.558   1.709  0.2496  0.2448 -1.0064
 7296TIP3    H243380   3.104   1.582   1.614 -0.4073 -1.2048 -0.5729
 7297TIP3   OH243381   0.340   5.717   5.628  0.4264  0.7610  0.2623
 7297TIP3    H143382   0.377   5.696   5.542  0.1909 -0.4241  0.4439
 7297TIP3    H243383   0.392   5.792   5.658  0.1271  1.5425 -1.1561
 7298TIP3   OH243384   2.307   0.699  11.739  0.2247 -0.2240  0.1850
 7298TIP3    H143385   2.267   0.656  11.664  0.3368  0.4191 -0.2524
 7298TIP3    H243386   2.380   0.749  11.702  1.1138 -0.9789  0.9013
 7299TIP3   OH243387   6.658   4.701   6.379 -0.3833 -0.1489 -0.0364
 7299TIP3    H143388   6.720   4.719   6.309 -2.2568  3.2360 -0.9052
 7299TIP3    H243389   6.574   4.688   6.334 -1.3740  0.8605  1.4718
 7300TIP3   OH243390   1.348   4.448  15.650  0.3492  0.2080  0.3819
 7300TIP3    H143391   1.288   4.386  15.691  2.3149 -0.7945  1.8528
 7300TIP3    H243392   1.359   4.517  15.715  2.1394 -0.5267  0.9159
 7301TIP3   OH243393   1.309   0.584   1.946 -0.2917 -0.1576  0.3957
 7301TIP3    H143394   1.224   0.545   1.966 -0.8511  0.8347 -0.0384
 7301TIP3    H243395   1.293   0.678   1.949  0.7759  0.0284  0.2265
 7302TIP3   OH243396   0.691   6.800   2.469 -0.3220  0.0893  0.5084
 7302TIP3    H143397   0.734   6.828   2.550 -1.1988 -1.3076  1.4763
 7302TIP3    H243398   0.700   6.705   2.468 -1.5137 -0.0309 -0.3373
 7303TIP3   OH243399   5.708   1.964  16.850 -0.2391 -0.5003  0.1089
 7303TIP3    H143400   5.647   2.019  16.800 -0.7110 -0.0533  1.1525
 7303TIP3    H243401   5.775   1.940  16.787  1.7462  3.9332  0.3074
 7304TIP3   OH243402   0.679   5.321   1.999 -0.2996 -0.8372 -0.0750
 7304TIP3    H143403   0.760   5.361   2.030 -0.3973 -0.0479 -0.8127
 7304TIP3    H243404   0.658   5.256   2.065 -1.1147  1.5764  2.1475
 7305TIP3   OH243405   4.690   1.932  15.209  0.7229 -0.2400 -0.3763
 7305TIP3    H143406   4.689   1.883  15.127 -1.4324  0.3190 -0.7261
 7305TIP3    H243407   4.608   1.908  15.253  0.5469  1.5441  0.3378
 7306TIP3   OH243408   3.536   4.266  12.989  0.4153 -0.0162  0.7507
 7306TIP3    H143409   3.496   4.263  12.902 -0.4375  1.0825  1.0941
 7306TIP3    H243410   3.569   4.355  12.997  0.3319 -0.0600  1.6247
 7307TIP3   OH243411   3.862   4.933   2.464 -0.0844  0.3839 -0.4591
 7307TIP3    H143412   3.821   4.857   2.506  0.0737  0.9122  0.6749
 7307TIP3    H243413   3.920   4.896   2.397  1.0036 -0.5746  0.9734
 7308TIP3   OH243414   4.878   0.384  14.511  0.0269 -0.0133 -0.6070
 7308TIP3    H143415   4.909   0.331  14.438 -1.8460  0.2363 -1.6144
 7308TIP3    H243416   4.809   0.331  14.552  0.3985  0.2607  0.3880
 7309TIP3   OH243417   1.864   4.276   6.155 -0.5719 -0.3802 -0.8199
 7309TIP3    H143418   1.879   4.322   6.073 -0.3681  0.4667 -0.3166
 7309TIP3    H243419   1.948   4.281   6.201 -1.3758  1.3853  0.5282
 7310TIP3   OH243420   6.540   1.718   0.054  0.1592  0.3972 -0.4809
 7310TIP3    H143421   6.546   1.655   0.126  2.9789 -0.5989 -1.5218
 7310TIP3    H243422   6.469   1.685  -0.001 -1.2975  0.5704  1.2303
 7311TIP3   OH243423   5.436   6.811  16.807 -0.0797  0.2362 -0.0242
 7311TIP3    H143424   5.374   6.883  16.799  0.3169  0.4875 -0.9826
 7311TIP3    H243425   5.390   6.736  16.770  0.5212  0.6419 -1.6606
 7312TIP3   OH243426   2.173   4.295   5.607 -0.7848  0.4534 -0.1528
 7312TIP3    H143427   2.173   4.380   5.564 -0.1645  0.5741  0.0876
 7312TIP3    H243428   2.201   4.313   5.697 -3.2685  0.3955  0.6852
 7313TIP3   OH243429   5.847   2.345   5.162  0.1764 -0.0078 -0.5873
 7313TIP3    H143430   5.785   2.379   5.227 -1.0529 -1.3219 -1.0204
 7313TIP3    H243431   5.924   2.319   5.213 -0.6726 -0.7860  0.3247
 7314TIP3   OH243432   3.725   0.168  16.050 -0.0315  0.9245  0.2604
 7314TIP3    H143433   3.750   0.178  15.958 -0.5672 -0.8945 -0.1027
 7314TIP3    H243434   3.695   0.078  16.057 -0.0036  1.0488  2.2338
 7315TIP3   OH243435   2.559   2.682  14.953  0.4956 -0.2070  0.1404
 7315TIP3    H143436   2.616   2.758  14.940 -0.2726  0.3418 -0.0585
 7315TIP3    H243437   2.476   2.719  14.983  0.0578 -0.9619 -0.1262
 7316TIP3   OH243438   1.760   2.955   4.128  0.6673 -0.1633 -0.3040
 7316TIP3    H143439   1.736   2.876   4.079  0.3933  0.7352 -1.6226
 7316TIP3    H243440   1.829   2.995   4.075  0.5879  0.6502  0.2141
 7317TIP3   OH243441   5.641   3.971  17.040 -0.4077 -0.0712 -0.0532
 7317TIP3    H143442   5.577   4.000  16.975  0.2700  0.5790 -0.4525
 7317TIP3    H243443   5.660   4.050  17.091 -0.9726 -0.5884  0.9840
 7318TIP3   OH243444   2.232   1.705  15.505 -0.3341  0.0501  0.2137
 7318TIP3    H143445   2.289   1.670  15.436  0.2230  1.7238 -0.1875
 7318TIP3    H243446   2.292   1.736  15.572 -0.7811  1.1424  0.1211
 7319TIP3   OH243447   6.343   4.780  15.714  0.0711 -0.4435  0.2464
 7319TIP3    H143448   6.297   4.697  15.729 -0.1985 -0.3768 -0.2147
 7319TIP3    H243449   6.295   4.843  15.768 -2.2777  0.2567 -2.5270
 7320TIP3   OH243450   4.558   3.993   6.070  0.0180 -0.0041  0.4053
 7320TIP3    H143451   4.535   3.900   6.069  1.6397 -0.4605  2.5529
 7320TIP3    H243452   4.628   4.000   6.004 -1.0441 -0.0115 -0.7528
 7321TIP3   OH243453   2.818   1.318   4.493 -0.5013  0.0728  0.4984
 7321TIP3    H143454   2.912   1.337   4.500 -0.2645 -0.4152 -1.2592
 7321TIP3    H243455   2.788   1.315   4.584  1.4248 -0.8465  1.1386
 7322TIP3   OH243456   4.992   0.291  14.268 -0.5083 -0.8281 -1.0491
 7322TIP3    H143457   4.956   0.357  14.209  1.4703  0.3223 -0.9836
 7322TIP3    H243458   5.086   0.306  14.268 -0.3698 -1.3053  1.7752
 7323TIP3   OH243459   5.498   5.681   3.291  0.3365 -0.6620  0.4423
 7323TIP3    H143460   5.483   5.703   3.383 -1.6974  0.0987 -0.0503
 7323TIP3    H243461   5.474   5.589   3.284 -0.6341 -0.4134  0.4364
 7324TIP3   OH243462   2.769   4.226  16.414 -0.4681 -0.8896  0.5250
 7324TIP3    H143463   2.742   4.162  16.480  0.0949 -0.0470  1.5969
 7324TIP3    H243464   2.797   4.302  16.465 -2.5329  0.7786 -0.7190
 7325TIP3   OH243465   1.256   3.128  12.656  0.2363 -0.4351  0.5609
 7325TIP3    H143466   1.351   3.137  12.655  0.4162 -2.2548  0.4906
 7325TIP3    H243467   1.228   3.184  12.729  1.2908  0.5209  0.2571
 7326TIP3   OH243468   0.996   4.720  15.541 -0.2970  0.2576  0.3602
 7326TIP3    H143469   0.927   4.719  15.474  0.9822 -1.3065 -0.9759
 7326TIP3    H243470   0.953   4.689  15.621 -1.5004  0.7589 -0.0796
 7327TIP3   OH243471   1.997   2.850  16.685 -0.1949  0.1226  0.5108
 7327TIP3    H143472   2.076   2.822  16.639  1.4545  1.3345  2.5758
 7327TIP3    H243473   1.957   2.915  16.627  1.2979  0.8441  0.2727
 7328TIP3   OH243474   4.762   3.029  17.223 -0.1491  0.5198  0.1651
 7328TIP3    H143475   4.818   2.957  17.194 -0.5877  0.8015 -1.4807
 7328TIP3    H243476   4.778   3.098  17.159 -1.5822  0.9814  0.2916
 7329TIP3   OH243477   4.320   5.332  11.469  0.2682  0.1898  0.3556
 7329TIP3    H143478   4.254   5.402  11.470  0.0508 -0.0008 -0.4412
 7329TIP3    H243479   4.298   5.279  11.392  0.5219 -0.6700  0.8646
 7330TIP3   OH243480   5.265   0.118   4.924  0.6682  0.0758 -0.8908
 7330TIP3    H143481   5.269   0.035   4.972 -0.1914 -0.6717 -2.0911
 7330TIP3    H243482   5.172   0.140   4.921  0.8989  1.1207 -0.5300
 7331TIP3   OH243483   3.174   1.013   3.427 -0.1918 -0.1272 -0.1520
 7331TIP3    H143484   3.191   0.988   3.518  0.3202 -1.6122 -0.6360
 7331TIP3    H243485   3.083   0.986   3.412 -0.7918  1.5455  0.3740
 7332TIP3   OH243486   4.822   2.641   0.586 -1.0322 -0.3635 -0.3093
 7332TIP3    H143487   4.784   2.601   0.507  0.5117 -1.0280 -0.7483
 7332TIP3    H243488   4.787   2.590   0.658 -0.1373 -1.6757 -0.7805
 7333TIP3   OH243489   1.118   0.278   2.388 -0.7396  0.0402  0.2837
 7333TIP3    H143490   1.172   0.258   2.311 -0.5558  0.7173  0.2335
 7333TIP3    H243491   1.028   0.264   2.358 -0.6297 -0.4285  0.1661
 7334TIP3   OH243492   3.209   4.505  14.074 -0.0409  0.0029 -0.0514
 7334TIP3    H143493   3.145   4.449  14.119  0.0053 -0.4617 -0.5504
 7334TIP3    H243494   3.267   4.443  14.030  0.7028  0.4281  0.3275
 7335TIP3   OH243495   0.833   5.315  13.330 -0.4436 -0.4198  0.5320
 7335TIP3    H143496   0.770   5.386  13.322  0.2032 -0.1368 -2.5523
 7335TIP3    H243497   0.785   5.237  13.301 -0.1014 -0.6092  0.4690
 7336TIP3   OH243498   5.832   1.336  15.733 -0.5932  0.3045 -0.6945
 7336TIP3    H143499   5.830   1.271  15.803  1.0339 -0.8834 -1.7308
 7336TIP3    H243500   5.740   1.362  15.721 -1.1632 -1.2636  0.2057
 7337TIP3   OH243501   6.139   3.490  14.222  0.1825  0.0757 -0.1964
 7337TIP3    H143502   6.219   3.523  14.181  0.2640  0.8312  0.5747
 7337TIP3    H243503   6.170   3.437  14.296  0.0243 -1.0208 -0.9024
 7338TIP3   OH243504   4.886   1.373   2.088 -0.1138 -0.0038 -0.5101
 7338TIP3    H143505   4.870   1.278   2.085 -0.6790 -0.1156  3.3473
 7338TIP3    H243506   4.803   1.412   2.061  0.2644 -0.5437 -2.5946
 7339TIP3   OH243507   6.049   3.925  10.793  0.1760  0.1296 -0.5167
 7339TIP3    H143508   6.032   3.872  10.871 -0.7346  0.1916 -0.6730
 7339TIP3    H243509   6.080   3.862  10.728 -2.3281 -0.4576 -1.1696
 7340TIP3   OH243510   4.389   3.665   1.481 -0.3307 -0.3583  0.0301
 7340TIP3    H143511   4.442   3.617   1.417  0.4657  0.7948 -0.1888
 7340TIP3    H243512   4.365   3.599   1.547  0.5861 -1.0937 -0.3660
 7341TIP3   OH243513   3.847   5.636  15.512 -0.4769 -0.6687 -0.7003
 7341TIP3    H143514   3.840   5.562  15.573 -0.4301  1.1722  1.6100
 7341TIP3    H243515   3.939   5.663  15.518 -0.6662  0.0453 -0.9674
 7342TIP3   OH243516   4.216   4.320  12.703 -0.8461 -0.3477 -0.2745
 7342TIP3    H143517   4.236   4.234  12.667 -0.2597 -0.9376  1.4485
 7342TIP3    H243518   4.125   4.336  12.678 -0.1179 -0.2300 -3.0038
 7343TIP3   OH243519   4.718   5.183  12.030 -0.7828  0.3114  0.6589
 7343TIP3    H143520   4.643   5.141  12.073  0.8304 -2.1354  1.1291
 7343TIP3    H243521   4.752   5.243  12.096 -0.4717 -0.8250  1.5398
 7344TIP3   OH243522   5.946   0.826   2.832 -0.0962  0.5017 -0.2780
 7344TIP3    H143523   5.899   0.909   2.824  0.3157  0.7343 -0.2897
 7344TIP3    H243524   5.994   0.818   2.750 -1.3581 -0.5085 -0.9356
 7345TIP3   OH243525   5.398   4.596  16.972  0.2301  0.5701 -0.0768
 7345TIP3    H143526   5.337   4.665  16.998  0.7036  0.6660  0.8027
 7345TIP3    H243527   5.419   4.550  17.053 -0.2390 -0.7464 -0.6786
 7346TIP3   OH243528   3.212   4.590   2.294 -0.3528  0.0666 -0.1088
 7346TIP3    H143529   3.118   4.603   2.307 -0.4411 -1.2107  0.6233
 7346TIP3    H243530   3.246   4.575   2.382  0.6961  1.4980 -0.2645
 7347TIP3   OH243531   2.222   3.873  15.009 -0.3054 -0.0026 -0.1113
 7347TIP3    H143532   2.218   3.849  14.916 -1.1304  0.5993 -0.2388
 7347TIP3    H243533   2.183   3.798  15.054 -0.4246 -0.0557 -0.2999
 7348TIP3   OH243534   1.278   3.908   2.574 -0.7906 -0.3098  0.3103
 7348TIP3    H143535   1.342   3.849   2.534  0.3929  0.2182  1.4032
 7348TIP3    H243536   1.238   3.856   2.644 -0.8441 -0.3052  0.2836
 7349TIP3   OH243537   5.067   2.135  10.660 -0.3848 -0.0493 -0.1923
 7349TIP3    H143538   5.080   2.222  10.624 -1.4996  0.2252  0.0573
 7349TIP3    H243539   5.062   2.148  10.755  3.4227 -0.8691  0.2020
 7350TIP3   OH243540   4.573   3.323   2.782 -0.1319  0.0502  0.7193
 7350TIP3    H143541   4.617   3.302   2.700 -0.0307 -0.6330  0.9460
 7350TIP3    H243542   4.495   3.371   2.756 -0.0449 -0.0736  0.2277
 7351TIP3   OH243543   5.142   6.064   4.249  0.0049  0.2499 -0.1555
 7351TIP3    H143544   5.064   6.058   4.305  0.3802  2.2462  0.6114
 7351TIP3    H243545   5.161   5.973   4.226 -2.9721 -0.2355 -0.9538
 7352TIP3   OH243546   4.775   5.773  10.677  0.0609  0.4934  0.1400
 7352TIP3    H143547   4.817   5.859  10.671  1.1865 -0.0294  0.4164
 7352TIP3    H243548   4.784   5.736  10.590  0.3456  0.3036  0.2490
 7353TIP3   OH243549   4.342   6.379  11.296 -0.1954  0.4280  0.2366
 7353TIP3    H143550   4.402   6.305  11.308 -1.5463 -0.9417 -1.1937
 7353TIP3    H243551   4.261   6.352  11.338 -0.1521  1.8508  1.2759
 7354TIP3   OH243552   1.024   1.273   5.531  0.5439 -0.7118 -0.5767
 7354TIP3    H143553   1.112   1.308   5.520  0.1772  0.5560  0.3595
 7354TIP3    H243554   0.967   1.338   5.489 -0.1735 -0.0111  1.4374
 7355TIP3   OH243555   3.307   3.587  15.149  0.0782  0.0780 -0.1554
 7355TIP3    H143556   3.350   3.511  15.189 -0.4353 -0.1293  0.0023
 7355TIP3    H243557   3.379   3.646  15.127  0.5457 -0.7933 -1.0021
 7356TIP3   OH243558   2.310   2.189  11.226 -0.1885  0.3158  0.5326
 7356TIP3    H143559   2.274   2.103  11.203 -2.1409  1.5776 -1.4067
 7356TIP3    H243560   2.356   2.218  11.147 -1.7326  2.1124  0.2415
 7357TIP3   OH243561   3.625   4.818  13.369 -0.2072 -0.5499 -0.0131
 7357TIP3    H143562   3.599   4.896  13.418 -0.8670 -0.9682  0.3154
 7357TIP3    H243563   3.708   4.841  13.328 -0.0433  0.0748  0.6734
 7358TIP3   OH243564   3.224   4.481   3.824 -0.9183 -0.3120  0.1257
 7358TIP3    H143565   3.201   4.500   3.733  0.4710 -2.2893 -0.6600
 7358TIP3    H243566   3.288   4.549   3.847  0.0701 -0.8580 -0.9690
 7359TIP3   OH243567   0.691   1.649  14.694 -0.1522  0.9573  0.4945
 7359TIP3    H143568   0.626   1.718  14.688 -0.4971  0.4717 -1.9918
 7359TIP3    H243569   0.773   1.694  14.713 -1.0267  1.6585  2.6855
 7360TIP3   OH243570   0.353   4.005  15.284  0.1561 -0.2626 -0.3556
 7360TIP3    H143571   0.403   4.000  15.203 -0.5365 -0.7622 -0.7650
 7360TIP3    H243572   0.378   4.088  15.323  1.0552 -0.3596 -0.7088
 7361TIP3   OH243573   6.505   6.305  12.710  0.0890 -0.1552  0.4865
 7361TIP3    H143574   6.426   6.274  12.665  0.4332 -1.1010  0.5077
 7361TIP3    H243575   6.539   6.374  12.653 -0.4337 -0.1566  0.1679
 7362TIP3   OH243576   1.886   4.771  17.277 -0.0869 -0.4060 -0.3427
 7362TIP3    H143577   1.832   4.741  17.203 -1.2137  1.7056 -0.4220
 7362TIP3    H243578   1.943   4.838  17.239 -0.8671  0.8876  0.7484
 7363TIP3   OH243579   2.095   2.433   5.061  0.3497 -0.3035 -0.0939
 7363TIP3    H143580   2.118   2.352   5.107  0.0905 -0.0473  0.4860
 7363TIP3    H243581   2.066   2.493   5.130 -1.7056 -0.4914 -0.7600
 7364TIP3   OH243582   2.948   3.617   2.948  0.2671  0.0685 -0.1603
 7364TIP3    H143583   2.929   3.644   3.037  1.4561  1.2030 -0.2270
 7364TIP3    H243584   3.039   3.643   2.934  0.4742 -1.2055 -1.2877
 7365TIP3   OH243585   0.507   5.635   3.357 -0.0065 -0.1238  0.5842
 7365TIP3    H143586   0.574   5.697   3.386 -0.7684  0.8206  0.3650
 7365TIP3    H243587   0.430   5.690   3.341 -0.8402 -1.2092  0.8896
 7366TIP3   OH243588   3.198   4.685  10.758 -0.0482 -0.1660  0.1214
 7366TIP3    H143589   3.247   4.737  10.694 -2.8116  2.2128 -0.1912
 7366TIP3    H243590   3.264   4.650  10.817  2.0745  2.5195 -0.5717
 7367TIP3   OH243591   2.809   4.524   4.088  0.1104  0.1934 -0.4705
 7367TIP3    H143592   2.904   4.537   4.080 -0.1552  2.0131 -0.7925
 7367TIP3    H243593   2.777   4.527   3.998 -0.6703  3.0292 -0.1312
 7368TIP3   OH243594   3.863   1.401   1.537 -0.0130 -0.1040 -0.0252
 7368TIP3    H143595   3.956   1.421   1.525 -0.0463  0.8351  1.1741
 7368TIP3    H243596   3.829   1.475   1.588 -1.4401 -0.3951 -0.5365
 7369TIP3   OH243597   1.959   6.752  14.593 -0.2448 -0.2879  0.5131
 7369TIP3    H143598   2.022   6.819  14.623  0.3105 -0.3342 -0.5515
 7369TIP3    H243599   1.874   6.785  14.622 -0.0701  1.3107 -0.7342
 7370TIP3   OH243600   0.992   1.711  15.627 -0.0499  0.4801 -0.6258
 7370TIP3    H143601   0.931   1.669  15.687 -0.9172 -0.4176 -2.1074
 7370TIP3    H243602   0.976   1.805  15.639 -1.6829  0.2639 -0.9203
 7371TIP3   OH243603   0.698   1.864   5.920  0.1419 -0.2029 -0.5949
 7371TIP3    H143604   0.781   1.829   5.952 -0.8164 -1.9933 -0.0049
 7371TIP3    H243605   0.723   1.922   5.848  1.8816 -0.9887 -0.6497
 7372TIP3   OH243606   0.960   4.423  14.925  0.2160 -0.2173  0.5428
 7372TIP3    H143607   1.023   4.387  14.986 -0.3357 -0.7859  0.7802
 7372TIP3    H243608   0.979   4.517  14.923  1.5164 -0.4856  0.0768
 7373TIP3   OH243609   3.747   6.532   1.011 -0.4321  0.3773 -0.5582
 7373TIP3    H143610   3.768   6.522   0.918 -1.2702 -0.2700 -0.6883
 7373TIP3    H243611   3.715   6.446   1.038 -0.8587  0.7495  0.1547
 7374TIP3   OH243612   3.161   1.326   3.211  0.3657  0.3126 -0.2264
 7374TIP3    H143613   3.076   1.312   3.254  0.1168 -0.5482 -0.9830
 7374TIP3    H243614   3.209   1.381   3.272  0.0336 -0.9151  1.1967
 7375TIP3   OH243615   5.054   0.734   1.860  0.0905  0.4865  0.5350
 7375TIP3    H143616   5.109   0.732   1.781 -0.6283 -0.5768  0.0472
 7375TIP3    H243617   5.108   0.692   1.927  0.0737 -0.0956  0.1891
 7376TIP3   OH243618   6.253   3.037  13.176  0.1747  0.3027  0.1974
 7376TIP3    H143619   6.251   3.128  13.148 -0.3865  1.1923  3.0239
 7376TIP3    H243620   6.271   2.988  13.096  1.5762  2.9561 -1.1649
 7377TIP3   OH243621   3.755   5.719   2.312  0.1457  0.4130  0.1188
 7377TIP3    H143622   3.804   5.680   2.240 -0.8741  0.0380 -0.3847
 7377TIP3    H243623   3.733   5.807   2.281 -2.3105 -0.5507 -1.0173
 7378TIP3   OH243624   3.766   5.127   4.052 -0.4574  0.6167 -0.5415
 7378TIP3    H143625   3.744   5.181   4.129 -3.3175 -2.2619  0.7744
 7378TIP3    H243626   3.718   5.169   3.980 -0.3389  1.4642 -0.1411
 7379TIP3   OH243627   3.697   5.901  12.597  0.5758  0.5617  0.3822
 7379TIP3    H143628   3.750   5.958  12.541  0.7184  0.7376  0.6999
 7379TIP3    H243629   3.617   5.951  12.613 -0.1275 -0.1107 -0.9300
 7380TIP3   OH243630   3.930   4.006   1.777  0.4737 -0.3182  0.2376
 7380TIP3    H143631   3.893   4.083   1.735 -0.4572 -0.8110  0.1514
 7380TIP3    H243632   3.881   3.998   1.859  0.3960 -0.9636  0.1283
 7381TIP3   OH243633   4.307   6.155   0.330  0.1394  0.6503  0.1411
 7381TIP3    H143634   4.371   6.121   0.392 -0.3868  0.1500  0.4170
 7381TIP3    H243635   4.359   6.203   0.265  0.9004 -0.6918 -0.2658
 7382TIP3   OH243636   4.703   0.983  12.585  0.1947  1.0393  0.1824
 7382TIP3    H143637   4.667   0.970  12.673 -1.0832  0.8604 -0.3600
 7382TIP3    H243638   4.733   0.895  12.559  0.6512  1.1082  0.4635
 7383TIP3   OH243639   4.422   2.916   3.850 -0.2937  0.0635  0.2964
 7383TIP3    H143640   4.353   2.982   3.840  0.2750  0.4794 -1.0642
 7383TIP3    H243641   4.479   2.952   3.917 -0.5020  0.5061  0.2427
 7384TIP3   OH243642   2.813   5.055  10.828  0.2445 -0.7996 -0.0778
 7384TIP3    H143643   2.862   5.088  10.753  1.2761  0.8317  1.2881
 7384TIP3    H243644   2.873   4.995  10.872 -0.0889 -1.1686 -0.1167
 7385TIP3   OH243645   0.421   6.591   5.367 -0.0278  0.0598 -0.2013
 7385TIP3    H143646   0.476   6.645   5.310  2.1355 -0.7047  1.0991
 7385TIP3    H243647   0.482   6.553   5.430 -1.7306 -2.7113 -0.1580
 7386TIP3   OH243648   0.183   6.136  16.107  0.3236 -0.5503 -0.3897
 7386TIP3    H143649   0.122   6.080  16.059 -0.0714  0.3524 -0.9521
 7386TIP3    H243650   0.127   6.200  16.151  0.8379  0.1826 -0.7844
 7387TIP3   OH243651   6.477   4.443   1.594 -0.5816  0.3382  0.2201
 7387TIP3    H143652   6.501   4.375   1.657  0.3836  1.6680  1.3285
 7387TIP3    H243653   6.557   4.459   1.544 -0.7008  0.8868  0.1951
 7388TIP3   OH243654   3.628   4.512  12.991 -0.1158 -0.0292  0.3129
 7388TIP3    H143655   3.718   4.546  12.992 -0.6428  1.4241 -0.1221
 7388TIP3    H243656   3.578   4.576  13.042 -0.9146 -0.8084  0.5169
 7389TIP3   OH243657   1.368   4.805  13.576  0.1546 -0.7876 -0.4337
 7389TIP3    H143658   1.310   4.733  13.550  2.5843 -2.5156 -1.2051
 7389TIP3    H243659   1.366   4.804  13.672 -0.7716 -1.0677 -0.4491
 7390TIP3   OH243660   6.766   0.212  12.366  0.6229 -0.0289  0.1830
 7390TIP3    H143661   6.834   0.222  12.299  0.1824  1.8599 -0.0179
 7390TIP3    H243662   6.815   0.197  12.447  1.2511  0.3883 -0.1122
 7391TIP3   OH243663   6.159   5.993  11.317 -0.1872 -0.4707 -0.4392
 7391TIP3    H143664   6.120   6.008  11.404 -0.8025 -1.9146 -0.4477
 7391TIP3    H243665   6.091   6.020  11.256 -0.0636 -0.2267 -0.4696
 7392TIP3   OH243666   6.182   3.034  12.608 -0.5452 -0.2453  0.8205
 7392TIP3    H143667   6.087   3.032  12.611 -0.5630 -1.7413 -0.5820
 7392TIP3    H243668   6.203   3.056  12.517  0.4519 -0.3473  1.0172
 7393TIP3   OH243669   5.486   2.250   3.428  0.2566  0.4266  0.1775
 7393TIP3    H143670   5.431   2.326   3.409  0.3713  0.3996 -0.2607
 7393TIP3    H243671   5.452   2.181   3.372  1.9134  0.9177 -1.4785
 7394TIP3   OH243672   1.142   4.365   6.564 -0.3323  0.1055 -0.0517
 7394TIP3    H143673   1.210   4.300   6.546 -0.7104 -0.1432 -0.5834
 7394TIP3    H243674   1.183   4.449   6.545 -0.3685 -0.0819 -0.9800
 7395TIP3   OH243675   3.191   5.907   2.597 -0.0859  0.2281 -0.7125
 7395TIP3    H143676   3.275   5.902   2.551 -0.4819 -4.4934 -1.1532
 7395TIP3    H243677   3.132   5.950   2.535  0.8981 -0.5981 -2.2547
 7396TIP3   OH243678   0.702   0.235   3.316  0.8742 -0.1965  0.3045
 7396TIP3    H143679   0.724   0.144   3.297 -0.9920 -1.0662  2.0060
 7396TIP3    H243680   0.625   0.253   3.261  1.5728  0.5334 -0.4362
 7397TIP3   OH243681   0.208   6.545  15.790 -0.6909 -0.0436 -0.6374
 7397TIP3    H143682   0.177   6.460  15.821 -1.5942  0.1986 -0.8545
 7397TIP3    H243683   0.303   6.539  15.794 -0.7714 -0.3096  1.4171
 7398TIP3   OH243684   2.965   2.522  16.889  0.3165 -0.2358 -0.2910
 7398TIP3    H143685   2.957   2.498  16.797 -0.1664 -0.6595 -0.1426
 7398TIP3    H243686   3.056   2.550  16.899  0.1342  0.6726 -1.1035
 7399TIP3   OH243687   1.367   1.840   6.307 -0.0745  0.0761  0.1785
 7399TIP3    H143688   1.403   1.912   6.358  2.0242 -0.5852 -0.3291
 7399TIP3    H243689   1.337   1.777   6.373  1.5569 -0.2538  0.6298
 7400TIP3   OH243690   2.193   0.143  16.343 -0.0068 -0.9098  0.0486
 7400TIP3    H143691   2.139   0.196  16.401  1.4699  1.0374 -0.3120
 7400TIP3    H243692   2.139   0.131  16.265  0.3781  1.7738 -0.6696
 7401TIP3   OH243693   2.387   0.645   5.579 -0.3482  0.1883  0.3633
 7401TIP3    H143694   2.411   0.645   5.672 -0.6981 -1.8176  0.4781
 7401TIP3    H243695   2.301   0.687   5.577 -1.5320 -2.1066  1.3091
 7402TIP3   OH243696   5.159   6.503   5.146 -0.2823  0.3974 -0.4109
 7402TIP3    H143697   5.192   6.428   5.097  0.1955  0.3274  0.0106
 7402TIP3    H243698   5.069   6.480   5.168 -0.2504  0.1015 -0.5886
 7403TIP3   OH243699   2.210   3.599  15.808 -0.1785 -0.2925 -0.2427
 7403TIP3    H143700   2.165   3.683  15.799  2.0489  0.9274 -0.4030
 7403TIP3    H243701   2.259   3.607  15.890 -1.5387 -2.2352  0.8079
 7404TIP3   OH243702   4.949   1.145   0.863 -0.0224 -0.2838 -0.1698
 7404TIP3    H143703   4.956   1.139   0.958 -1.4052  1.0575  0.0281
 7404TIP3    H243704   4.915   1.060   0.836 -3.7098  0.7365  0.9799
 7405TIP3   OH243705   1.427   5.061  13.316  0.4110  0.2946  0.5032
 7405TIP3    H143706   1.347   5.098  13.354 -0.5221  0.1033 -1.2420
 7405TIP3    H243707   1.488   5.135  13.312 -1.0697  1.4658 -1.9442
 7406TIP3   OH243708   0.624   4.808  17.272  0.2389 -0.2492  0.0666
 7406TIP3    H143709   0.697   4.856  17.234  0.9317 -1.0553  0.3727
 7406TIP3    H243710   0.645   4.716  17.257 -0.9443 -0.4812 -0.2759
 7407TIP3   OH243711   0.941   1.849   6.239 -0.1714  0.7349  0.1907
 7407TIP3    H143712   0.981   1.799   6.310 -0.5128  3.6482  2.5722
 7407TIP3    H243713   1.014   1.895   6.198 -0.1290  0.0423 -0.5060
 7408TIP3   OH243714   0.885   5.468   2.097  0.1867  0.6076 -0.0267
 7408TIP3    H143715   0.919   5.520   2.025  0.5001 -0.7000 -0.8317
 7408TIP3    H243716   0.943   5.488   2.171  1.2450  0.2141 -0.7459
 7409TIP3   OH243717   3.892   3.208  12.219 -0.0110 -0.0376  0.3243
 7409TIP3    H143718   3.940   3.155  12.283 -0.4242 -0.7614  0.0503
 7409TIP3    H243719   3.946   3.285  12.206 -0.5789  0.8053  2.6018
 7410TIP3   OH243720   2.364   6.113   6.470 -0.0079 -0.3628  0.0255
 7410TIP3    H143721   2.336   6.062   6.546  0.0607 -0.5598 -0.0815
 7410TIP3    H243722   2.459   6.124   6.482 -0.0925  0.1202  0.2769
 7411TIP3   OH243723   6.420   2.458   3.100 -0.0644  0.5543 -0.2653
 7411TIP3    H143724   6.460   2.488   3.182 -0.3236 -1.1008  0.5076
 7411TIP3    H243725   6.335   2.502   3.098 -0.0410  0.6400  0.3457
 7412TIP3   OH243726   6.751   4.817  15.489  0.1674  0.1385  0.4878
 7412TIP3    H143727   6.759   4.798  15.582  0.2408 -0.6204  0.3362
 7412TIP3    H243728   6.680   4.880  15.483 -0.8507 -0.9595  0.9241
 7413TIP3   OH243729   2.837   4.799   4.067 -0.7375 -0.5148  0.0719
 7413TIP3    H143730   2.837   4.812   3.972  0.5657 -1.9562 -0.1326
 7413TIP3    H243731   2.816   4.706   4.078 -3.0344  0.1170  1.2755
 7414TIP3   OH243732   2.174   4.337  15.213 -0.4200  0.0574 -0.1538
 7414TIP3    H143733   2.194   4.304  15.125  0.3149 -2.0262  0.7617
 7414TIP3    H243734   2.257   4.329  15.260 -1.2595 -0.5355  1.2371
 7415TIP3   OH243735   6.030   3.580  13.539 -0.5284 -0.5088  0.7746
 7415TIP3    H143736   6.091   3.652  13.556  0.7469 -1.9440  2.4086
 7415TIP3    H243737   5.999   3.595  13.450  0.1431  1.7405  0.8919
 7416TIP3   OH243738   3.160   4.071   0.529 -0.3155  0.5585 -0.0026
 7416TIP3    H143739   3.151   4.139   0.596 -1.6062 -1.2525  1.7232
 7416TIP3    H243740   3.244   4.030   0.546 -0.7394 -0.0451  0.6736
 7417TIP3   OH243741   5.400   5.655  16.319  0.4383 -0.2235 -0.9101
 7417TIP3    H143742   5.406   5.672  16.413  1.4708  0.2212 -1.0604
 7417TIP3    H243743   5.425   5.737  16.277  0.6094 -0.6156 -1.5912
 7418TIP3   OH243744   1.352   1.960  17.139 -0.1700  0.1675 -0.3849
 7418TIP3    H143745   1.381   1.931  17.053  1.3776  1.4544 -0.3096
 7418TIP3    H243746   1.332   1.880  17.186  1.8279 -0.6717 -0.9419
 7419TIP3   OH243747   1.386   1.245   3.830 -0.1616 -0.4687  0.1912
 7419TIP3    H143748   1.453   1.213   3.890 -0.5839 -0.2059  0.8017
 7419TIP3    H243749   1.307   1.196   3.854 -0.4291 -0.0775  0.1153
 7420TIP3   OH243750   5.811   0.710   0.296  0.3561 -0.2164 -0.2172
 7420TIP3    H143751   5.898   0.749   0.285  0.3153 -0.2142 -0.5296
 7420TIP3    H243752   5.764   0.772   0.352  0.7370 -0.4941  0.4138
 7421TIP3   OH243753   3.537   2.295   3.428  0.7064  0.6937  0.4493
 7421TIP3    H143754   3.534   2.314   3.522  1.7277  0.9529  0.4328
 7421TIP3    H243755   3.480   2.362   3.389  0.5691  0.8129  0.8430
 7422TIP3   OH243756   4.143   0.855   4.699  0.1108  0.2998 -0.2610
 7422TIP3    H143757   4.119   0.763   4.700  0.8986  0.0979  0.7954
 7422TIP3    H243758   4.124   0.884   4.610 -1.9629 -0.3875 -0.0611
 7423TIP3   OH243759   0.517   6.455  12.793 -0.0907 -0.1890 -0.0385
 7423TIP3    H143760   0.523   6.360  12.783  1.1293 -0.0965 -0.2727
 7423TIP3    H243761   0.504   6.488  12.704 -0.5517 -0.1373  0.0466
 7424TIP3   OH243762   2.612   4.729  14.470  0.0968 -0.2710  0.3987
 7424TIP3    H143763   2.560   4.809  14.470 -0.4165 -0.5882 -1.2543
 7424TIP3    H243764   2.634   4.715  14.562  1.5786  2.6201  0.5257
 7425TIP3   OH243765   6.162   2.407  15.445 -0.1369 -0.2186  0.4610
 7425TIP3    H143766   6.143   2.492  15.404  1.6780  0.0226  0.1010
 7425TIP3    H243767   6.246   2.420  15.489 -0.0609 -1.7090  0.7672
 7426TIP3   OH243768   6.549   2.490   3.350 -0.0992  0.3776 -0.0493
 7426TIP3    H143769   6.616   2.436   3.392 -0.5514 -1.6886 -1.9302
 7426TIP3    H243770   6.468   2.468   3.396  0.2317  1.8531  1.2970
 7427TIP3   OH243771   3.282   2.955  16.161 -0.1867 -0.0047 -0.1778
 7427TIP3    H143772   3.267   3.037  16.114  0.8662  0.5795  0.4825
 7427TIP3    H243773   3.213   2.952  16.227 -0.2730  0.3123 -0.2520
 7428TIP3   OH243774   2.214   0.133  12.555 -0.3546  0.1608 -0.2180
 7428TIP3    H143775   2.207   0.125  12.651  0.9259 -1.0420 -0.2048
 7428TIP3    H243776   2.176   0.052  12.522  0.2699  0.0514 -0.6733
 7429TIP3   OH243777   3.585   1.647  16.355 -0.1478 -0.0770  0.3711
 7429TIP3    H143778   3.490   1.643  16.368 -0.3184  0.7469 -0.5117
 7429TIP3    H243779   3.620   1.675  16.439 -0.5255 -2.0096  1.2026
 7430TIP3   OH243780   2.362   5.552   4.877 -0.2146 -0.6944 -0.3563
 7430TIP3    H143781   2.457   5.557   4.890 -0.4083 -0.7518  1.1639
 7430TIP3    H243782   2.327   5.533   4.964 -1.5726 -1.4269 -1.0510
 7431TIP3   OH243783   5.239   5.658   5.168 -0.3151  0.0869  0.2615
 7431TIP3    H143784   5.285   5.737   5.140 -0.7822 -0.1876 -1.2969
 7431TIP3    H243785   5.234   5.666   5.264  2.2791  0.5042  0.4044
 7432TIP3   OH243786   4.594   4.741  12.225  0.3897 -0.0877 -0.1511
 7432TIP3    H143787   4.518   4.697  12.262  0.0571 -0.5323 -1.3293
 7432TIP3    H243788   4.669   4.693  12.260  0.0062 -2.2834 -2.2147
 7433TIP3   OH243789   2.373   0.428   1.440  0.0251  0.3860  0.1910
 7433TIP3    H143790   2.363   0.504   1.384 -1.7344 -1.1361 -1.6326
 7433TIP3    H243791   2.297   0.431   1.498 -1.1703 -1.0536 -1.2520
 7434TIP3   OH243792   4.251   0.495  10.686  0.0617 -0.3761  0.4707
 7434TIP3    H143793   4.185   0.508  10.754 -0.9262 -1.4521 -0.2746
 7434TIP3    H243794   4.326   0.546  10.716 -0.8824  0.3520  1.6371
 7435TIP3   OH243795   2.158   4.933  11.107 -0.1114 -0.5127  0.3966
 7435TIP3    H143796   2.221   4.878  11.153  0.3887 -0.7945 -0.6096
 7435TIP3    H243797   2.157   4.898  11.018  1.7242  2.3930 -0.8144
 7436TIP3   OH243798   2.187   6.783  12.052 -0.1460  0.2912 -0.2585
 7436TIP3    H143799   2.215   6.865  12.011 -2.0900  1.6643  1.0979
 7436TIP3    H243800   2.191   6.719  11.981  4.0517  0.8851 -0.7092
 7437TIP3   OH243801   0.405   2.465   1.985  1.0295 -0.7923 -0.0441
 7437TIP3    H143802   0.320   2.465   1.940  1.2194  1.3511 -0.5054
 7437TIP3    H243803   0.466   2.498   1.919  1.7537  0.0926  1.0569
 7438TIP3   OH243804   1.423   4.472   3.657 -0.1370 -0.3000 -0.1117
 7438TIP3    H143805   1.390   4.382   3.652  1.8146 -1.1517  1.5801
 7438TIP3    H243806   1.367   4.515   3.721  0.6028 -1.1124  1.1041
 7439TIP3   OH243807   5.942   5.488  11.601  0.8171  0.2455  0.0140
 7439TIP3    H143808   5.965   5.526  11.516  2.2315 -2.1650 -0.7287
 7439TIP3    H243809   5.869   5.430  11.582  0.9393 -0.0739  0.5036
 7440TIP3   OH243810   5.565   2.462   2.945 -0.0120  0.3705  0.1548
 7440TIP3    H143811   5.473   2.467   2.918 -0.0908  1.1189  0.5466
 7440TIP3    H243812   5.605   2.540   2.908 -0.1062  1.3704  2.0847
 7441TIP3   OH243813   0.126   5.510  11.281  0.3170  0.0955  0.2222
 7441TIP3    H143814   0.204   5.539  11.328  1.2711 -0.9333 -0.6882
 7441TIP3    H243815   0.137   5.546  11.193 -1.0496  1.3128  0.5351
 7442TIP3   OH243816   3.743   1.387   5.499  0.1321  0.8357  0.0371
 7442TIP3    H143817   3.781   1.426   5.577  2.7391 -1.8257  0.1906
 7442TIP3    H243818   3.652   1.373   5.521  0.3505  2.0515  1.8179
 7443TIP3   OH243819   2.755   4.242   1.557  0.0050 -0.2272  0.0300
 7443TIP3    H143820   2.722   4.182   1.490 -0.1212 -1.2320  0.9873
 7443TIP3    H243821   2.696   4.232   1.631 -2.2000  3.7745 -1.0575
 7444TIP3   OH243822   0.682   2.088   2.491  0.3605  0.1090  0.2104
 7444TIP3    H143823   0.634   2.014   2.456 -0.9020  1.7968 -1.6933
 7444TIP3    H243824   0.618   2.134   2.546  1.1006 -0.0999  1.2724
 7445TIP3   OH243825   3.562   0.107  15.810 -0.7752  0.0337 -0.1210
 7445TIP3    H143826   3.469   0.126  15.825 -0.2115  0.9023  2.4588
 7445TIP3    H243827   3.568   0.012  15.814 -1.4811  0.0007  0.2115
 7446TIP3   OH243828   4.842   1.289   6.780 -0.3047  0.5790 -0.6062
 7446TIP3    H143829   4.890   1.350   6.725 -0.1958  1.6139  0.6004
 7446TIP3    H243830   4.841   1.207   6.731  2.5856  0.5554 -0.7283
 7447TIP3   OH243831   3.252   2.530   0.431 -0.0850  0.6514  0.1016
 7447TIP3    H143832   3.295   2.572   0.505 -1.4913  0.8413  0.8148
 7447TIP3    H243833   3.195   2.464   0.470 -1.4566  1.3043 -0.7566
 7448TIP3   OH243834   3.536   1.593  15.393  0.5308 -0.5399 -0.2027
 7448TIP3    H143835   3.467   1.536  15.426  0.4827  0.0681  0.7785
 7448TIP3    H243836   3.617   1.550  15.420  0.4728  0.9114  2.4213
 7449TIP3   OH243837   3.005   2.015   4.735  0.2389 -0.5650 -0.6067
 7449TIP3    H143838   2.920   2.043   4.701  0.0664 -1.1259 -0.6464
 7449TIP3    H243839   2.990   1.926   4.766  1.0360 -0.9773 -1.4034
 7450TIP3   OH243840   2.608   0.503  15.686 -0.1764 -0.2095 -0.1038
 7450TIP3    H143841   2.571   0.419  15.711 -1.5560 -0.0359 -1.4233
 7450TIP3    H243842   2.575   0.565  15.751  0.1944 -0.5662  0.4161
 7451TIP3   OH243843   5.884   1.367  14.515 -0.0119 -0.1126  0.5103
 7451TIP3    H143844   5.802   1.417  14.519 -0.3042 -0.6569  1.5198
 7451TIP3    H243845   5.871   1.305  14.443  0.4583  1.4367 -0.9362
 7452TIP3   OH243846   4.647   4.515   4.479 -0.7337 -0.1490  0.7057
 7452TIP3    H143847   4.565   4.529   4.525 -0.9004  0.9941  0.0806
 7452TIP3    H243848   4.692   4.599   4.484  0.0578 -0.5505  0.3820
 7453TIP3   OH243849   3.078   1.557   6.090 -0.6162  0.4757  0.3227
 7453TIP3    H143850   3.079   1.652   6.075 -0.1565  0.4445  0.1642
 7453TIP3    H243851   3.021   1.546   6.166  2.3007  1.2195  2.6840
 7454TIP3   OH243852   0.980   5.340  14.456  0.4088  0.2295  0.3162
 7454TIP3    H143853   1.010   5.253  14.485  0.6177 -0.1977 -1.1178
 7454TIP3    H243854   0.885   5.335  14.459  0.4325  0.8113  2.6704
 7455TIP3   OH243855   4.955   0.840  11.059  0.9435  1.1859 -0.6217
 7455TIP3    H143856   5.017   0.887  11.115  1.1479  0.3998 -0.1872
 7455TIP3    H243857   4.980   0.864  10.970  3.7849 -1.4750 -0.6202
 7456TIP3   OH243858   3.599   2.208   2.859  0.2018  0.2446 -0.6757
 7456TIP3    H143859   3.510   2.243   2.859  0.4725  0.9504 -0.0124
 7456TIP3    H243860   3.589   2.116   2.834 -0.5899  0.6213 -1.7812
 7457TIP3   OH243861   1.540   1.912   0.861 -0.7252  0.1478 -0.1219
 7457TIP3    H143862   1.553   1.977   0.930  0.3245  0.5332 -0.6833
 7457TIP3    H243863   1.595   1.838   0.886 -1.4106 -0.2721  0.1697
 7458TIP3   OH243864   4.569   1.821   4.390 -0.4548  0.1630  0.0173
 7458TIP3    H143865   4.545   1.890   4.328  0.7806  0.8190  0.2581
 7458TIP3    H243866   4.545   1.857   4.476 -0.0789  0.1768  0.1170
 7459TIP3   OH243867   5.136   6.257   3.898 -0.0456 -0.2567  0.4964
 7459TIP3    H143868   5.088   6.175   3.887 -1.6209  0.4478  1.8566
 7459TIP3    H243869   5.096   6.298   3.975  0.5157  1.9263 -0.3309
 7460TIP3   OH243870   2.077   5.434  15.753 -0.2293  0.3381 -0.1025
 7460TIP3    H143871   2.173   5.437  15.760 -0.2218  1.1738 -0.4649
 7460TIP3    H243872   2.058   5.349  15.714  0.2705 -0.5004  1.4372
 7461TIP3   OH243873   3.279   3.549  13.989  0.2661  0.0259  0.2015
 7461TIP3    H143874   3.235   3.623  14.031  0.3991  0.6877 -0.8065
 7461TIP3    H243875   3.321   3.587  13.912  1.5636 -0.8303  0.4805
 7462TIP3   OH243876   4.308   2.229   1.924  0.2403 -0.4928 -0.0817
 7462TIP3    H143877   4.277   2.316   1.899 -2.9000 -0.9058  2.1288
 7462TIP3    H243878   4.294   2.175   1.847 -0.1830  0.3785 -0.6259
 7463TIP3   OH243879   0.863   5.799  14.142 -0.3387  0.2019  0.2065
 7463TIP3    H143880   0.915   5.733  14.095 -0.0679  0.7386 -0.2543
 7463TIP3    H243881   0.892   5.792  14.233 -0.4086 -0.4056  0.1833
 7464TIP3   OH243882   3.542   3.884   6.047 -0.5961 -0.8268  0.4505
 7464TIP3    H143883   3.625   3.840   6.066  0.1681  0.5165  0.2785
 7464TIP3    H243884   3.547   3.966   6.097 -0.2969  0.8800 -2.2728
 7465TIP3   OH243885   4.703   2.631   0.335  0.0032  0.1791 -0.2651
 7465TIP3    H143886   4.631   2.692   0.325  0.9634  1.7079  1.7403
 7465TIP3    H243887   4.731   2.611   0.246 -1.6792  1.0261 -0.9882
 7466TIP3   OH243888   0.307   0.022  14.281  0.3840 -0.3941 -0.4342
 7466TIP3    H143889   0.312  -0.010  14.191  1.0314 -1.1736 -0.1239
 7466TIP3    H243890   0.215   0.012  14.306  0.3073 -0.6470 -0.8341
 7467TIP3   OH243891   0.302   3.532  16.941  0.2360 -0.0184 -0.2891
 7467TIP3    H143892   0.339   3.447  16.962  0.4397  0.0057 -0.5428
 7467TIP3    H243893   0.209   3.515  16.926  0.3610 -0.2714 -0.7798
 7468TIP3   OH243894   6.405   0.667  13.641 -0.8156 -0.2252  0.0430
 7468TIP3    H143895   6.311   0.666  13.622 -0.9968 -1.8610  0.9058
 7468TIP3    H243896   6.432   0.757  13.623 -2.5777  0.3100 -0.0669
 7469TIP3   OH243897   0.307   6.392  15.111 -0.0209  0.0969  0.2456
 7469TIP3    H143898   0.288   6.419  15.201  0.5739  0.4957  0.2527
 7469TIP3    H243899   0.220   6.376  15.073 -0.2991  0.3509  0.7555
 7470TIP3   OH243900   6.315   5.790   2.605  0.2920 -0.7093 -0.3355
 7470TIP3    H143901   6.297   5.819   2.694 -0.1705  1.6055 -1.1408
 7470TIP3    H243902   6.248   5.724   2.588 -0.4607 -0.1945  0.5677
 7471TIP3   OH243903   2.035   1.688   5.683 -0.1989  0.4239  0.2694
 7471TIP3    H143904   1.976   1.613   5.693  0.8755 -0.4591  0.1298
 7471TIP3    H243905   2.120   1.649   5.661  0.7853  1.5830  1.8675
 7472TIP3   OH243906   4.861   1.195  13.890 -0.3380  0.2261 -0.1336
 7472TIP3    H143907   4.894   1.236  13.970  1.1584 -1.5549  0.1818
 7472TIP3    H243908   4.773   1.163  13.913  0.2224 -0.5803  0.8954
 7473TIP3   OH243909   1.320   2.825  13.620 -0.2037  0.1206  0.5103
 7473TIP3    H143910   1.357   2.857  13.537 -2.2469 -2.4022 -1.4699
 7473TIP3    H243911   1.248   2.885  13.639 -0.1501  0.3290  0.0821
 7474TIP3   OH243912   5.913   2.770   1.819 -0.3418 -0.1042  0.4199
 7474TIP3    H143913   5.887   2.754   1.728 -0.9860  1.9770  0.2037
 7474TIP3    H243914   5.835   2.751   1.871 -0.2807 -0.3017  0.4403
 7475TIP3   OH243915   1.704   1.311  12.404  0.5030 -0.1848 -0.6169
 7475TIP3    H143916   1.759   1.285  12.330  0.1220 -2.0843 -0.2403
 7475TIP3    H243917   1.737   1.397  12.429  1.4578 -0.0720 -2.1989
 7476TIP3   OH243918   1.154   1.139   3.446  0.3736 -0.0166  0.1788
 7476TIP3    H143919   1.162   1.128   3.351  1.8191 -0.4971  0.3335
 7476TIP3    H243920   1.087   1.076   3.471 -2.8914  2.8462 -0.9898
 7477TIP3   OH243921   6.315   2.805   3.200  0.3078  0.1417  0.0931
 7477TIP3    H143922   6.264   2.738   3.154 -0.4907  1.4451 -0.9622
 7477TIP3    H243923   6.316   2.880   3.139  0.5096  1.3694  1.5876
 7478TIP3   OH243924   6.721   1.724  15.035 -0.0661  0.0690 -0.2779
 7478TIP3    H143925   6.694   1.698  14.947 -0.9363  0.6847 -0.2040
 7478TIP3    H243926   6.734   1.819  15.029 -0.1027  0.1099  0.2414
 7479TIP3   OH243927   1.017   0.264   5.259 -0.3078 -0.1435 -0.0495
 7479TIP3    H143928   0.951   0.195   5.255  0.5032 -0.9271 -0.2763
 7479TIP3    H243929   1.074   0.246   5.184  0.9273 -0.2899  0.9135
 7480TIP3   OH243930   0.957   2.646   5.400  0.3821  0.1327  0.4796
 7480TIP3    H143931   0.924   2.640   5.490  0.0164  2.9382  0.5793
 7480TIP3    H243932   1.040   2.692   5.408 -1.0364  3.0346 -0.8688
 7481TIP3   OH243933   1.991   1.347   4.986 -0.6414  0.1827 -0.1209
 7481TIP3    H143934   1.925   1.286   5.018 -0.3768 -0.0722 -0.0621
 7481TIP3    H243935   2.074   1.306   5.007 -0.4617 -0.2007 -1.5297
 7482TIP3   OH243936   5.940   6.193  16.767 -0.4976  0.0150  0.0884
 7482TIP3    H143937   5.963   6.141  16.690 -1.9585  1.4727 -1.3873
 7482TIP3    H243938   6.022   6.204  16.815  0.2827 -1.5585 -0.8556
 7483TIP3   OH243939   2.601   1.760   3.879 -0.0771 -0.1084 -0.5440
 7483TIP3    H143940   2.657   1.788   3.951 -1.8298 -0.2893  0.9451
 7483TIP3    H243941   2.524   1.723   3.922 -0.2015 -2.2163 -2.5232
 7484TIP3   OH243942   0.138   1.568  16.190  0.5025 -0.2643 -0.2455
 7484TIP3    H143943   0.059   1.515  16.179 -0.0407  0.8569 -1.9656
 7484TIP3    H243944   0.199   1.534  16.124  1.4505 -1.0657  1.0178
 7485TIP3   OH243945   5.483   5.300  12.648  0.4519 -0.8974  0.0814
 7485TIP3    H143946   5.564   5.288  12.698  0.4418 -0.7847  0.1254
 7485TIP3    H243947   5.509   5.357  12.575  0.2224 -0.1757  0.5641
 7486TIP3   OH243948   2.515   3.412   1.528  0.7205 -0.1999 -0.9417
 7486TIP3    H143949   2.599   3.451   1.504  1.0188 -0.6392 -0.6195
 7486TIP3    H243950   2.500   3.441   1.617 -0.0236  0.8122 -1.3939
 7487TIP3   OH243951   5.674   5.247  13.872 -0.2761 -0.0710 -0.1657
 7487TIP3    H143952   5.604   5.185  13.891  0.7959 -0.5037  2.5570
 7487TIP3    H243953   5.629   5.331  13.864 -1.0722 -0.2342  2.2197
 7488TIP3   OH243954   4.920   5.514   4.621 -0.0431  0.1837  0.5578
 7488TIP3    H143955   4.940   5.428   4.658 -3.3082 -0.1816  1.6957
 7488TIP3    H243956   4.910   5.571   4.697  1.5532  1.4521 -0.1694
 7489TIP3   OH243957   2.456   4.020  15.096  0.3277  0.3084 -0.2211
 7489TIP3    H143958   2.438   4.108  15.129  0.9834  0.6834 -0.8621
 7489TIP3    H243959   2.371   3.988  15.066  0.1819  0.9332 -0.4808
 7490TIP3   OH243960   2.669   4.082   4.541 -0.5159  0.0861 -0.3416
 7490TIP3    H143961   2.734   4.150   4.560 -0.9302 -0.1769  2.2207
 7490TIP3    H243962   2.706   4.003   4.579 -0.8072 -0.7724 -1.8335
 7491TIP3   OH243963   5.155   2.851   4.205  0.1945  0.2760 -0.6226
 7491TIP3    H143964   5.161   2.788   4.133  1.0880 -2.0554  1.3974
 7491TIP3    H243965   5.063   2.875   4.209 -0.0109 -0.2428 -2.0063
 7492TIP3   OH243966   3.024   5.884   5.200  0.2748 -0.0321  0.1832
 7492TIP3    H143967   3.014   5.966   5.152  0.8002 -0.9605 -1.5463
 7492TIP3    H243968   3.119   5.873   5.209  0.2426 -1.2829 -1.0394
 7493TIP3   OH243969   2.861   6.447  14.785 -0.7203  0.2648 -0.2238
 7493TIP3    H143970   2.950   6.423  14.761 -1.4924 -1.4422 -1.4989
 7493TIP3    H243971   2.857   6.431  14.880  0.3740  0.5392 -0.1261
 7494TIP3   OH243972   1.565   4.992   2.952 -0.3163  0.3322 -0.0590
 7494TIP3    H143973   1.489   5.049   2.948  1.0899  2.1511 -1.5315
 7494TIP3    H243974   1.570   4.964   3.044 -2.4210  0.5996  0.1515
 7495TIP3   OH243975   6.332   4.899   4.071 -0.0030 -0.0951  0.0652
 7495TIP3    H143976   6.325   4.829   4.136  0.8103  0.2941  0.5776
 7495TIP3    H243977   6.419   4.888   4.032 -0.2070  0.1101 -0.4612
 7496TIP3   OH243978   1.754   2.403  16.361  0.1771  0.0164  0.4709
 7496TIP3    H143979   1.750   2.327  16.420 -3.4117  0.0935  0.4448
 7496TIP3    H243980   1.809   2.373  16.288 -0.7179 -2.3694  0.7255
 7497TIP3   OH243981   4.881   6.591   0.944 -0.1812  0.4946  0.5221
 7497TIP3    H143982   4.868   6.573   0.851 -0.5404 -0.3961  0.7379
 7497TIP3    H243983   4.798   6.564   0.985 -0.2893  1.5288  1.0156
 7498TIP3   OH243984   0.477   6.462  13.118 -0.5502  0.6033  0.0495
 7498TIP3    H143985   0.470   6.378  13.164 -3.3161  0.3936 -0.6632
 7498TIP3    H243986   0.387   6.495  13.115  0.0953  2.2420 -2.1641
 7499TIP3   OH243987   5.322   1.640  16.409 -0.2582 -0.4212 -0.2861
 7499TIP3    H143988   5.393   1.594  16.453  0.1053  0.9478  0.5997
 7499TIP3    H243989   5.252   1.575  16.402  0.8142 -1.5684 -0.5211
 7500TIP3   OH243990   5.319   4.747  11.423 -0.0024  0.6754 -0.6913
 7500TIP3    H143991   5.361   4.815  11.370  0.5646  0.3329 -0.6795
 7500TIP3    H243992   5.225   4.761  11.409 -0.0210  3.3151  1.5846
 7501TIP3   OH243993   6.778   6.581   4.638  0.1856  0.0395 -0.1325
 7501TIP3    H143994   6.706   6.595   4.577  0.2686  2.2543  0.2335
 7501TIP3    H243995   6.762   6.643   4.709  1.8204 -0.2734  0.5433
 7502TIP3   OH243996   0.313   3.155  15.506  0.3499 -0.4162  0.3990
 7502TIP3    H143997   0.306   3.102  15.427 -1.0925 -0.3478  0.4686
 7502TIP3    H243998   0.303   3.092  15.578 -0.4892 -0.1811  0.4925
 7503TIP3   OH243999   3.362   5.844  14.822 -0.0362 -0.6969  0.7292
 7503TIP3    H144000   3.368   5.925  14.772  0.2739 -0.4213  1.2113
 7503TIP3    H244001   3.274   5.846  14.860 -0.0882 -0.6630  0.6045
 7504TIP3   OH244002   6.187   0.470  16.924  0.3292  0.2178  0.0078
 7504TIP3    H144003   6.198   0.523  17.003 -0.4479  0.0741  0.2168
 7504TIP3    H244004   6.260   0.496  16.868  1.0187  0.1520  0.8612
 7505TIP3   OH244005   0.257   5.289  11.731 -0.3939 -0.4431  0.6612
 7505TIP3    H144006   0.325   5.272  11.666 -0.4717 -2.1081  0.9884
 7505TIP3    H244007   0.303   5.335  11.802  0.5995 -2.3308  1.2664
 7506TIP3   OH244008   6.475   2.606   5.423 -0.4360  0.5817 -0.2529
 7506TIP3    H144009   6.400   2.585   5.479 -1.1577  0.5791 -1.2135
 7506TIP3    H244010   6.461   2.696   5.395  0.0074  0.6386 -0.3037
 7507TIP3   OH244011   5.867   5.104   0.262 -0.6330 -0.6092  0.4168
 7507TIP3    H144012   5.961   5.107   0.279 -1.0035 -2.0870  3.0570
 7507TIP3    H244013   5.855   5.026   0.207  0.0210  1.5824 -3.0419
 7508TIP3   OH244014   1.952   4.229  12.838  0.0992 -0.4047  0.5023
 7508TIP3    H144015   1.869   4.263  12.804  0.2962  1.1629  1.5602
 7508TIP3    H244016   2.002   4.207  12.760 -1.2190 -1.1595 -0.1550
 7509TIP3   OH244017   5.306   5.187   6.051  0.1618 -1.0527 -0.2065
 7509TIP3    H144018   5.297   5.180   6.147  0.2697 -1.0655 -0.1979
 7509TIP3    H244019   5.216   5.197   6.020  0.2872  1.4033  0.0788
 7510TIP3   OH244020   1.606   5.739  16.796 -0.2293  0.4406 -0.1833
 7510TIP3    H144021   1.536   5.763  16.735 -1.4434 -0.1425  0.9571
 7510TIP3    H244022   1.680   5.794  16.770 -0.7525  0.2866 -2.1098
 7511TIP3   OH244023   3.244   5.115   1.948  0.0277  0.1535  0.6941
 7511TIP3    H144024   3.339   5.125   1.956  0.2359 -2.4504  1.8733
 7511TIP3    H244025   3.228   5.109   1.854  0.8981  1.6428  0.4342
 7512TIP3   OH244026   4.572   5.004   0.732  0.3077 -0.1733 -0.0078
 7512TIP3    H144027   4.574   5.072   0.799  1.4122  2.1236 -2.3307
 7512TIP3    H244028   4.541   5.048   0.653  0.4917 -2.4894 -1.4212
 7513TIP3   OH244029   6.446   0.619   1.091 -0.0404 -0.2403 -0.3221
 7513TIP3    H144030   6.535   0.651   1.098 -0.5176  0.9711  0.3034
 7513TIP3    H244031   6.429   0.578   1.176  0.0447 -0.7905 -0.5704
 7514TIP3   OH244032   6.287   4.774  14.985  0.0610 -0.2015 -0.4600
 7514TIP3    H144033   6.284   4.700  15.045  2.9695 -0.0456 -0.0185
 7514TIP3    H244034   6.347   4.747  14.916  0.6286  1.4625 -0.6514
 7515TIP3   OH244035   5.297   4.457   1.544 -0.1265 -0.3652 -0.3692
 7515TIP3    H144036   5.343   4.530   1.585  0.7289 -0.3242 -1.3596
 7515TIP3    H244037   5.219   4.444   1.598  0.4259  0.3662  0.6263
 7516TIP3   OH244038   0.263   0.150  12.265  0.2419  0.2008  0.4755
 7516TIP3    H144039   0.290   0.235  12.299  0.9643 -0.2170  0.9604
 7516TIP3    H244040   0.342   0.096  12.268 -0.0684 -0.3167 -0.3806
 7517TIP3   OH244041   1.219   4.528  12.960 -0.0819  0.1987 -0.2757
 7517TIP3    H144042   1.268   4.471  13.018 -2.4343 -1.4556  0.1451
 7517TIP3    H244043   1.209   4.610  13.009  0.6446 -0.0813  0.3484
 7518TIP3   OH244044   6.571   1.657   1.213  0.3974  0.6536 -0.1657
 7518TIP3    H144045   6.628   1.630   1.285  0.2684 -0.5053 -0.4722
 7518TIP3    H244046   6.487   1.677   1.254  0.5452  0.7288  0.0973
 7519TIP3   OH244047   3.460   6.374   4.452 -0.4797 -0.1033 -0.2460
 7519TIP3    H144048   3.400   6.313   4.408  0.6415  0.0907 -2.0897
 7519TIP3    H244049   3.416   6.459   4.446 -0.7242 -0.2300 -0.2565
 7520TIP3   OH244050   0.203   5.197   1.222 -0.1617  0.1879  0.7443
 7520TIP3    H144051   0.259   5.272   1.202  0.5462 -0.8244 -1.1535
 7520TIP3    H244052   0.167   5.217   1.309  0.9322  2.1619  0.7758
 7521TIP3   OH244053   2.973   0.353   0.301 -0.6533 -0.1735  0.1582
 7521TIP3    H144054   3.032   0.428   0.303 -1.1658  0.2103  1.4641
 7521TIP3    H244055   2.976   0.322   0.211  1.9286 -0.4767  0.3225
 7522TIP3   OH244056   1.806   0.425  12.393 -0.2074 -0.5567  0.8360
 7522TIP3    H144057   1.779   0.506  12.349  0.1317 -0.2979  1.1072
 7522TIP3    H244058   1.806   0.446  12.486  2.5773 -0.0587  0.7559
 7523TIP3   OH244059   6.820   1.321  13.920  0.2561 -1.0375  0.1611
 7523TIP3    H144060   6.790   1.230  13.923  0.5019 -1.1289 -0.1101
 7523TIP3    H244061   6.758   1.365  13.862 -0.1457 -0.9235  0.6744
 7524TIP3   OH244062   4.852   2.574   1.388 -0.0468  0.0964 -0.2066
 7524TIP3    H144063   4.786   2.553   1.454  2.4697  1.9107  3.0451
 7524TIP3    H244064   4.840   2.667   1.371  0.2371 -0.0567 -1.2622
 7525TIP3   OH244065   3.748   1.902  14.036  0.2149  0.0999  0.0893
 7525TIP3    H144066   3.670   1.913  13.982 -0.1821  1.0291  0.8453
 7525TIP3    H244067   3.728   1.828  14.093  1.1729 -1.7909 -1.9693
 7526TIP3   OH244068   6.370   1.460  10.953  0.3734  0.1798 -0.5615
 7526TIP3    H144069   6.379   1.482  10.861  1.3880  0.5584 -0.3780
 7526TIP3    H244070   6.289   1.409  10.958  0.2670  0.2377 -1.6416
 7527TIP3   OH244071   5.985   0.669  12.961 -0.3317  0.5620  0.0036
 7527TIP3    H144072   5.937   0.620  13.028 -1.0321  0.5397 -0.5010
 7527TIP3    H244073   5.916   0.704  12.904  0.1912  1.7664  0.1114
 7528TIP3   OH244074   1.564   1.556  11.182 -0.2263 -0.0248  0.1833
 7528TIP3    H144075   1.548   1.531  11.092  3.0786 -0.1651 -0.4396
 7528TIP3    H244076   1.546   1.477  11.233 -0.4297 -0.4499 -0.5437
 7529TIP3   OH244077   0.864   2.230   0.200  0.3048 -0.5505 -0.0607
 7529TIP3    H144078   0.794   2.289   0.229 -0.3122 -1.4742  0.3642
 7529TIP3    H244079   0.843   2.147   0.242  1.0327 -1.1345 -0.8559
 7530TIP3   OH244080   1.132   6.717  15.459  0.3826  0.4692 -0.0736
 7530TIP3    H144081   1.223   6.685  15.461  0.4651  0.6021 -1.6436
 7530TIP3    H244082   1.092   6.672  15.385 -0.4458  1.4618 -0.2376
 7531TIP3   OH244083   1.326   5.352  13.107 -0.2360 -0.5104  0.0467
 7531TIP3    H144084   1.393   5.328  13.043 -1.5139 -2.6738 -0.5083
 7531TIP3    H244085   1.313   5.446  13.093  1.6796 -0.3391 -0.7718
 7532TIP3   OH244086   2.471   5.823   6.020 -0.3264 -0.1312  0.2003
 7532TIP3    H144087   2.384   5.859   6.039 -0.8842 -0.9973 -0.6765
 7532TIP3    H244088   2.495   5.864   5.937  0.9868  1.6469  1.4030
 7533TIP3   OH244089   4.596   5.285   0.793  0.0582  0.3631  0.9434
 7533TIP3    H144090   4.614   5.379   0.803  1.4911 -0.0751  2.5763
 7533TIP3    H244091   4.679   5.247   0.766 -1.2908 -0.0045 -3.0534
 7534TIP3   OH244092   3.203   6.512   1.832 -0.4301 -0.2827  0.0230
 7534TIP3    H144093   3.241   6.427   1.810 -0.8593 -0.6489  0.6924
 7534TIP3    H244094   3.190   6.509   1.927  1.9865  1.5157  0.4729
 7535TIP3   OH244095   3.818   5.212  12.266 -0.3721  0.4561  0.1393
 7535TIP3    H144096   3.791   5.122  12.283 -0.1675 -0.0504 -2.1535
 7535TIP3    H244097   3.910   5.215  12.290 -0.9781  0.7679  2.6757
 7536TIP3   OH244098   5.203   3.426  14.619  0.0589  0.3241  0.8961
 7536TIP3    H144099   5.208   3.456  14.710  1.1299  3.7424 -0.1880
 7536TIP3    H244100   5.294   3.425  14.589 -0.3571  0.2678 -0.4147
 7537TIP3   OH244101   5.374   2.835   4.628 -0.3377 -0.2420  0.0029
 7537TIP3    H144102   5.378   2.752   4.676  1.0171  0.4766  1.1972
 7537TIP3    H244103   5.299   2.881   4.666 -1.6865 -1.2982 -1.3332
 7538TIP3   OH244104   0.516   3.415   2.258  0.1500  0.0535 -0.2991
 7538TIP3    H144105   0.456   3.475   2.302 -0.2720  1.2618 -2.4299
 7538TIP3    H244106   0.491   3.328   2.290 -2.5630  0.5552 -0.8795
 7539TIP3   OH244107   1.341   5.208  14.670 -0.3025  0.1058 -0.2902
 7539TIP3    H144108   1.341   5.245  14.759 -0.1587 -0.0278 -0.2326
 7539TIP3    H244109   1.278   5.136  14.675 -1.1008  0.7702 -0.5874
 7540TIP3   OH244110   3.569   6.171  14.065 -0.8493 -0.7754  0.4402
 7540TIP3    H144111   3.664   6.174  14.068 -0.8750 -0.5234  1.2702
 7540TIP3    H244112   3.546   6.087  14.104 -1.0195 -0.0213  2.0034
 7541TIP3   OH244113   3.427   0.930  14.296 -0.5689 -0.2716 -0.5639
 7541TIP3    H144114   3.404   0.913  14.387 -0.0548  1.2974 -0.1253
 7541TIP3    H244115   3.377   0.866  14.246 -4.1138  1.4864  0.5380
 7542TIP3   OH244116   3.677   1.395  14.481 -0.2095  0.2864 -0.0611
 7542TIP3    H144117   3.642   1.324  14.427 -0.1111 -0.2613  0.5860
 7542TIP3    H244118   3.755   1.425  14.434 -0.9329  0.7983 -0.9600
 7543TIP3   OH244119   1.405   3.005   6.203 -0.2438  0.2139  0.2111
 7543TIP3    H144120   1.323   3.044   6.172  0.6390  0.3416 -2.0125
 7543TIP3    H244121   1.378   2.923   6.245 -1.8787  2.0651  2.9481
 7544TIP3   OH244122   0.095   6.569  15.543 -0.7767 -0.2786 -0.4444
 7544TIP3    H144123   0.124   6.571  15.634  2.3232 -0.0723 -1.3699
 7544TIP3    H244124   0.001   6.553  15.548 -0.6511 -0.3325  2.7773
 7545TIP3   OH244125   5.250   1.793  10.552  0.2751 -0.3353 -0.0074
 7545TIP3    H144126   5.285   1.837  10.475 -0.5857 -1.3936 -1.0298
 7545TIP3    H244127   5.326   1.777  10.607  1.0661 -0.5167 -1.1317
 7546TIP3   OH244128   3.052   3.810  13.328 -0.1796  0.5673  0.6882
 7546TIP3    H144129   3.084   3.778  13.413 -0.5521  1.3180  1.1198
 7546TIP3    H244130   3.020   3.899  13.347 -2.0463  0.0353  0.1761
 7547TIP3   OH244131   0.818   4.535  13.259 -0.4637 -0.3450  0.0408
 7547TIP3    H144132   0.814   4.629  13.277  1.4255 -0.1342 -0.4694
 7547TIP3    H244133   0.767   4.524  13.179  1.0625  0.6115 -1.1026
 7548TIP3   OH244134   2.468   5.095  16.681  0.3948  0.4615 -0.2489
 7548TIP3    H144135   2.520   5.015  16.673 -0.0334  0.0796  0.7967
 7548TIP3    H244136   2.416   5.098  16.601 -1.5352 -1.6952  0.8919
 7549TIP3   OH244137   4.757   4.591  13.701 -0.0608 -0.2355 -0.0555
 7549TIP3    H144138   4.849   4.590  13.677  0.1165  1.3493  0.5138
 7549TIP3    H244139   4.755   4.556  13.790  0.2474  1.7220  0.7341
 7550TIP3   OH244140   0.894   0.247   3.526 -0.1063  0.5525  0.3858
 7550TIP3    H144141   0.891   0.170   3.584  1.1419 -1.3170 -1.9307
 7550TIP3    H244142   0.818   0.236   3.469 -0.8639  1.9463  1.1193
 7551TIP3   OH244143   0.781   1.576  12.765  0.2719  0.5487  0.5302
 7551TIP3    H144144   0.769   1.499  12.820 -0.8651  1.4264  1.5577
 7551TIP3    H244145   0.876   1.583  12.753  0.3968 -0.8336  0.6645
 7552TIP3   OH244146   0.450   0.092  15.651 -0.0464 -0.4094 -0.4517
 7552TIP3    H144147   0.359   0.099  15.621 -0.0061  0.9036 -0.3008
 7552TIP3    H244148   0.469   0.179  15.688  1.3201 -0.6297 -0.6475
 7553TIP3   OH244149   3.299   4.871   5.511  0.8001  0.6101  0.3012
 7553TIP3    H144150   3.379   4.857   5.562  0.1943  0.8677  1.3330
 7553TIP3    H244151   3.244   4.796   5.532  0.3473  0.9720  0.4234
 7554TIP3   OH244152   1.872   1.634   0.632  0.5817  0.2431 -0.1659
 7554TIP3    H144153   1.933   1.704   0.610  1.0440 -0.1563 -0.1713
 7554TIP3    H244154   1.787   1.665   0.600  0.8810  0.5607 -0.6658
 7555TIP3   OH244155   3.163   0.862   2.224  0.0170 -0.4985  0.7751
 7555TIP3    H144156   3.088   0.878   2.281  0.2827 -1.4059  1.3743
 7555TIP3    H244157   3.191   0.950   2.197 -0.1072 -0.0700  2.0332
 7556TIP3   OH244158   3.674   2.709  16.201 -0.0272 -0.9063 -0.2526
 7556TIP3    H144159   3.738   2.778  16.183  1.5178 -1.7678  1.8730
 7556TIP3    H244160   3.661   2.666  16.116  2.3080 -0.8066 -0.6952
 7557TIP3   OH244161   5.250   0.188  16.800 -0.4020 -0.4247  0.0269
 7557TIP3    H144162   5.197   0.140  16.864 -1.5087  0.5917 -0.1192
 7557TIP3    H244163   5.209   0.275  16.796  1.6183  0.5596  0.3371
 7558TIP3   OH244164   4.525   4.209   0.254  0.1377  0.3006  0.5787
 7558TIP3    H144165   4.544   4.116   0.262 -0.4233  0.2134  0.9708
 7558TIP3    H244166   4.579   4.250   0.321 -1.0889  0.0446  1.7552
 7559TIP3   OH244167   4.429   3.784  14.295 -0.2802  0.4859 -0.6823
 7559TIP3    H144168   4.490   3.813  14.363  0.3523 -0.6407 -0.7633
 7559TIP3    H244169   4.388   3.706  14.332 -3.3478  2.4740  0.3013
 7560TIP3   OH244170   5.661   3.637  11.839 -0.5016  0.2677 -0.2050
 7560TIP3    H144171   5.607   3.603  11.909  0.4583  0.3214  0.5779
 7560TIP3    H244172   5.600   3.679  11.778 -1.4655 -0.9297 -0.0678
 7561TIP3   OH244173   6.759   1.486  13.539  0.9394 -0.6340  0.2194
 7561TIP3    H144174   6.769   1.573  13.502 -0.1555  0.0004  1.3781
 7561TIP3    H244175   6.719   1.434  13.469  0.1443  0.2046  0.0395
 7562TIP3   OH244176   0.735   6.354  12.970  0.3058  0.1894 -0.0723
 7562TIP3    H144177   0.748   6.409  13.047 -0.6440  2.4145 -1.4428
 7562TIP3    H244178   0.640   6.343  12.965  0.5341 -2.6683  0.8749
 7563TIP3   OH244179   5.665   2.924   4.985  0.1861 -0.2517 -0.3464
 7563TIP3    H144180   5.633   2.870   5.057 -0.2506 -0.6984 -0.8717
 7563TIP3    H244181   5.653   2.869   4.907  0.9834  0.0878 -0.7134
 7564TIP3   OH244182   4.776   4.508   3.410 -0.2960 -0.1442  0.6016
 7564TIP3    H144183   4.794   4.565   3.486  2.4995 -0.9671  0.6173
 7564TIP3    H244184   4.769   4.569   3.336  0.8430  0.4062  0.9208
 7565TIP3   OH244185   2.007   0.617   6.506  0.6429 -0.1926 -0.1004
 7565TIP3    H144186   2.031   0.661   6.587  1.1765 -1.4907  0.4572
 7565TIP3    H244187   2.079   0.556   6.489  0.7693  0.3986 -1.8093
 7566TIP3   OH244188   1.177   3.281   4.770  0.2749  0.2033 -0.4866
 7566TIP3    H144189   1.120   3.286   4.847 -0.4619 -0.4365 -0.9766
 7566TIP3    H244190   1.118   3.300   4.696  1.0353  1.1237 -0.8718
 7567TIP3   OH244191   4.477   6.076   3.906 -0.0550 -0.0414 -0.4246
 7567TIP3    H144192   4.437   6.125   3.978 -0.1207 -1.9805  0.8834
 7567TIP3    H244193   4.405   6.056   3.847 -0.5459 -1.0716  0.5076
 7568TIP3   OH244194   4.108   3.522   6.009 -0.1201 -0.4727 -0.1350
 7568TIP3    H144195   4.088   3.495   6.099  1.6351  1.4672  0.8700
 7568TIP3    H244196   4.202   3.540   6.010  0.4914 -3.1587 -3.1115
 7569TIP3   OH244197   5.479   3.767  13.495  0.0318 -0.1760  0.7335
 7569TIP3    H144198   5.469   3.773  13.590  0.4187  1.3906  0.6950
 7569TIP3    H244199   5.492   3.858  13.467 -0.7838 -0.5524 -0.8968
 7570TIP3   OH244200   6.726   6.014  12.004  0.5800  0.1091  0.2373
 7570TIP3    H144201   6.667   5.958  11.953  2.7968 -0.3766 -1.9384
 7570TIP3    H244202   6.802   5.958  12.021  0.6811  0.8882  2.4777
 7571TIP3   OH244203   0.376   6.336  10.872 -0.0701 -0.1684  0.2494
 7571TIP3    H144204   0.364   6.430  10.889 -0.9872  0.5626 -3.9194
 7571TIP3    H244205   0.469   6.327  10.855 -0.2081  0.2322 -0.7189
 7572TIP3   OH244206   2.371   1.790   4.090 -0.2591  0.2483  0.3803
 7572TIP3    H144207   2.318   1.822   4.163  0.0479  0.6105  0.4492
 7572TIP3    H244208   2.307   1.770   4.021 -0.5856 -0.5586  0.9176
 7573TIP3   OH244209   3.614   5.944   3.654 -0.9094  0.6174 -0.4589
 7573TIP3    H144210   3.661   6.023   3.630  0.6002 -0.3533 -0.8125
 7573TIP3    H244211   3.598   5.953   3.748 -0.9479  1.4311 -0.5413
 7574TIP3   OH244212   0.680   2.806   5.758  0.4130  0.2114 -0.5106
 7574TIP3    H144213   0.603   2.753   5.779  0.3709  0.8551  0.9627
 7574TIP3    H244214   0.666   2.888   5.804  0.5335  1.5029 -2.7181
 7575TIP3   OH244215   5.080   4.379  14.309  0.0051 -0.5098  0.1218
 7575TIP3    H144216   5.174   4.381  14.322 -0.0028  0.3346  0.0727
 7575TIP3    H244217   5.067   4.326  14.230  0.5014  0.1981 -0.4387
 7576TIP3   OH244218   1.129   2.118  16.145  0.9570 -0.3602  0.2104
 7576TIP3    H144219   1.067   2.059  16.102 -1.1298  2.8852 -1.3974
 7576TIP3    H244220   1.211   2.068  16.147 -0.4785 -2.9550 -1.8857
 7577TIP3   OH244221   2.274   5.497   3.382  0.6457 -0.4032  0.5414
 7577TIP3    H144222   2.294   5.557   3.310  0.4375 -0.9978 -0.0140
 7577TIP3    H244223   2.303   5.411   3.350  0.9988 -0.5945  1.3529
 7578TIP3   OH244224   1.200   3.341   3.330 -0.6584  0.5034 -0.3349
 7578TIP3    H144225   1.119   3.352   3.378 -1.3085 -0.5881 -1.1413
 7578TIP3    H244226   1.175   3.355   3.238 -0.4629 -2.1069 -0.8441
 7579TIP3   OH244227   5.542   1.018   2.903  0.1061 -0.6273 -0.6805
 7579TIP3    H144228   5.634   1.027   2.928 -0.1694 -1.3303  0.6352
 7579TIP3    H244229   5.510   0.947   2.958 -1.5975  0.5744 -0.0919
 7580TIP3   OH244230   3.489   0.398   3.694  0.8152 -0.5341 -0.0744
 7580TIP3    H144231   3.580   0.428   3.702  0.3962  0.5299  0.8880
 7580TIP3    H244232   3.469   0.361   3.780  0.0986 -0.0705 -0.0422
 7581TIP3   OH244233   6.789   0.456   0.782 -0.2667 -0.4970  0.0108
 7581TIP3    H144234   6.861   0.427   0.726  0.6424  1.7949 -0.0563
 7581TIP3    H244235   6.805   0.549   0.795 -1.2473 -0.7097  2.9644
 7582TIP3   OH244236   0.468   0.333  12.414  0.4785 -0.3730 -0.4365
 7582TIP3    H144237   0.525   0.334  12.337  0.9585 -1.5433 -0.1153
 7582TIP3    H244238   0.525   0.357  12.487  0.3536 -0.6729 -0.2394
 7583TIP3   OH244239   2.448   4.226  11.382 -0.5795  0.8649 -0.2595
 7583TIP3    H144240   2.512   4.223  11.452 -0.6122  0.0605 -0.2654
 7583TIP3    H244241   2.487   4.174  11.311 -1.0088  0.7932 -0.4468
 7584TIP3   OH244242   4.473   3.409  14.897  0.3383 -0.5911  0.2145
 7584TIP3    H144243   4.517   3.463  14.963 -0.8308 -0.6935  1.0979
 7584TIP3    H244244   4.453   3.327  14.943 -1.7721 -0.1262  0.1662
 7585TIP3   OH244245   3.314   0.365  15.265  0.1395  0.2061  0.0431
 7585TIP3    H144246   3.387   0.427  15.272 -1.3903  2.1656 -0.7176
 7585TIP3    H244247   3.276   0.383  15.180 -1.0652 -0.9997  0.3141
 7586TIP3   OH244248   6.078   1.576   0.504  0.8894 -0.4180 -0.0580
 7586TIP3    H144249   6.051   1.493   0.542  0.7413 -0.5794 -0.5105
 7586TIP3    H244250   5.996   1.624   0.491  0.9710 -0.2188  0.1678
 7587TIP3   OH244251   2.466   4.224   4.066 -0.5356 -0.6403  0.5412
 7587TIP3    H144252   2.532   4.241   4.134 -1.2602 -0.8697  1.3191
 7587TIP3    H244253   2.493   4.141   4.027  1.0699  0.5342 -0.9059
 7588TIP3   OH244254   3.880   4.181   3.385 -0.5587  0.3019 -0.2106
 7588TIP3    H144255   3.921   4.262   3.412 -1.9608  0.9949 -0.1337
 7588TIP3    H244256   3.906   4.117   3.451  1.3714  0.4167 -0.8086
 7589TIP3   OH244257   2.356   2.555  14.767 -0.2507 -0.4875 -0.0869
 7589TIP3    H144258   2.436   2.569  14.717  0.2113  0.2588  0.8558
 7589TIP3    H244259   2.380   2.572  14.858 -1.6676  0.5157  0.1202
 7590TIP3   OH244260   1.138   4.751   4.349 -0.2508 -0.0512  0.5441
 7590TIP3    H144261   1.167   4.660   4.356 -1.6953 -0.5211  0.6216
 7590TIP3    H244262   1.042   4.746   4.349 -0.3443  1.3911 -0.5769
 7591TIP3   OH244263   0.124   0.404   5.121 -0.2537 -0.0081  0.0786
 7591TIP3    H144264   0.058   0.401   5.189 -0.8511  0.9861 -0.4437
 7591TIP3    H244265   0.109   0.325   5.069 -0.1363 -0.4914  0.7720
 7592TIP3   OH244266   2.186   2.284  12.972 -0.3750  0.0575 -0.5504
 7592TIP3    H144267   2.197   2.189  12.973 -0.2187  0.0332 -2.6397
 7592TIP3    H244268   2.123   2.301  13.042  0.8087 -1.3989  0.9203
 7593TIP3   OH244269   3.439   6.434  11.957  0.1405  0.4808  0.1239
 7593TIP3    H144270   3.481   6.357  11.920 -1.2117 -0.4078  0.4139
 7593TIP3    H244271   3.470   6.507  11.903 -1.2016 -0.6874 -2.3038
 7594TIP3   OH244272   2.210   6.764   0.067 -0.2333 -0.3941 -0.2692
 7594TIP3    H144273   2.275   6.695   0.058  1.8177  1.4712 -0.2663
 7594TIP3    H244274   2.250   6.840   0.025 -2.1644  0.9530  0.2706
 7595TIP3   OH244275   5.243   2.468  15.272 -0.0488 -0.0294 -0.4898
 7595TIP3    H144276   5.257   2.491  15.364  0.5584 -1.8997 -0.0984
 7595TIP3    H244277   5.154   2.498  15.254 -0.5666 -0.5837  1.0256
 7596TIP3   OH244278   2.452   0.797  12.286 -0.5338 -0.2544  0.1671
 7596TIP3    H144279   2.448   0.735  12.213  0.9468  0.4605 -0.5675
 7596TIP3    H244280   2.451   0.883  12.244 -0.7610  0.1800  1.0529
 7597TIP3   OH244281   4.153   2.099   4.446  0.0786 -1.0056  0.1292
 7597TIP3    H144282   4.106   2.162   4.501  0.7539 -0.3642 -0.0125
 7597TIP3    H244283   4.171   2.148   4.365  2.1283 -0.8081  0.6910
 7598TIP3   OH244284   0.015   5.280   4.494 -0.1438  0.1559 -0.5816
 7598TIP3    H144285  -0.019   5.204   4.447 -1.3188  0.6836 -0.6043
 7598TIP3    H244286  -0.063   5.323   4.528  0.5873  0.7912  0.2907
 7599TIP3   OH244287   5.179   5.536   0.941 -0.4192  0.8947  0.2595
 7599TIP3    H144288   5.191   5.622   0.900 -1.4491  0.8049 -0.2483
 7599TIP3    H244289   5.249   5.482   0.904 -0.9034  1.0111 -0.8676
 7600TIP3   OH244290   2.918   3.253   6.048 -0.1267  0.2633 -0.6631
 7600TIP3    H144291   2.951   3.228   6.135  0.3581  0.9245 -0.6560
 7600TIP3    H244292   2.827   3.279   6.063  0.0520  0.6728 -0.3095
 7601TIP3   OH244293   4.384   3.261   1.749 -0.0322  0.3351 -0.0613
 7601TIP3    H144294   4.330   3.193   1.789  0.2118  0.0129 -0.2718
 7601TIP3    H244295   4.439   3.292   1.821 -1.3550  1.5320  0.4400
 7602TIP3   OH244296   6.198   2.656  12.705  0.0481 -0.6711  0.2679
 7602TIP3    H144297   6.252   2.601  12.762  1.1767  1.8082  1.6633
 7602TIP3    H244298   6.260   2.709  12.656 -1.0461 -0.2897 -0.7346
 7603TIP3   OH244299   2.590   3.776   3.853  0.1082 -0.5029 -0.0427
 7603TIP3    H144300   2.622   3.688   3.833  1.9090  0.1031  0.0514
 7603TIP3    H244301   2.526   3.763   3.923 -1.3449 -1.9462 -1.6057
 7604TIP3   OH244302   2.470   3.671  14.069  0.1427 -0.2586 -0.0499
 7604TIP3    H144303   2.429   3.666  14.156  1.0544  0.4403  0.4301
 7604TIP3    H244304   2.458   3.761  14.042  0.1945 -0.3860 -0.4961
 7605TIP3   OH244305   2.493   6.621   2.472  0.4912  0.2244 -0.0100
 7605TIP3    H144306   2.417   6.593   2.421 -1.3672  0.4795  2.5057
 7605TIP3    H244307   2.556   6.549   2.463 -0.2823 -0.2652 -1.6300
 7606TIP3   OH244308   0.184   2.029   2.463 -0.2907 -0.6186  0.3870
 7606TIP3    H144309   0.225   1.993   2.541 -1.1861 -0.4902  0.9366
 7606TIP3    H244310   0.093   1.997   2.467 -0.3046 -0.7216 -0.6715
 7607TIP3   OH244311   5.251   2.998  12.725  0.1307 -0.7673  0.4576
 7607TIP3    H144312   5.198   2.994  12.645  0.8014 -1.4911  0.0297
 7607TIP3    H244313   5.301   3.079  12.717  1.3496 -1.6030 -0.6227
 7608TIP3   OH244314   6.757   2.678   5.102 -0.2587 -0.1242 -0.1102
 7608TIP3    H144315   6.848   2.702   5.089 -0.7454  2.1782  0.6111
 7608TIP3    H244316   6.757   2.630   5.185  0.4211 -0.9356 -0.5725
 7609TIP3   OH244317   5.447   4.946   6.673  0.4277  0.8034  0.3309
 7609TIP3    H144318   5.519   5.005   6.694  0.1540  0.8594  1.1469
 7609TIP3    H244319   5.488   4.859   6.668  1.1549  1.2771 -2.7308
 7610TIP3   OH244320   1.176   6.282   2.133  0.2134  0.0727  0.0176
 7610TIP3    H144321   1.096   6.240   2.101  0.1169  1.3846 -1.5403
 7610TIP3    H244322   1.151   6.323   2.215 -0.6076  0.1406 -0.2658
 7611TIP3   OH244323   1.014   6.703  11.022 -0.1884  0.3082 -0.1693
 7611TIP3    H144324   1.022   6.795  11.047 -2.3133  0.4244  0.1237
 7611TIP3    H244325   1.005   6.656  11.104  1.2232 -0.2365 -0.2965
 7612TIP3   OH244326   1.381   2.027   5.573 -0.0317  0.6185  0.0975
 7612TIP3    H144327   1.392   1.947   5.624 -1.4548  0.9589  0.9769
 7612TIP3    H244328   1.293   2.019   5.534  1.4231 -0.1239 -3.2252
 7613TIP3   OH244329   2.707   5.807  14.749 -0.0112  0.4600  0.0474
 7613TIP3    H144330   2.632   5.858  14.777 -0.3225  0.8232 -1.4073
 7613TIP3    H244331   2.681   5.772  14.663  1.6865  1.0533 -0.7231
 7614TIP3   OH244332   6.581   6.525   0.125  0.1857 -0.0577  0.3336
 7614TIP3    H144333   6.590   6.620   0.127  0.7151 -0.0893 -0.6167
 7614TIP3    H244334   6.524   6.508   0.050 -1.1137 -0.4019  1.3804
 7615TIP3   OH244335   5.840   6.190   3.546  0.1772  0.1529  0.1784
 7615TIP3    H144336   5.912   6.144   3.588  0.6807  1.7367  1.1158
 7615TIP3    H244337   5.779   6.209   3.618 -0.6048 -0.1503 -0.4040
 7616TIP3   OH244338   1.290   0.238   4.812  0.4701  0.4871  0.5151
 7616TIP3    H144339   1.337   0.263   4.733  0.3257  0.8167  0.5329
 7616TIP3    H244340   1.199   0.261   4.795  0.2833 -0.2874  0.4221
 7617TIP3   OH244341   1.756   2.659   3.384  0.1861  0.2907  0.3003
 7617TIP3    H144342   1.824   2.598   3.411  0.2289 -0.0261 -0.5121
 7617TIP3    H244343   1.802   2.741   3.366  0.3319  0.1204 -0.1010
 7618TIP3   OH244344   6.168   1.553   3.633  0.4092 -0.2527 -0.0585
 7618TIP3    H144345   6.136   1.608   3.705 -0.5406 -0.5969 -0.2012
 7618TIP3    H244346   6.106   1.570   3.562 -0.6487 -2.4037  0.2801
 7619TIP3   OH244347   3.749   0.320  14.042  0.4939 -0.1767 -0.2852
 7619TIP3    H144348   3.795   0.237  14.051  1.8609  0.6124  0.1566
 7619TIP3    H244349   3.685   0.319  14.114 -0.6551 -1.5604 -1.3003
 7620TIP3   OH244350   2.539   2.381  15.210  0.2000 -0.1416  0.8087
 7620TIP3    H144351   2.524   2.292  15.243  1.0514  0.0488  1.7252
 7620TIP3    H244352   2.633   2.394  15.217  0.3128  0.1972 -1.0044
 7621TIP3   OH244353   3.208   1.135  16.041 -0.4238 -0.2366 -0.1011
 7621TIP3    H144354   3.209   1.179  16.126 -0.5669 -0.7587  0.1717
 7621TIP3    H244355   3.220   1.043  16.062  0.9553 -0.2152 -0.7353
 7622TIP3   OH244356   1.987   3.378   3.785 -0.0249  0.3064 -0.3142
 7622TIP3    H144357   2.056   3.417   3.838 -0.5465  0.4552  0.2529
 7622TIP3    H244358   1.952   3.307   3.838 -0.7827  0.6781 -0.3087
 7623TIP3   OH244359   2.999   0.045   6.187 -0.0285 -0.2918 -0.3277
 7623TIP3    H144360   2.937   0.007   6.125  0.4141 -0.8283 -0.4384
 7623TIP3    H244361   3.063  -0.024   6.202  1.8956  1.0691 -2.0508
 7624TIP3   OH244362   4.310   5.047   6.490  0.0324 -0.6047  0.2311
 7624TIP3    H144363   4.333   5.023   6.400 -1.0126 -0.2301 -0.1412
 7624TIP3    H244364   4.376   5.111   6.515 -0.4134  0.2513 -0.7299
 7625TIP3   OH244365   6.529   1.523   3.696  0.3583 -0.1638  0.3520
 7625TIP3    H144366   6.444   1.552   3.664  0.7569  1.7783  0.9864
 7625TIP3    H244367   6.554   1.453   3.637 -0.9925  0.2722 -0.7676
 7626TIP3   OH244368   6.548   4.524  11.557 -0.3854 -0.2429 -0.5682
 7626TIP3    H144369   6.485   4.588  11.588  0.6057  0.5869 -0.2350
 7626TIP3    H244370   6.562   4.546  11.465  1.0164  0.9460 -0.1041
 7627TIP3   OH244371   4.287   6.227  12.484  0.3408  0.1317 -0.3999
 7627TIP3    H144372   4.355   6.171  12.523  2.3515  1.0936 -2.4707
 7627TIP3    H244373   4.292   6.309  12.533  1.3589  0.5590 -1.2210
 7628TIP3   OH244374   6.271   1.915   3.643  0.4115 -0.6899 -0.3158
 7628TIP3    H144375   6.188   1.909   3.596  0.4277 -0.7229 -0.3401
 7628TIP3    H244376   6.328   1.852   3.600  0.3542 -0.8897 -0.1000
 7629TIP3   OH244377   6.608   2.539  11.557 -0.0360  0.2004  0.0116
 7629TIP3    H144378   6.555   2.465  11.587  0.4399  0.1600  0.7494
 7629TIP3    H244379   6.577   2.555  11.468 -0.5761 -0.4873  0.0687
 7630TIP3   OH244380   4.814   0.563  12.286 -0.0251 -0.1176 -0.5042
 7630TIP3    H144381   4.809   0.508  12.208 -0.4468  0.5534 -0.9545
 7630TIP3    H244382   4.835   0.651  12.253  2.1456 -0.2866  0.3221
 7631TIP3   OH244383   3.426   3.549   4.089  0.1433  0.5106 -0.2665
 7631TIP3    H144384   3.346   3.598   4.108  2.0110  3.1774  1.2283
 7631TIP3    H244385   3.447   3.504   4.171  1.4049  1.7459  0.1165
 7632TIP3   OH244386   2.087   3.599   0.518 -0.2418 -0.2823 -1.0438
 7632TIP3    H144387   2.133   3.679   0.543  1.3202 -1.3049 -0.5734
 7632TIP3    H244388   2.053   3.564   0.601 -1.9122  0.4738 -1.3885
 7633TIP3   OH244389   4.264   2.920   3.451 -0.0435 -0.4543 -0.0795
 7633TIP3    H144390   4.267   2.826   3.432 -0.8552 -0.3333 -0.8289
 7633TIP3    H244391   4.347   2.938   3.496  0.6872 -1.2796 -1.0710
 7634TIP3   OH244392   3.882   2.233  12.776 -0.3653 -0.2189  0.0454
 7634TIP3    H144393   3.824   2.187  12.715  1.0531 -1.9550 -0.0101
 7634TIP3    H244394   3.949   2.169  12.799 -0.2494  0.7751  2.5908
 7635TIP3   OH244395   5.760   3.001  14.217  0.6595  1.0023  0.4145
 7635TIP3    H144396   5.689   3.040  14.268  0.4532  1.0200  0.1196
 7635TIP3    H244397   5.831   3.066  14.221  1.3659  0.1533  2.2828
 7636TIP3   OH244398   0.501   2.655   1.123 -0.1992  0.2898 -0.5295
 7636TIP3    H144399   0.575   2.712   1.100  0.5821 -0.7043 -0.5043
 7636TIP3    H244400   0.453   2.704   1.191  0.3428  1.0087 -0.6590
 7637TIP3   OH244401   6.254   0.726   3.533  0.4443  0.2125 -0.6313
 7637TIP3    H144402   6.173   0.761   3.569  1.0361  0.1488  0.8216
 7637TIP3    H244403   6.247   0.631   3.543  0.8694  0.2326 -0.1095
 7638TIP3   OH244404   0.357   5.844   0.176  0.3748 -0.5253  0.0725
 7638TIP3    H144405   0.384   5.841   0.084 -0.5466  1.1633 -0.2774
 7638TIP3    H244406   0.271   5.885   0.174  1.0017  0.9379  1.8028
 7639TIP3   OH244407   1.958   6.078  13.127  0.2194  0.0592 -0.1633
 7639TIP3    H144408   1.938   5.988  13.152 -2.2707  0.9239  1.1144
 7639TIP3    H244409   2.041   6.097  13.171 -0.2372 -0.9798  1.1873
 7640TIP3   OH244410   3.431   3.552   3.313  0.3643  0.3900  0.4297
 7640TIP3    H144411   3.495   3.619   3.337  0.0476  0.9485 -0.2654
 7640TIP3    H244412   3.445   3.537   3.219  0.3212 -0.3949  0.5425
 7641TIP3   OH244413   5.149   2.586   1.965 -0.1965  0.2105  0.1183
 7641TIP3    H144414   5.191   2.500   1.970  1.4476  1.0684  2.4887
 7641TIP3    H244415   5.088   2.587   2.039  0.7613  1.5147  0.9244
 7642TIP3   OH244416   5.558   4.220   5.435 -0.7080 -0.3420  0.0794
 7642TIP3    H144417   5.607   4.144   5.466  0.4808 -0.0579 -1.0486
 7642TIP3    H244418   5.546   4.274   5.513  1.2340 -0.1866  0.2969
 7643TIP3   OH244419   3.905   3.561   4.618  0.2360  0.3242 -0.1624
 7643TIP3    H144420   3.993   3.598   4.609  0.1194  0.4597 -0.8021
 7643TIP3    H244421   3.873   3.554   4.528  1.3690 -4.1468 -0.3108
 7644TIP3   OH244422   3.664   3.965   3.672  0.0776  0.3744  0.7478
 7644TIP3    H144423   3.591   3.985   3.731  0.2380  1.3257  0.6388
 7644TIP3    H244424   3.632   3.989   3.585  0.3005  0.2075  0.6190
 7645TIP3   OH244425   1.313   3.272   0.844  0.8107 -0.0449  0.1293
 7645TIP3    H144426   1.334   3.284   0.752  0.0007 -0.1035 -0.0585
 7645TIP3    H244427   1.229   3.316   0.857  1.0942  0.2879  0.9226
 7646TIP3   OH244428   5.747   4.468  11.806  0.4070 -0.0931 -0.3474
 7646TIP3    H144429   5.741   4.379  11.774 -1.2984 -0.0577 -0.1722
 7646TIP3    H244430   5.731   4.461  11.900 -2.7698  0.6957 -0.7653
 7647TIP3   OH244431   3.136   5.114   4.624  0.3841 -0.2924 -0.4171
 7647TIP3    H144432   3.110   5.204   4.605 -2.0322 -1.2232 -1.7288
 7647TIP3    H244433   3.110   5.065   4.546  1.5358 -2.1606  0.3449
 7648TIP3   OH244434   6.076   2.093  16.724 -0.2668  0.0163 -0.2183
 7648TIP3    H144435   6.008   2.127  16.665  0.8098  2.8857  0.0996
 7648TIP3    H244436   6.135   2.167  16.737  1.8347 -1.8421  1.1154
 7649TIP3   OH244437   3.206   1.308  14.014 -0.7350 -0.6153  0.3844
 7649TIP3    H144438   3.291   1.286  14.052 -0.8768  0.2156  1.2077
 7649TIP3    H244439   3.151   1.232  14.033 -0.4815 -0.6866  0.8399
 7650TIP3   OH244440   3.406   1.017   1.423  0.3787 -0.1955 -0.6505
 7650TIP3    H144441   3.447   1.100   1.400  1.2356 -0.6412 -0.7394
 7650TIP3    H244442   3.416   0.963   1.344 -0.0273 -0.4422 -0.5348
 7651TIP3   OH244443   1.836   5.415  15.026  0.2513 -0.0823  0.1335
 7651TIP3    H144444   1.836   5.322  15.051 -0.0607  0.1663  1.0856
 7651TIP3    H244445   1.793   5.459  15.099  1.9367  1.0236  0.4966
 7652TIP3   OH244446   0.707   0.105  16.753  0.4487 -0.6562  0.1864
 7652TIP3    H144447   0.633   0.164  16.740  1.9126  1.4929  1.3529
 7652TIP3    H244448   0.726   0.110  16.847  0.6317 -2.9590  0.3018
 7653TIP3   OH244449   4.824   5.833   3.792 -0.0622  0.2494  0.3017
 7653TIP3    H144450   4.879   5.839   3.870  0.8887  0.0587 -0.3368
 7653TIP3    H244451   4.882   5.796   3.725 -0.4795  1.6353 -0.8515
 7654TIP3   OH244452   2.122   6.813  12.334 -0.4704  0.3061 -0.0839
 7654TIP3    H144453   2.033   6.845  12.322 -0.3584  0.6505 -0.0047
 7654TIP3    H244454   2.160   6.816  12.246 -0.9044 -0.9530 -0.3237
 7655TIP3   OH244455   5.156   0.496   3.384  0.2867  0.1582 -0.5022
 7655TIP3    H144456   5.131   0.461   3.470 -1.3227  2.5041  0.0321
 7655TIP3    H244457   5.180   0.419   3.333 -0.4696 -1.4484  1.4940
 7656TIP3   OH244458   0.517   0.199   0.356 -0.3969  0.3067  0.0635
 7656TIP3    H144459   0.447   0.263   0.342  1.1175  1.5328 -2.2477
 7656TIP3    H244460   0.567   0.235   0.429  0.2911  1.7150 -1.0489
 7657TIP3   OH244461   4.707   5.334  15.967  0.1329 -0.5914  0.6496
 7657TIP3    H144462   4.712   5.319  16.062 -0.7021 -2.5857  0.4020
 7657TIP3    H244463   4.778   5.396  15.949 -0.9595  1.3707  2.8626
 7658TIP3   OH244464   4.931   0.004   0.495  0.8307 -0.1902  0.6725
 7658TIP3    H144465   5.025   0.009   0.481  0.9551 -3.3151  0.1598
 7658TIP3    H244466   4.920   0.030   0.587  2.1897  0.1771  0.7468
 7659TIP3   OH244467   1.389   6.008  11.714  0.6392  0.5462  0.3226
 7659TIP3    H144468   1.321   5.947  11.742  2.1634 -0.4753  1.8937
 7659TIP3    H244469   1.398   5.993  11.620 -1.4979  0.9029  0.0527
 7660TIP3   OH244470   2.336   0.435   2.412 -0.4291 -0.4187  0.5882
 7660TIP3    H144471   2.423   0.394   2.415 -0.3635 -0.1326  3.4808
 7660TIP3    H244472   2.354   0.528   2.401 -0.2962 -0.2146  2.3711
 7661TIP3   OH244473   4.867   3.019  11.519  0.3427  0.0669  0.4612
 7661TIP3    H144474   4.786   3.068  11.509  0.5040 -0.0865 -2.0737
 7661TIP3    H244475   4.936   3.085  11.508  0.5488 -0.3199 -0.6486
 7662TIP3   OH244476   0.966   4.648   3.979  0.1170 -0.2897  0.1418
 7662TIP3    H144477   0.963   4.584   4.050 -0.8368 -0.6109 -0.1800
 7662TIP3    H244478   0.918   4.607   3.908 -0.7493  0.8983  0.0204
 7663TIP3   OH244479   5.200   1.350  16.408 -0.0869  0.1527 -0.2754
 7663TIP3    H144480   5.108   1.343  16.382  0.0031  0.6765 -0.7533
 7663TIP3    H244481   5.248   1.357  16.325  0.1707  2.1900  0.0248
 7664TIP3   OH244482   0.876   3.906   5.502  0.4955 -1.0234  0.2392
 7664TIP3    H144483   0.922   3.976   5.548 -1.2836 -1.1824  2.3557
 7664TIP3    H244484   0.904   3.826   5.547  1.4730 -1.5521 -1.2815
 7665TIP3   OH244485   1.047   2.484   3.574 -0.0339 -0.5535 -0.0714
 7665TIP3    H144486   1.037   2.578   3.561  0.8174 -0.4731 -0.2046
 7665TIP3    H244487   1.107   2.456   3.504  1.1467 -0.8709  1.0538
 7666TIP3   OH244488   2.209   5.214  13.425 -0.3096 -0.0200 -0.0523
 7666TIP3    H144489   2.195   5.140  13.484 -0.9780  0.3470  0.2622
 7666TIP3    H244490   2.130   5.267  13.435  1.5867  2.5253  2.3406
 7667TIP3   OH244491   4.494   5.676   2.284  0.5665  0.3619 -0.3239
 7667TIP3    H144492   4.510   5.659   2.192  3.3784 -0.9591  0.3403
 7667TIP3    H244493   4.544   5.755   2.303  3.3422 -1.5817  0.8951
 7668TIP3   OH244494   4.650   2.019  16.573  0.2514 -0.3361  0.2182
 7668TIP3    H144495   4.641   2.069  16.654  0.4227 -0.4149  0.2869
 7668TIP3    H244496   4.619   1.931  16.596 -0.1552 -0.2309  0.0705
 7669TIP3   OH244497   4.467   1.431   5.999 -0.1080 -0.4293  0.3260
 7669TIP3    H144498   4.456   1.368   5.927 -0.6697 -1.7439  1.5341
 7669TIP3    H244499   4.378   1.453   6.025  0.0776  1.3989 -0.5090
 7670TIP3   OH244500   1.071   4.439   4.720 -0.7200 -0.4447  0.5942
 7670TIP3    H144501   1.162   4.469   4.719 -0.2429 -1.8563 -0.5317
 7670TIP3    H244502   1.020   4.517   4.699  0.0561  0.8420  3.3159
 7671TIP3   OH244503   1.745   4.317  12.681 -0.4403 -0.1257  0.0471
 7671TIP3    H144504   1.678   4.267  12.634 -0.0482 -0.7269  0.1274
 7671TIP3    H244505   1.774   4.383  12.618 -2.6559  1.5463  0.7347
 7672TIP3   OH244506   1.804   2.479  11.275 -0.4296 -0.0653 -0.3080
 7672TIP3    H144507   1.840   2.401  11.233  0.2738  0.0312  0.0904
 7672TIP3    H244508   1.865   2.496  11.347 -1.3194  0.0780  0.4124
 7673TIP3   OH244509   5.749   6.343  17.078  0.0088  0.5669 -0.2604
 7673TIP3    H144510   5.831   6.331  17.125  1.8011  0.8557 -3.1427
 7673TIP3    H244511   5.742   6.266  17.022  0.0656  2.1273 -2.4819
 7674TIP3   OH244512   2.865   2.998   2.453 -0.4081 -0.0414  0.1252
 7674TIP3    H144513   2.791   3.057   2.438 -1.6381 -1.8227 -0.9396
 7674TIP3    H244514   2.902   3.027   2.536 -1.3570  1.8438 -0.0782
 7675TIP3   OH244515   0.976   2.566  15.713 -0.5235 -0.6717 -0.2166
 7675TIP3    H144516   0.911   2.596  15.777  0.1425 -1.0773  0.6640
 7675TIP3    H244517   0.964   2.623  15.638 -0.5735  0.5288  0.6917
 7676TIP3   OH244518   3.225   1.493   2.175 -0.0527  0.0367  0.6645
 7676TIP3    H144519   3.292   1.424   2.170  0.8299  0.9473 -0.5128
 7676TIP3    H244520   3.185   1.493   2.088 -0.7768  0.2905  1.0008
 7677TIP3   OH244521   4.434   5.349  16.249  0.6681 -0.0428 -0.1892
 7677TIP3    H144522   4.356   5.296  16.261 -0.1898  0.8374 -1.6736
 7677TIP3    H244523   4.507   5.288  16.259 -0.2362 -1.0997  0.0421
 7678TIP3   OH244524   6.668   4.335  12.650 -0.0635 -0.0411 -0.6718
 7678TIP3    H144525   6.602   4.323  12.582 -0.8775  0.3036  0.0415
 7678TIP3    H244526   6.710   4.249  12.659 -1.7194 -0.7893  0.1845
 7679TIP3   OH244527   6.314   6.141   2.496 -0.2033 -0.2850  0.0649
 7679TIP3    H144528   6.383   6.080   2.523  1.3269  1.1875 -0.4236
 7679TIP3    H244529   6.361   6.216   2.460 -2.0620  0.9247  0.0844
 7680TIP3   OH244530   3.382   1.050   0.293 -0.2615  0.0017 -0.4793
 7680TIP3    H144531   3.297   1.066   0.334 -0.3766  1.2153 -1.1315
 7680TIP3    H244532   3.381   1.106   0.215  0.5119 -1.1652 -1.3488
 7681TIP3   OH244533   2.587   5.839  11.872 -0.1536  0.0706  0.2954
 7681TIP3    H144534   2.637   5.759  11.859 -0.0752  0.3010 -0.9034
 7681TIP3    H244535   2.640   5.891  11.932 -0.4991 -1.0228  1.5525
 7682TIP3   OH244536   1.900   4.249  14.668 -0.3662  0.1014 -0.2492
 7682TIP3    H144537   1.868   4.275  14.755 -0.6215 -1.1509  0.0385
 7682TIP3    H244538   1.937   4.330  14.631  0.1031  0.5595  1.1866
 7683TIP3   OH244539   2.492   0.498   4.517  0.1429  0.3578  0.0598
 7683TIP3    H144540   2.485   0.485   4.422 -1.0046 -1.2346  0.3313
 7683TIP3    H244541   2.586   0.497   4.534  0.3264 -0.5368 -0.9231
 7684TIP3   OH244542   4.948   1.309  14.936 -0.0834 -0.7307 -0.2984
 7684TIP3    H144543   4.970   1.303  14.843 -0.3929 -0.1913 -0.4051
 7684TIP3    H244544   4.948   1.402  14.955 -1.0397 -0.7856 -0.0022
 7685TIP3   OH244545   6.129   3.052   2.008 -0.8797 -0.3226 -0.2437
 7685TIP3    H144546   6.214   3.095   2.008 -1.4308  0.7874 -0.1520
 7685TIP3    H244547   6.149   2.958   2.004  0.3601 -0.1091  0.7048
 7686TIP3   OH244548   1.726   3.979   5.828 -0.1733  0.1531 -0.4534
 7686TIP3    H144549   1.754   4.053   5.774 -0.1557  0.2890 -0.2599
 7686TIP3    H244550   1.788   3.978   5.901 -0.6778  0.4557 -0.0198
 7687TIP3   OH244551   4.717   1.661  13.746 -0.1500 -0.5403  0.3957
 7687TIP3    H144552   4.743   1.655  13.654 -1.0109 -0.9706  0.1807
 7687TIP3    H244553   4.688   1.752  13.757  0.9784 -0.1858  0.5217
 7688TIP3   OH244554   0.796   2.123   2.898 -0.4040 -0.3441 -0.4440
 7688TIP3    H144555   0.760   2.037   2.876  1.5393 -1.2024 -0.4103
 7688TIP3    H244556   0.855   2.143   2.826  0.1593  0.3487  0.2016
 7689TIP3   OH244557   2.355   2.455   0.745  0.0796 -0.4695  0.6476
 7689TIP3    H144558   2.421   2.521   0.723 -0.5124  0.1905  0.8362
 7689TIP3    H244559   2.271   2.496   0.723 -0.3596 -0.8027  1.6467
 7690TIP3   OH244560   6.029   3.337  12.141 -0.4276 -0.3484  0.0852
 7690TIP3    H144561   6.063   3.313  12.055  1.3960  2.4223 -0.0336
 7690TIP3    H244562   5.937   3.360  12.126 -0.6286 -1.6805 -0.7630
 7691TIP3   OH244563   0.442   2.896  16.311  0.5029  0.2167 -0.1926
 7691TIP3    H144564   0.508   2.834  16.343  0.9535  0.2596 -1.0152
 7691TIP3    H244565   0.377   2.901  16.381  1.4063  0.2236  0.6473
 7692TIP3   OH244566   3.043   5.095  14.062  0.2130 -0.3896 -0.3030
 7692TIP3    H144567   3.098   5.171  14.076  0.4535 -0.5747 -0.2323
 7692TIP3    H244568   2.954   5.127  14.074  0.1691  0.3774 -2.4275
 7693TIP3   OH244569   0.891   3.532   3.921 -0.1566 -0.1384  0.2390
 7693TIP3    H144570   0.890   3.619   3.960 -2.6987  0.0675 -0.2102
 7693TIP3    H244571   0.852   3.544   3.834 -0.8608 -1.7689  0.2978
 7694TIP3   OH244572   5.723   5.766   3.505 -0.1804  0.0666  0.1824
 7694TIP3    H144573   5.696   5.696   3.445  1.3215 -1.3408  1.0837
 7694TIP3    H244574   5.715   5.846   3.454 -1.9854 -0.7448 -0.8669
 7695TIP3   OH244575   4.719   5.775   0.727 -0.5312  0.0938 -0.0263
 7695TIP3    H144576   4.736   5.682   0.740 -1.6060 -0.3780 -1.8204
 7695TIP3    H244577   4.802   5.817   0.749  0.2165 -1.3640  0.0388
 7696TIP3   OH244578   1.467   5.632  11.402 -0.2142 -0.2094 -0.1222
 7696TIP3    H144579   1.429   5.672  11.480  1.3690  0.1312  0.4901
 7696TIP3    H244580   1.427   5.679  11.329  1.1771  2.1326  0.5733
 7697TIP3   OH244581   6.590   1.368   5.357 -0.1419 -0.0263 -0.3521
 7697TIP3    H144582   6.580   1.424   5.280 -0.4828 -0.2387 -0.4647
 7697TIP3    H244583   6.506   1.322   5.365 -0.2776  0.3460  0.4217
 7698TIP3   OH244584   6.621   4.836  16.021  0.3189 -0.2677 -0.3351
 7698TIP3    H144585   6.599   4.745  15.999  0.2415 -0.2356 -0.3957
 7698TIP3    H244586   6.611   4.883  15.938  0.8133 -0.2885 -0.4106
 7699TIP3   OH244587   0.319   4.864  14.720  0.2660 -0.2290 -0.0659
 7699TIP3    H144588   0.259   4.790  14.706 -0.8716  0.3219  1.7499
 7699TIP3    H244589   0.312   4.916  14.640 -0.5358 -0.9761 -0.4925
 7700TIP3   OH244590   6.015   0.872  12.132 -0.4823  0.3457 -0.3810
 7700TIP3    H144591   6.055   0.823  12.060  0.2865  0.5612 -0.1115
 7700TIP3    H244592   6.045   0.962  12.120  0.5379  0.1855  0.8098
 7701TIP3   OH244593   3.890   4.006  11.484 -0.3681  0.4056 -0.1790
 7701TIP3    H144594   3.921   3.937  11.543  2.2718  1.5961 -0.0773
 7701TIP3    H244595   3.802   4.027  11.514  0.0771 -0.6148  1.8856
 7702TIP3   OH244596   4.298   5.054  13.310 -0.2587 -0.5013 -0.2803
 7702TIP3    H144597   4.275   4.961  13.309  0.3136 -0.6503  0.1282
 7702TIP3    H244598   4.366   5.061  13.378 -1.1017  0.4079  0.4821
 7703TIP3   OH244599   0.550   5.130  16.683  0.1769  0.2065  0.8733
 7703TIP3    H144600   0.500   5.162  16.758 -0.5744 -1.1760  0.9853
 7703TIP3    H244601   0.574   5.040  16.707 -0.1452 -0.2746 -0.5678
 7704TIP3   OH244602   4.143   1.619  12.537  0.5490 -0.6889 -0.4644
 7704TIP3    H144603   4.237   1.607  12.521  1.0444 -0.0532  1.7504
 7704TIP3    H244604   4.131   1.713  12.539  0.0341 -0.7713  0.1966
 7705TIP3   OH244605   4.209   2.501  14.215  0.5079 -0.1859  0.1962
 7705TIP3    H144606   4.248   2.499  14.127 -0.3880 -1.9170 -0.1897
 7705TIP3    H244607   4.198   2.594  14.234 -1.9330  0.2126 -2.7580
 7706TIP3   OH244608   5.883   5.955   0.974  0.0263 -0.0868  0.1893
 7706TIP3    H144609   5.944   5.986   1.041  0.4675  0.5504 -0.4995
 7706TIP3    H244610   5.812   6.019   0.975  0.0720 -0.0328 -0.0092
 7707TIP3   OH244611   1.445   6.161   1.887 -0.1144 -0.0722 -0.2774
 7707TIP3    H144612   1.505   6.235   1.891 -0.0672 -0.1273  0.0667
 7707TIP3    H244613   1.363   6.198   1.854 -0.1942  0.2040  0.2208
 7708TIP3   OH244614   1.196   4.522  15.428 -0.2041  1.0099  0.3338
 7708TIP3    H144615   1.264   4.510  15.494 -0.5387  1.5246  0.7788
 7708TIP3    H244616   1.139   4.590  15.464 -0.8303  0.7399 -0.1302
 7709TIP3   OH244617   6.535   2.925  11.402  0.2463  0.2353  0.4511
 7709TIP3    H144618   6.505   3.016  11.408 -0.1869  0.0192  1.7163
 7709TIP3    H244619   6.571   2.918  11.313 -1.0945  1.2176 -0.2003
 7710TIP3   OH244620   1.461   5.699   6.556  0.0995  0.3574 -0.3896
 7710TIP3    H144621   1.381   5.713   6.608 -0.0397 -1.9623  0.0946
 7710TIP3    H244622   1.434   5.636   6.489  1.1450  0.7313 -1.1570
 7711TIP3   OH244623   5.665   6.334   6.574  0.3737  0.3646 -0.5594
 7711TIP3    H144624   5.705   6.253   6.542 -0.1986 -0.5589  0.9784
 7711TIP3    H244625   5.579   6.337   6.531  0.1790 -0.1398 -0.2213
 7712TIP3   OH244626   4.246   0.900  12.941  0.3922 -0.1943  0.2054
 7712TIP3    H144627   4.167   0.850  12.921  1.2008 -1.7571  0.8678
 7712TIP3    H244628   4.308   0.835  12.974  1.5246  1.2098  0.8957
 7713TIP3   OH244629   6.759   5.310  16.186  0.1800 -0.0938  0.7651
 7713TIP3    H144630   6.789   5.247  16.121 -1.0366  1.0520 -0.9588
 7713TIP3    H244631   6.829   5.314  16.251  1.2321 -1.5575 -0.2648
 7714TIP3   OH244632   3.628   3.578   5.838  0.5591 -0.4853  0.2838
 7714TIP3    H144633   3.708   3.605   5.882  0.3386  0.2828  0.2261
 7714TIP3    H244634   3.628   3.483   5.843  1.8019 -0.5179 -0.2897
 7715TIP3   OH244635   0.026   5.324   1.032  0.6106 -0.0406 -0.1470
 7715TIP3    H144636  -0.066   5.302   1.015  0.4928  0.1567  0.2362
 7715TIP3    H244637   0.059   5.250   1.083  1.1661 -0.9873 -1.8439
 7716TIP3   OH244638   3.672   5.155   1.271  0.3227  0.0855 -0.1379
 7716TIP3    H144639   3.692   5.130   1.181  1.5471  0.5450  0.0046
 7716TIP3    H244640   3.713   5.087   1.324  0.8722  0.6244  0.1283
 7717TIP3   OH244641   2.446   4.180  12.091 -0.2268 -0.0998 -0.0468
 7717TIP3    H144642   2.455   4.180  11.996 -1.8141  1.7196 -0.2184
 7717TIP3    H244643   2.534   4.200  12.123  0.2965 -0.6168 -1.1266
 7718TIP3   OH244644   1.084   1.051   4.671  0.4972  0.1731  0.0606
 7718TIP3    H144645   1.069   1.016   4.583  1.6621 -2.5763  0.9108
 7718TIP3    H244646   1.155   0.998   4.706  0.7296  1.9117  2.2974
 7719TIP3   OH244647   4.110   1.809   3.452 -0.2427 -0.0017  0.3901
 7719TIP3    H144648   4.181   1.866   3.481  2.0972 -2.0472 -1.0702
 7719TIP3    H244649   4.129   1.793   3.359 -2.5769 -0.6534  0.0049
 7720TIP3   OH244650   3.141   6.728  10.774 -0.2612 -0.1860 -0.6800
 7720TIP3    H144651   3.181   6.789  10.837  2.0531 -0.2294 -2.0451
 7720TIP3    H244652   3.067   6.691  10.820  0.5336  0.8833  1.5202
 7721TIP3   OH244653   3.093   4.853   3.892  0.2582 -0.1698  0.2805
 7721TIP3    H144654   3.051   4.937   3.906 -1.1288 -0.8904  0.4876
 7721TIP3    H244655   3.111   4.850   3.798 -2.9474 -1.1305 -0.3512
 7722TIP3   OH244656   6.460   0.611  16.493 -0.1847  0.4059  0.0055
 7722TIP3    H144657   6.469   0.630  16.399  1.3282 -2.3939 -0.4585
 7722TIP3    H244658   6.395   0.541  16.497 -0.8783  1.1103  1.1284
 7723TIP3   OH244659   0.837   0.988  16.352 -0.4219 -0.4478  0.2012
 7723TIP3    H144660   0.752   0.949  16.372 -0.2634 -1.2361 -0.6338
 7723TIP3    H244661   0.867   1.023  16.436 -1.5929 -0.1014  0.4991
 7724TIP3   OH244662   0.077   0.732  16.751 -0.3415 -0.4635  0.2321
 7724TIP3    H144663   0.090   0.736  16.846  3.9531 -1.3342 -0.2303
 7724TIP3    H244664   0.062   0.639  16.733 -2.2626 -0.1591  0.1195
 7725TIP3   OH244665   4.932   4.165  13.396  0.1175 -0.4102  0.1421
 7725TIP3    H144666   5.021   4.128  13.398  0.3163 -0.0252 -1.0022
 7725TIP3    H244667   4.884   4.116  13.463  1.8268  1.0463  2.5081
 7726TIP3   OH244668   3.681   3.587  11.817 -0.0095  0.6230  0.3557
 7726TIP3    H144669   3.754   3.578  11.755 -0.6926  1.6898 -0.6148
 7726TIP3    H244670   3.721   3.625  11.895  0.2591  2.4144 -0.6235
 7727TIP3   OH244671   0.463   4.890   0.240 -0.1272  0.1147  0.1981
 7727TIP3    H144672   0.516   4.947   0.295  0.9571 -1.5251  0.9185
 7727TIP3    H244673   0.513   4.879   0.159 -0.3132  0.1771  0.0747
 7728TIP3   OH244674   4.697   0.304   0.767 -0.5652 -0.0678  0.1345
 7728TIP3    H144675   4.777   0.256   0.747 -0.4048  0.5278 -0.6818
 7728TIP3    H244676   4.716   0.351   0.848  0.7013  1.8078 -1.2002
 7729TIP3   OH244677   4.285   6.333   2.503  0.0396 -0.0453  0.2462
 7729TIP3    H144678   4.375   6.334   2.535 -0.1215  1.4019  0.6993
 7729TIP3    H244679   4.247   6.253   2.540  0.8352 -0.1114  0.9336
 7730TIP3   OH244680   4.826   2.848   0.870 -0.1347  0.2283  0.0611
 7730TIP3    H144681   4.876   2.859   0.790 -1.6082  1.1275 -0.7564
 7730TIP3    H244682   4.749   2.797   0.844 -1.1396  1.4053  0.6741
 7731TIP3   OH244683   4.438   4.082   1.631 -0.9099 -0.1884 -0.3754
 7731TIP3    H144684   4.376   4.010   1.616  0.3350 -1.1693 -0.9909
 7731TIP3    H244685   4.384   4.160   1.635 -2.4164 -1.2930  1.4791
 7732TIP3   OH244686   3.207   0.706   0.760 -0.0866  1.0343  0.1055
 7732TIP3    H144687   3.301   0.721   0.773  0.2056 -0.2306 -0.5133
 7732TIP3    H244688   3.165   0.786   0.791  1.1946  1.5508  0.5027
 7733TIP3   OH244689   5.779   1.620   1.212 -0.1746  0.1701 -0.2949
 7733TIP3    H144690   5.744   1.532   1.212  0.9618 -0.2988 -1.3295
 7733TIP3    H244691   5.742   1.661   1.290 -0.5095 -1.2958  0.3289
 7734TIP3   OH244692   0.671   3.885   3.406  0.3637 -0.1077 -0.2351
 7734TIP3    H144693   0.766   3.874   3.403  0.3197 -0.2472 -1.6708
 7734TIP3    H244694   0.655   3.944   3.479  1.5897  0.2125 -0.2258
 7735TIP3   OH244695   3.825   3.249   4.743  0.0101  0.5310  0.2412
 7735TIP3    H144696   3.841   3.337   4.709  1.0268  0.5325  0.7065
 7735TIP3    H244697   3.902   3.199   4.716 -0.4437 -0.1480  0.2026
 7736TIP3   OH244698   2.497   6.593   1.123 -0.0528 -0.4247 -0.1130
 7736TIP3    H144699   2.439   6.654   1.077  0.3041  0.2646  0.3342
 7736TIP3    H244700   2.492   6.512   1.072  1.2987  0.6884 -2.0803
 7737TIP3   OH244701   1.407   1.297  15.501 -0.0357  0.3663  0.3612
 7737TIP3    H144702   1.378   1.334  15.418 -1.5837  1.4743  1.3557
 7737TIP3    H244703   1.403   1.371  15.562  1.1656 -0.4132  1.3935
 7738TIP3   OH244704   4.031   1.510   0.390 -0.5998  0.0225  0.1947
 7738TIP3    H144705   4.016   1.499   0.484  2.7766  1.1470  0.9109
 7738TIP3    H244706   3.965   1.574   0.363 -0.5604  0.9147  2.1111
 7739TIP3   OH244707   6.411   4.299   1.077 -0.5800  0.3467  0.3911
 7739TIP3    H144708   6.497   4.321   1.111 -0.5289  0.7113  0.0358
 7739TIP3    H244709   6.371   4.244   1.145  0.1799 -0.3697  0.2649
 7740TIP3   OH244710   3.494   3.831  17.163  0.5066 -0.4525  0.0239
 7740TIP3    H144711   3.541   3.834  17.246 -0.9741  0.5027  0.8348
 7740TIP3    H244712   3.423   3.894  17.173  0.1486 -0.5269 -1.8664
 7741TIP3   OH244713   0.263   2.651   2.575 -0.2524  0.2254  0.2292
 7741TIP3    H144714   0.226   2.675   2.660  1.2820 -1.2410  1.3217
 7741TIP3    H244715   0.221   2.568   2.553  0.5167 -0.1788  0.2810
 7742TIP3   OH244716   5.263   5.868  13.837  0.0308  0.0293  0.1269
 7742TIP3    H144717   5.303   5.789  13.873  0.0209 -0.2281 -0.4224
 7742TIP3    H244718   5.325   5.898  13.771 -1.9010 -1.9243 -2.7131
 7743TIP3   OH244719   4.458   6.049   0.544 -0.3762 -0.4129  0.5461
 7743TIP3    H144720   4.545   6.051   0.585  0.8188  1.6866 -1.9626
 7743TIP3    H244721   4.456   5.965   0.497  0.5614 -0.1810  0.0746
 7744TIP3   OH244722   0.284   2.263   0.278  0.4027  0.0582 -0.4542
 7744TIP3    H144723   0.264   2.217   0.360  2.0356  0.6851  0.3138
 7744TIP3    H244724   0.312   2.350   0.305 -0.2796  0.7097 -1.7747
 7745TIP3   OH244725   6.128   3.094  11.143 -0.2545 -0.2580  0.0515
 7745TIP3    H144726   6.207   3.055  11.108  0.8688 -0.2575  2.4525
 7745TIP3    H244727   6.131   3.185  11.113 -0.4479 -0.7807 -1.6031
 7746TIP3   OH244728   5.934   1.644  16.178 -0.2595  0.4962  0.4703
 7746TIP3    H144729   5.844   1.668  16.200 -0.1343  0.3856  1.1195
 7746TIP3    H244730   5.979   1.638  16.263  0.3252  0.4189  0.1612
 7747TIP3   OH244731   1.004   2.435  13.107 -0.0820 -0.5791  0.1641
 7747TIP3    H144732   1.050   2.420  13.024 -0.2104 -1.8150  0.3094
 7747TIP3    H244733   0.912   2.424  13.087 -0.1115 -0.9283  0.4809
 7748TIP3   OH244734   2.425   0.532   0.897  0.1976 -0.4538  0.2051
 7748TIP3    H144735   2.477   0.455   0.878 -0.5421 -0.6593 -1.0828
 7748TIP3    H244736   2.454   0.597   0.834 -2.3060 -1.1392 -1.7426
 7749TIP3   OH244737   0.748   0.115  14.334 -0.2387  0.0862  0.1151
 7749TIP3    H144738   0.788   0.138  14.250 -1.7873  1.2533 -0.3077
 7749TIP3    H244739   0.694   0.038  14.315 -0.2604  0.0921  0.1544
 7750TIP3   OH244740   1.425   0.718  11.748 -0.3112  0.5819  0.2696
 7750TIP3    H144741   1.484   0.647  11.723 -0.9666  0.0939  0.1250
 7750TIP3    H244742   1.443   0.787  11.685 -1.1426 -0.2176 -0.8574
 7751TIP3   OH244743   2.440   5.782  14.615  0.0411  0.3516 -0.1079
 7751TIP3    H144744   2.482   5.828  14.542 -0.8732 -1.0183 -1.5170
 7751TIP3    H244745   2.362   5.834  14.634  0.1181  0.5399 -0.2905
 7752TIP3   OH244746   6.189   6.517   0.318 -0.1221 -0.3504 -0.1013
 7752TIP3    H144747   6.204   6.601   0.273 -3.3994  0.0916 -0.4707
 7752TIP3    H244748   6.172   6.542   0.408  1.3348 -0.8487  0.3255
 7753TIP3   OH244749   3.845   3.765  16.216  0.3263 -0.1137 -0.3852
 7753TIP3    H144750   3.932   3.788  16.249  1.1931  1.7996 -3.6956
 7753TIP3    H244751   3.784   3.800  16.280  1.9567 -0.7073  1.5378
 7754TIP3   OH244752   2.326   1.517  12.247  0.1285 -0.6876 -0.1008
 7754TIP3    H144753   2.249   1.492  12.195 -1.6551  0.5919  1.8015
 7754TIP3    H244754   2.335   1.611  12.231  1.6765 -0.9417 -0.7595
 7755TIP3   OH244755   1.686   2.385  14.089 -0.2995  0.1031 -0.7910
 7755TIP3    H144756   1.763   2.338  14.056  0.3714  0.3316  0.4068
 7755TIP3    H244757   1.654   2.434  14.014  0.2470 -0.6275 -1.5114
 7756TIP3   OH244758   1.372   4.754   2.136  0.6536 -0.1712  0.6389
 7756TIP3    H144759   1.281   4.723   2.135 -0.5731  3.2984 -0.3316
 7756TIP3    H244760   1.424   4.673   2.139 -2.4321 -2.2049  3.2068
 7757TIP3   OH244761   2.547   3.087   3.160  0.3595 -0.0967 -0.0685
 7757TIP3    H144762   2.520   3.131   3.080  1.8633 -0.7310 -0.9370
 7757TIP3    H244763   2.554   3.158   3.225  0.6341  0.6329 -0.8841
 7758TIP3   OH244764   3.170   1.040   4.257 -0.2846 -0.2017  0.0229
 7758TIP3    H144765   3.239   0.976   4.271 -0.6428 -0.6158 -0.1047
 7758TIP3    H244766   3.104   1.019   4.323  0.3208  1.0589  1.0618
 7759TIP3   OH244767   4.496   1.700   3.625  0.1131  0.1133  0.3737
 7759TIP3    H144768   4.560   1.632   3.601 -0.5323 -1.0018  1.7594
 7759TIP3    H244769   4.544   1.758   3.684  0.1715 -0.0699  0.5063
 7760TIP3   OH244770   3.574   2.052   3.319  0.1343 -0.0327 -0.1420
 7760TIP3    H144771   3.505   2.081   3.259  0.6122  1.4165  0.0117
 7760TIP3    H244772   3.588   2.126   3.378  1.9346 -0.2676 -0.2632
 7761TIP3   OH244773   2.821   3.253  14.791 -0.4399 -0.2259 -0.0220
 7761TIP3    H144774   2.817   3.334  14.740  0.7129  0.0039  0.2318
 7761TIP3    H244775   2.851   3.187  14.728  0.1202 -0.1303  0.1452
 7762TIP3   OH244776   3.688   3.468   3.435 -0.4264 -0.1413 -0.1097
 7762TIP3    H144777   3.617   3.454   3.497  1.6098  2.0041  2.8832
 7762TIP3    H244778   3.671   3.555   3.399 -1.1854 -1.0689 -2.0844
 7763TIP3   OH244779   4.581   0.978  10.848  0.1404  0.4689  0.1394
 7763TIP3    H144780   4.507   0.985  10.787 -0.2171 -3.7554 -0.0315
 7763TIP3    H244781   4.646   1.039  10.813 -1.3203  0.5379 -2.5954
 7764TIP3   OH244782   2.678   0.019   3.947  0.2982  0.4530  0.3381
 7764TIP3    H144783   2.735   0.066   4.009  0.6213  0.1057  0.3047
 7764TIP3    H244784   2.722  -0.065   3.933  0.1600  0.4830 -0.2714
 7765TIP3   OH244785   0.943   0.030   5.037  0.0766 -0.2227  0.3409
 7765TIP3    H144786   0.989  -0.014   4.966 -0.4987 -0.6912  0.2504
 7765TIP3    H244787   0.958  -0.025   5.114 -2.7981 -2.0210 -0.3197
 7766TIP3   OH244788   1.449   2.426  16.696 -0.1736  0.2799 -0.4545
 7766TIP3    H144789   1.357   2.438  16.719 -0.5026 -0.6003 -1.3167
 7766TIP3    H244790   1.467   2.496  16.633 -0.2716  0.4121 -0.3355
 7767TIP3   OH244791   3.430   5.304  11.872 -0.1227  0.4323 -0.0788
 7767TIP3    H144792   3.343   5.319  11.835  0.8602  1.2598 -2.1889
 7767TIP3    H244793   3.422   5.224  11.922 -2.3713  1.0800  0.6584
 7768TIP3   OH244794   1.001   2.176   3.960  0.9630  0.1245  0.0720
 7768TIP3    H144795   1.065   2.241   3.932 -0.2441  1.0182 -0.6579
 7768TIP3    H244796   0.985   2.196   4.052  2.1470 -0.4770  0.4283
 7769TIP3   OH244797   2.956   3.878   1.832  0.1740 -0.5927  0.7329
 7769TIP3    H144798   2.916   3.860   1.917  1.0390 -1.7807  0.9057
 7769TIP3    H244799   3.009   3.956   1.847  0.5322 -0.9430  1.3771
 7770TIP3   OH244800   4.073   0.151   0.468 -0.2098  0.9348 -0.2815
 7770TIP3    H144801   4.045   0.223   0.524 -1.0903  0.0367  0.4486
 7770TIP3    H244802   4.028   0.167   0.385 -0.0631  1.4584 -0.2609
 7771TIP3   OH244803   4.699   5.039   3.554  0.2475  0.0592  0.0725
 7771TIP3    H144804   4.701   4.973   3.623  2.6605  0.7584  0.7547
 7771TIP3    H244805   4.655   5.114   3.594 -2.0864 -0.9479 -0.5559
 7772TIP3   OH244806   0.214   3.265  12.239 -0.2158 -0.8301 -0.2786
 7772TIP3    H144807   0.249   3.199  12.180  0.3388 -0.8814  0.1082
 7772TIP3    H244808   0.125   3.281  12.207  0.6533  0.3934 -2.1615
 7773TIP3   OH244809   1.372   2.718   1.026 -0.3969  0.6467  0.7734
 7773TIP3    H144810   1.447   2.728   1.085  0.5046  1.6394 -0.5213
 7773TIP3    H244811   1.310   2.664   1.076  0.1860  1.7621  2.7656
 7774TIP3   OH244812   6.071   1.046  16.274 -0.5189  0.1908  0.5831
 7774TIP3    H144813   6.007   1.025  16.342 -0.1598 -0.0116  0.8601
 7774TIP3    H244814   6.049   1.135  16.246 -2.5791 -0.8234 -1.1663
 7775TIP3   OH244815   0.053   2.766   1.148  0.1439 -0.5990 -0.1897
 7775TIP3    H144816   0.089   2.688   1.191  1.2685  0.4892  0.8960
 7775TIP3    H244817   0.120   2.792   1.086  0.4264  0.3631  0.5109
 7776TIP3   OH244818   0.683   5.179   4.001 -0.2408 -0.1279 -0.3330
 7776TIP3    H144819   0.691   5.089   3.969  1.8881  0.1257 -0.5971
 7776TIP3    H244820   0.678   5.232   3.922  0.4519  0.1250 -0.2140
 7777TIP3   OH244821   1.259   5.978  14.327 -0.7351  1.0169 -0.4818
 7777TIP3    H144822   1.219   6.025  14.254  0.9200  1.4021 -1.1754
 7777TIP3    H244823   1.315   6.043  14.370 -0.0800  0.2442 -0.1485
 7778TIP3   OH244824   6.613   2.119  15.883  0.2631 -0.0973  0.3383
 7778TIP3    H144825   6.658   2.074  15.812 -0.4428 -1.4127  0.7041
 7778TIP3    H244826   6.660   2.093  15.962  0.6779  0.8818  0.4155
 7779TIP3   OH244827   3.046   3.080  10.960 -0.0744  0.2097  0.1800
 7779TIP3    H144828   3.070   3.165  10.924 -0.2434  0.8101  1.4392
 7779TIP3    H244829   2.967   3.055  10.912 -0.8192  1.4205  0.7483
 7780TIP3   OH244830   0.337   6.615  10.963 -0.4646 -0.4646 -0.4511
 7780TIP3    H144831   0.300   6.694  11.002  0.8474 -0.5051  0.9299
 7780TIP3    H244832   0.423   6.606  11.004 -0.8760 -2.9895 -0.0824
 7781TIP3   OH244833   3.536   1.608  13.233 -0.1696 -0.2095 -0.0422
 7781TIP3    H144834   3.476   1.547  13.190 -1.2688 -0.1540  1.3558
 7781TIP3    H244835   3.504   1.613  13.323  0.6614  1.4713  0.1824
 7782TIP3   OH244836   4.092   0.141  10.807 -0.1883 -0.0084 -0.6655
 7782TIP3    H144837   4.088   0.166  10.714  0.2930  0.3728 -0.5815
 7782TIP3    H244838   4.028   0.070  10.815  0.7584 -0.9836 -1.5834
 7783TIP3   OH244839   2.827   1.693  11.835  0.2038 -0.0571 -0.8092
 7783TIP3    H144840   2.868   1.607  11.826 -0.8583 -0.5428 -1.0346
 7783TIP3    H244841   2.780   1.706  11.752  1.9911  1.6090 -1.5975
 7784TIP3   OH244842   5.979   1.967  12.550  0.0718 -0.4291  0.5264
 7784TIP3    H144843   6.040   2.025  12.505 -0.7214  0.7734  0.9509
 7784TIP3    H244844   5.895   1.981  12.506 -0.1717 -1.1057  0.7660
 7785TIP3   OH244845   0.218   6.777  16.295  0.2249 -0.5423  0.4472
 7785TIP3    H144846   0.139   6.801  16.246 -0.1670 -0.3634  1.1501
 7785TIP3    H244847   0.282   6.844  16.270 -0.2681  0.1200  0.9097
 7786TIP3   OH244848   4.217   3.349   4.806 -0.6538 -0.4796 -0.0810
 7786TIP3    H144849   4.291   3.405   4.826 -0.8948  0.2375 -1.1420
 7786TIP3    H244850   4.232   3.321   4.715 -1.5126 -0.5739 -0.1992
 7787TIP3   OH244851   6.575   1.419  13.342  0.7746 -0.3639 -0.0440
 7787TIP3    H144852   6.552   1.359  13.272  0.3298 -0.5332  0.2406
 7787TIP3    H244853   6.548   1.374  13.422  0.8478  0.0239  0.2014
 7788TIP3   OH244854   4.952   6.001   0.411  0.0915 -0.3802  0.3233
 7788TIP3    H144855   4.868   6.028   0.374 -0.1769  2.0554  2.5704
 7788TIP3    H244856   5.017   6.039   0.352 -0.3510  0.2982  0.2719
 7789TIP3   OH244857   3.533   1.414  12.900 -0.1497 -0.3329  0.3170
 7789TIP3    H144858   3.510   1.431  12.991 -1.9222  0.7343 -0.3043
 7789TIP3    H244859   3.562   1.323  12.899 -0.8239 -0.5740  1.8142
 7790TIP3   OH244860   0.726   2.887   4.898  0.6739 -0.5336  0.3759
 7790TIP3    H144861   0.750   2.937   4.976 -1.1745  1.4411 -0.2782
 7790TIP3    H244862   0.798   2.905   4.836  1.7973 -1.5582  1.3561
 7791TIP3   OH244863   2.800   0.412   3.789 -0.3908  0.2688  0.0147
 7791TIP3    H144864   2.814   0.493   3.838 -0.9122  0.4563 -0.1480
 7791TIP3    H244865   2.729   0.368   3.835  0.1652 -0.2901  0.3428
 7792TIP3   OH244866   1.043   1.994  17.020  0.5083  0.1818 -0.8567
 7792TIP3    H144867   1.125   1.952  17.043 -0.7758 -1.5887  0.6371
 7792TIP3    H244868   1.030   2.061  17.086 -0.9120 -1.8501  1.0023
 7793TIP3   OH244869   1.230   0.162   5.084  0.4569 -0.4344 -0.2759
 7793TIP3    H144870   1.230   0.081   5.033 -1.5407 -1.0459  0.5966
 7793TIP3    H244871   1.251   0.231   5.022 -0.1012 -1.3790 -1.5258
 7794TIP3   OH244872   6.537   1.489   3.047 -0.4040  0.2720 -0.3366
 7794TIP3    H144873   6.618   1.540   3.048 -0.6976  0.7599 -1.0137
 7794TIP3    H244874   6.547   1.431   2.971  0.6990 -1.9580  1.4438
 7795TIP3   OH244875   3.317   0.201  15.807 -0.6437 -0.3353  0.7310
 7795TIP3    H144876   3.244   0.149  15.775 -1.4195  0.3075  1.4171
 7795TIP3    H244877   3.288   0.292  15.796  0.3713 -0.0654  0.2714
 7796TIP3   OH244878   3.378   1.266  12.412 -0.3054  0.1316 -0.4313
 7796TIP3    H144879   3.323   1.236  12.485 -1.3783 -0.3885 -1.4356
 7796TIP3    H244880   3.389   1.188  12.358  0.3848  0.5531 -0.8898
 7797TIP3   OH244881   4.188   2.053   1.043 -0.5325 -0.4730  0.1271
 7797TIP3    H144882   4.120   2.120   1.036 -1.7893 -1.8982 -1.7589
 7797TIP3    H244883   4.177   2.016   1.131 -1.9151 -0.3901 -0.0073
 7798TIP3   OH244884   1.508   5.082   2.599  0.2806 -0.1161 -0.5450
 7798TIP3    H144885   1.469   4.995   2.597  0.0705 -0.1032  1.7761
 7798TIP3    H244886   1.601   5.067   2.582  0.2401 -0.7892 -0.1917
 7799TIP3   OH244887   6.191   6.467  13.524 -0.0619 -0.1305  0.2089
 7799TIP3    H144888   6.118   6.423  13.567 -1.1754  1.4814 -0.0009
 7799TIP3    H244889   6.209   6.544  13.578  2.1684 -1.0195  0.8195
 7800TIP3   OH244890   5.501   5.276   5.499  0.5718 -0.0922 -0.3860
 7800TIP3    H144891   5.440   5.326   5.554  2.2597  0.8186  0.7071
 7800TIP3    H244892   5.477   5.184   5.514 -0.6769  0.2634 -0.1610
 7801TIP3   OH244893   5.120   3.735  11.074  0.7451 -0.5397  1.2587
 7801TIP3    H144894   5.211   3.705  11.079  0.7765 -0.5897  0.4433
 7801TIP3    H244895   5.112   3.775  10.988  0.1372 -0.0502  1.5337
 7802TIP3   OH244896   1.094   6.047   1.794 -0.4130  0.3244 -0.6595
 7802TIP3    H144897   1.155   6.117   1.769  1.3392 -0.1287  2.1439
 7802TIP3    H244898   1.048   6.082   1.870 -0.9016 -0.8388 -0.4159
 7803TIP3   OH244899   1.319   1.497  11.544  0.4426  0.1167  0.0355
 7803TIP3    H144900   1.249   1.503  11.479  1.5987 -0.8119 -1.3242
 7803TIP3    H244901   1.332   1.587  11.572 -2.9066  0.0573  2.0952
 7804TIP3   OH244902   4.132   6.531  12.515 -0.7616  0.5743 -0.7701
 7804TIP3    H144903   4.130   6.498  12.605 -2.3068  0.7632 -0.7270
 7804TIP3    H244904   4.057   6.489  12.472  3.3743 -4.3841 -3.7324
 7805TIP3   OH244905   2.462   4.562  15.128 -0.0242 -0.4971 -0.6009
 7805TIP3    H144906   2.395   4.589  15.065  0.4089  2.0163 -0.0538
 7805TIP3    H244907   2.481   4.641  15.178  1.6445 -1.7616  0.8494
 7806TIP3   OH244908   0.834   3.909   4.840 -0.1207 -0.0131  0.4686
 7806TIP3    H144909   0.758   3.942   4.887 -1.9442 -2.6692 -0.4961
 7806TIP3    H244910   0.863   3.834   4.892  1.0495  0.1841  0.1143
 7807TIP3   OH244911   1.972   4.943  11.990 -0.2358 -0.4022  0.7265
 7807TIP3    H144912   2.018   5.016  12.031 -0.7218  0.1597  0.2655
 7807TIP3    H244913   1.879   4.962  12.003 -0.4033 -0.1267 -0.7936
 7808TIP3   OH244914   0.879   2.200   2.072  0.1651 -0.1521 -0.1187
 7808TIP3    H144915   0.819   2.186   2.145  0.6747  0.3073  0.3898
 7808TIP3    H244916   0.891   2.113   2.034 -2.5324  0.0568 -1.5829
 7809TIP3   OH244917   2.112   3.272  13.883  0.2496  0.1065  0.3212
 7809TIP3    H144918   2.103   3.183  13.916  0.6112  0.2419  0.7816
 7809TIP3    H244919   2.157   3.320  13.952 -0.0266  0.6742  0.1178
 7810TIP3   OH244920   6.253   0.588   4.147  1.0008 -0.1353 -0.7394
 7810TIP3    H144921   6.285   0.667   4.103  2.6633 -1.3714 -1.8168
 7810TIP3    H244922   6.299   0.588   4.231 -0.8394  1.2933  0.3047
 7811TIP3   OH244923   1.513   5.520   4.936 -0.2384 -0.1135  0.0992
 7811TIP3    H144924   1.479   5.505   5.024 -3.0423 -0.8698 -1.0650
 7811TIP3    H244925   1.502   5.614   4.922 -1.0726 -0.2112  0.0631
 7812TIP3   OH244926   6.169   5.758  15.734 -0.1338 -0.2142  0.1717
 7812TIP3    H144927   6.096   5.801  15.690  2.1192  1.7103 -1.8628
 7812TIP3    H244928   6.169   5.796  15.822 -0.4453  1.2191 -0.4266
 7813TIP3   OH244929   1.350   5.807  15.921  0.0034  0.3663  0.0825
 7813TIP3    H144930   1.387   5.847  16.000 -1.0399  2.1720 -0.3035
 7813TIP3    H244931   1.365   5.872  15.852  1.0320 -1.2637 -1.2491
 7814TIP3   OH244932   1.396   4.571   1.571 -0.0859 -0.2909 -0.1703
 7814TIP3    H144933   1.345   4.557   1.651 -0.6223 -2.4284 -0.8495
 7814TIP3    H244934   1.485   4.585   1.601 -0.6574  1.1229  0.9098
 7815TIP3   OH244935   4.312   1.566   2.019 -0.3360  0.5131  0.6166
 7815TIP3    H144936   4.340   1.622   1.947  4.0615 -0.8322  1.1311
 7815TIP3    H244937   4.290   1.483   1.977  0.6631  0.2343  0.6332
 7816TIP3   OH244938   6.665   2.864  12.339 -0.3849  0.4488 -0.5660
 7816TIP3    H144939   6.757   2.876  12.314 -0.0112 -1.0363  0.0846
 7816TIP3    H244940   6.642   2.778  12.305 -1.7080  1.0320 -1.1814
 7817TIP3   OH244941   1.409   1.381  16.577  0.2904  0.1303  0.3728
 7817TIP3    H144942   1.488   1.351  16.622  0.9057  1.1416 -0.0225
 7817TIP3    H244943   1.434   1.464  16.536 -1.3431  1.1582  1.3748
 7818TIP3   OH244944   6.243   4.937   3.777 -0.3942  0.3072  0.0730
 7818TIP3    H144945   6.245   4.919   3.871 -0.4314 -0.1254 -0.0097
 7818TIP3    H244946   6.334   4.957   3.755 -0.3221  0.0366  0.1275
 7819TIP3   OH244947   3.526   0.786  11.838 -0.8264 -0.1888  0.0657
 7819TIP3    H144948   3.618   0.804  11.856 -1.1210  1.4772 -0.0190
 7819TIP3    H244949   3.508   0.704  11.884  0.4462 -0.0225  0.8709
 7820TIP3   OH244950   6.478   0.264   2.798  0.3551 -0.3905  0.0732
 7820TIP3    H144951   6.442   0.220   2.875  1.2946 -2.2984 -0.5336
 7820TIP3    H244952   6.548   0.319   2.832 -1.1515  1.0429  0.9092
 7821TIP3   OH244953   5.057   6.818   0.891  0.1410 -0.4357  0.2316
 7821TIP3    H144954   5.014   6.773   0.963  0.0999 -0.9476 -0.1109
 7821TIP3    H244955   5.150   6.797   0.901  0.3357  0.8074  1.0692
 7822TIP3   OH244956   5.779   1.211   4.874 -0.0586 -0.3945  0.8423
 7822TIP3    H144957   5.759   1.124   4.838 -1.9271 -0.4667  1.9972
 7822TIP3    H244958   5.721   1.219   4.949  0.5609  1.6157  1.1152
 7823TIP3   OH244959   3.625   4.907   2.811  0.3748 -0.3290  0.0916
 7823TIP3    H144960   3.577   4.826   2.829  1.5987 -1.0754  0.0496
 7823TIP3    H244961   3.717   4.881   2.809  0.6736  0.7412 -1.7086
 7824TIP3   OH244962   1.840   2.466   0.731  0.3260  0.1233  0.0478
 7824TIP3    H144963   1.918   2.427   0.693  0.8554 -0.3770  1.6144
 7824TIP3    H244964   1.840   2.436   0.822 -1.2920  0.7141  0.2553
 7825TIP3   OH244965   1.103   1.268   2.377  0.6742 -0.3254  0.7915
 7825TIP3    H144966   1.033   1.203   2.367 -0.0814  0.2061  2.4230
 7825TIP3    H244967   1.101   1.319   2.296 -0.0755 -1.0367  0.3547
 7826TIP3   OH244968   4.693   6.720  16.703  0.6405 -0.0484  0.0872
 7826TIP3    H144969   4.775   6.752  16.742  0.8703  0.4370 -0.7849
 7826TIP3    H244970   4.695   6.753  16.613 -0.2963 -0.4288 -0.0739
 7827TIP3   OH244971   3.904   3.819   4.919  0.2865 -0.1757  0.0988
 7827TIP3    H144972   3.900   3.861   5.005 -1.6927 -1.7815  0.8389
 7827TIP3    H244973   3.970   3.751   4.929  0.7751  0.2866  0.0418
 7828TIP3   OH244974   4.235   6.684  11.784 -0.2570 -0.2243  0.4389
 7828TIP3    H144975   4.234   6.775  11.815  0.2657 -0.4026  0.9797
 7828TIP3    H244976   4.198   6.634  11.856 -0.5707 -0.4352  0.1270
 7829TIP3   OH244977   6.345   1.793  13.577  0.1345  0.1003  0.4773
 7829TIP3    H144978   6.391   1.876  13.569  0.2487  0.0904  1.0221
 7829TIP3    H244979   6.254   1.818  13.593  0.0234  0.1195 -0.1825
 7830TIP3   OH244980   0.118   2.276   3.792 -0.4789 -0.1013  0.0203
 7830TIP3    H144981   0.074   2.195   3.767  0.3826 -1.1465  1.7495
 7830TIP3    H244982   0.180   2.293   3.721 -1.8136 -0.0491 -1.1455
 7831TIP3   OH244983   6.660   2.032   5.495 -0.4151 -0.0650  0.1742
 7831TIP3    H144984   6.742   1.987   5.475  0.3397  0.9342  1.0206
 7831TIP3    H244985   6.603   2.010   5.422 -0.3561 -3.1215  0.9397
 7832TIP3   OH244986   5.802   5.714  13.534  0.0124 -0.6006 -0.3486
 7832TIP3    H144987   5.741   5.781  13.505 -0.4336 -1.1999 -0.8078
 7832TIP3    H244988   5.827   5.666  13.455  1.4572 -0.0670 -0.2377
 7833TIP3   OH244989   3.164   4.936  13.544  0.2300 -0.0681 -0.4378
 7833TIP3    H144990   3.199   5.011  13.592  1.4452 -0.5991 -0.4752
 7833TIP3    H244991   3.157   4.867  13.610 -1.0671  0.1159 -0.3615
 7834TIP3   OH244992   1.170   6.387  14.003  0.0360  0.5833 -0.4994
 7834TIP3    H144993   1.235   6.426  14.061  1.0799 -0.5128 -0.9112
 7834TIP3    H244994   1.217   6.318  13.956 -1.3568 -0.0681 -0.9862
 7835TIP3   OH244995   0.914   4.699  12.623  0.0545 -0.8050  0.2925
 7835TIP3    H144996   0.934   4.674  12.713 -0.7105  0.1560  0.7236
 7835TIP3    H244997   0.833   4.749  12.628  0.1886 -0.4451 -0.8889
 7836TIP3   OH244998   4.343   6.370   4.275  0.7044  0.9689 -0.0536
 7836TIP3    H144999   4.249   6.376   4.290  0.6059 -1.0371  0.2437
 7836TIP3    H245000   4.383   6.390   4.360  0.4717 -0.1764  0.3323
 7837TIP3   OH245001   2.650   3.150  14.565 -0.0506 -0.6553 -0.5197
 7837TIP3    H145002   2.620   3.060  14.552 -0.2580 -0.5421 -0.8346
 7837TIP3    H245003   2.743   3.148  14.543 -0.2721 -0.5862 -1.4957
 7838TIP3   OH245004   1.962   2.387   1.182  0.2873 -0.1409  0.2248
 7838TIP3    H145005   1.889   2.428   1.227  0.7622  0.5253  0.3980
 7838TIP3    H245006   1.957   2.294   1.207 -0.9227 -0.2404 -0.3492
 7839TIP3   OH245007   5.599   5.867   3.114  0.8175 -0.1848 -0.6859
 7839TIP3    H145008   5.564   5.806   3.180  1.5296 -1.1474 -1.1927
 7839TIP3    H245009   5.673   5.909   3.158  0.6353 -0.0512 -0.5060
 7840TIP3   OH245010   0.725   6.587  10.859 -0.3783 -0.4456  0.4708
 7840TIP3    H145011   0.769   6.623  10.936  1.6605 -0.0643 -0.8271
 7840TIP3    H245012   0.681   6.662  10.819  0.2210 -0.2519  0.1727
 7841TIP3   OH245013   4.089   4.193   4.140 -0.4630  0.5520 -0.1189
 7841TIP3    H145014   4.114   4.178   4.231  0.3990  0.9838 -0.2842
 7841TIP3    H245015   4.022   4.262   4.145 -0.2361  0.7529  0.1644
 7842TIP3   OH245016   6.055   1.422   2.186 -0.4336 -0.5993 -0.5674
 7842TIP3    H145017   6.126   1.482   2.166 -0.4427 -0.8191 -1.2620
 7842TIP3    H245018   6.063   1.406   2.281 -0.8697  1.0457 -0.2411
 7843TIP3   OH245019   4.872   6.812  11.767  0.3212  0.4371  0.0616
 7843TIP3    H145020   4.785   6.791  11.801  0.3384 -2.5541 -1.5354
 7843TIP3    H245021   4.871   6.778  11.677  2.8924  1.0265 -0.2255
 7844TIP3   OH245022   6.151   6.534  15.448  0.4219  0.4965  0.5510
 7844TIP3    H145023   6.114   6.545  15.536  0.1758 -0.5689  0.5979
 7844TIP3    H245024   6.240   6.505  15.464 -0.3921 -2.2258  0.5061
 7845TIP3   OH245025   4.392   2.554   1.491  0.0894  0.8775  0.0723
 7845TIP3    H145026   4.415   2.468   1.455  0.9131  0.2633  2.0385
 7845TIP3    H245027   4.476   2.597   1.508 -0.3053  1.6020  0.2454
 7846TIP3   OH245028   1.835   0.579  15.739 -0.4370  0.0194 -0.1118
 7846TIP3    H145029   1.841   0.536  15.653 -0.7847 -0.8279  0.2777
 7846TIP3    H245030   1.912   0.547  15.786 -1.8564 -1.9738  0.9560
 7847TIP3   OH245031   3.570   1.720   1.080 -0.2790 -0.7273  0.2640
 7847TIP3    H145032   3.523   1.801   1.061 -0.6151 -0.9195  0.2730
 7847TIP3    H245033   3.605   1.692   0.995  0.5772 -0.1144  0.4077
 7848TIP3   OH245034   3.015   3.036   3.396  0.1589 -0.2516 -0.8157
 7848TIP3    H145035   2.968   3.112   3.362  1.8804  1.6220  0.8923
 7848TIP3    H245036   3.107   3.056   3.380  0.8128 -0.6938  2.1943
 7849TIP3   OH245037   4.855   5.074   6.243 -0.5637  0.0906 -0.4242
 7849TIP3    H145038   4.818   5.153   6.204 -1.1389  0.3570  0.6411
 7849TIP3    H245039   4.788   5.044   6.305  0.1216 -0.6049 -0.0070
 7850TIP3   OH245040   4.823   5.793  14.196 -0.1088 -0.2552 -0.1776
 7850TIP3    H145041   4.790   5.883  14.197 -2.0841 -0.9560  0.2712
 7850TIP3    H245042   4.781   5.753  14.120  1.1226 -0.6767 -0.6447
 7851TIP3   OH245043   4.412   2.838   4.386 -0.6058  0.1817  0.6663
 7851TIP3    H145044   4.388   2.915   4.334  0.6624 -1.5162 -2.5516
 7851TIP3    H245045   4.385   2.764   4.333  0.8139 -1.6353  2.4201
 7852TIP3   OH245046   4.796   1.882   4.698 -0.1126  0.4615  0.3396
 7852TIP3    H145047   4.842   1.960   4.728 -1.1288  1.0967  0.2865
 7852TIP3    H245048   4.854   1.842   4.633 -0.0619  1.7605 -0.4197
 7853TIP3   OH245049   0.495   2.776   2.480  0.0028 -0.5724 -0.2386
 7853TIP3    H145050   0.455   2.814   2.402 -0.9502 -1.6252 -0.2679
 7853TIP3    H245051   0.426   2.724   2.520  0.9377 -1.2822  0.4688
 7854TIP3   OH245052   6.475   3.641  11.022 -0.0563 -0.5188  0.2582
 7854TIP3    H145053   6.408   3.586  11.061  1.3088 -0.8710  2.1575
 7854TIP3    H245054   6.546   3.643  11.086  2.4915 -1.5475 -2.4090
 7855TIP3   OH245055   1.578   2.690  14.219  0.0941 -0.1525 -0.8723
 7855TIP3    H145056   1.522   2.623  14.180  0.1517 -0.3017 -0.6982
 7855TIP3    H245057   1.516   2.753  14.256  0.0215  0.5313 -2.1037
 7856TIP3   OH245058   0.965   1.077  11.771  0.0122  0.1889  0.1211
 7856TIP3    H145059   0.971   1.063  11.676 -0.1126 -1.1944  0.3132
 7856TIP3    H245060   0.960   1.173  11.780 -1.9453  0.2775 -1.3919
 7857TIP3   OH245061   1.344   5.725  10.987  0.4761  0.2057 -0.4529
 7857TIP3    H145062   1.401   5.798  11.008  0.2257  0.2512  0.0792
 7857TIP3    H245063   1.402   5.661  10.944  0.4376  1.2220 -2.0552
 7858TIP3   OH245064   4.138   0.860  13.749  0.5986 -0.0633  0.0511
 7858TIP3    H145065   4.204   0.899  13.805  0.3769 -0.6159  0.7116
 7858TIP3    H245066   4.181   0.846  13.665  1.4497 -0.8240  0.6081
 7859TIP3   OH245067   4.138   3.951  14.977 -0.1082 -0.0643  0.2884
 7859TIP3    H145068   4.212   3.934  15.035  0.4666  0.2147 -0.3622
 7859TIP3    H245069   4.176   3.995  14.901 -0.6586 -1.5591 -0.8778
 7860TIP3   OH245070   2.604   3.073  11.564 -0.0967  0.3329 -0.1915
 7860TIP3    H145071   2.686   3.031  11.591  0.6391  1.4170 -0.6957
 7860TIP3    H245072   2.631   3.141  11.502 -1.3607  0.8121 -0.2320
 7861TIP3   OH245073   3.730   3.520  11.367 -0.2242 -0.0415 -0.1740
 7861TIP3    H145074   3.721   3.432  11.331  2.1836  0.2190 -1.5303
 7861TIP3    H245075   3.755   3.505  11.458 -1.1203 -0.7411 -0.0294
 7862TIP3   OH245076   1.031   5.581  13.477 -0.2952  0.1363  0.6673
 7862TIP3    H145077   1.042   5.592  13.572 -0.3077 -0.4522  0.7415
 7862TIP3    H245078   1.048   5.488  13.462 -1.7330 -0.0837  0.2940
 7863TIP3   OH245079   1.168   3.234  13.134  0.1104 -0.1167 -0.0629
 7863TIP3    H145080   1.140   3.205  13.221  0.3295  0.5189  0.2240
 7863TIP3    H245081   1.089   3.225  13.080 -0.0292 -0.5121  0.2006
 7864TIP3   OH245082   5.981   2.808   2.454  0.0706  0.3844 -0.2289
 7864TIP3    H145083   5.994   2.726   2.406 -3.4153 -1.3904  1.6107
 7864TIP3    H245084   6.059   2.817   2.509  1.2810 -0.7931 -1.7221
 7865TIP3   OH245085   0.078   4.670  14.397  0.2750  0.4988  0.6891
 7865TIP3    H145086   0.068   4.705  14.308 -0.3332  1.4858  1.1358
 7865TIP3    H245087   0.163   4.626  14.396  0.7324  1.3746 -0.1056
 7866TIP3   OH245088   6.708   1.012   3.293  0.5952 -0.3382 -0.7093
 7866TIP3    H145089   6.641   0.991   3.359  0.7771 -0.6053 -0.6088
 7866TIP3    H245090   6.791   0.989   3.335  0.7566  0.0592 -0.8067
 7867TIP3   OH245091   5.962   5.470   4.371 -0.2526 -0.5945 -0.3913
 7867TIP3    H145092   5.936   5.548   4.322 -1.4202 -1.3137 -0.9145
 7867TIP3    H245093   5.895   5.459   4.438 -0.2891 -1.3552 -0.5449
 7868TIP3   OH245094   6.553   0.689   3.595 -0.1491 -0.1026 -0.1215
 7868TIP3    H145095   6.500   0.710   3.518 -0.9828  1.2590  0.7875
 7868TIP3    H245096   6.516   0.744   3.665  0.3230 -1.6047  1.3455
 7869TIP3   OH245097   2.413   4.100  10.668  0.3377  0.3760  0.3801
 7869TIP3    H145098   2.502   4.130  10.682  0.0997  1.1073  0.3604
 7869TIP3    H245099   2.358   4.166  10.711 -0.1540 -0.5998  1.2854
 7870TIP3   OH245100   3.134   1.050  12.157 -0.6489  0.2006  0.0845
 7870TIP3    H145101   3.192   1.096  12.097  0.8384 -1.2609  0.3577
 7870TIP3    H245102   3.102   0.975  12.107 -2.6557  1.2016 -0.1939
 7871TIP3   OH245103   6.403   2.430  15.588 -0.2376  0.3309 -0.4027
 7871TIP3    H145104   6.454   2.501  15.548 -0.1093  0.8442  0.6464
 7871TIP3    H245105   6.464   2.387  15.647 -1.0128  0.9537  0.8695
 7872TIP3   OH245106   4.137   1.446   4.374  0.6221  0.4866 -0.0620
 7872TIP3    H145107   4.200   1.500   4.327  0.9940  0.7543  0.7250
 7872TIP3    H245108   4.052   1.485   4.353  0.5649 -0.8238 -2.3594
 7873TIP3   OH245109   1.041   0.059  12.416 -0.6930 -0.6621 -0.4132
 7873TIP3    H145110   1.030  -0.029  12.381  1.8834 -0.1839 -2.5346
 7873TIP3    H245111   1.130   0.060  12.452 -1.2279  0.6395  0.9472
 7874TIP3   OH245112   0.179   2.693   0.553  0.2487 -0.0480 -0.3676
 7874TIP3    H145113   0.161   2.786   0.542  0.3472 -0.0997 -1.0274
 7874TIP3    H245114   0.098   2.657   0.588  0.8886  0.6183  1.8357
 7875TIP3   OH245115   0.281   0.134  15.271 -0.1777 -0.1668  0.0673
 7875TIP3    H145116   0.253   0.206  15.327  1.0057  1.3097 -1.1628
 7875TIP3    H245117   0.221   0.136  15.197  0.2441 -0.0286 -0.2763
 7876TIP3   OH245118   2.567   5.911  11.205  0.1938 -0.4388  0.4649
 7876TIP3    H145119   2.512   5.864  11.267 -0.8225  0.0148 -0.0765
 7876TIP3    H245120   2.518   5.909  11.123  0.5501  0.7680  0.2078
 7877TIP3   OH245121   5.120   6.400   3.613  0.1006  0.0652  0.4956
 7877TIP3    H145122   5.073   6.321   3.585 -1.1984  1.2558 -0.7908
 7877TIP3    H245123   5.196   6.367   3.660  0.4831 -2.0059 -1.4516
 7878TIP3   OH245124   1.790   6.482  14.195  0.4168 -0.2469  0.5601
 7878TIP3    H145125   1.718   6.434  14.153  0.4814  0.3567 -0.2613
 7878TIP3    H245126   1.762   6.493  14.286 -1.1291  1.1069 -0.0404
 7879TIP3   OH245127   2.519   5.116  12.594  0.5865 -0.2176  0.3752
 7879TIP3    H145128   2.562   5.123  12.509  0.0515 -0.8808  0.0382
 7879TIP3    H245129   2.462   5.193  12.599  0.8380 -0.0238  0.2662
 7880TIP3   OH245130   0.218   6.480   5.053 -0.2049 -0.6810  0.3634
 7880TIP3    H145131   0.134   6.463   5.096  0.3846 -0.5069  1.6092
 7880TIP3    H245132   0.284   6.445   5.113  0.7672  1.7506  0.8035
 7881TIP3   OH245133   6.238   3.494   2.244 -0.1417  0.1900  0.4608
 7881TIP3    H145134   6.236   3.457   2.332 -2.3643  2.0906  1.2312
 7881TIP3    H245135   6.147   3.488   2.213  0.3201  1.0006 -1.1027
 7882TIP3   OH245136   5.330   3.704  16.963  0.3712  0.0140 -0.4955
 7882TIP3    H145137   5.301   3.795  16.969  1.2077  0.2139  0.6424
 7882TIP3    H245138   5.308   3.666  17.048  2.5447 -0.0762  0.0641
 7883TIP3   OH245139   0.738   3.186  11.674  0.2686 -0.3082 -0.5048
 7883TIP3    H145140   0.812   3.245  11.679 -0.5253  0.5461  1.5611
 7883TIP3    H245141   0.772   3.101  11.701  1.0303 -0.4632 -1.9078
 7884TIP3   OH245142   4.347   4.787  16.530  0.8332 -0.7234  0.1101
 7884TIP3    H145143   4.339   4.737  16.612 -0.2901  2.1789  1.8798
 7884TIP3    H245144   4.437   4.772  16.501  1.8165 -0.4389  2.8439
 7885TIP3   OH245145   2.259   6.305   1.575  0.2428 -0.0922  0.5606
 7885TIP3    H145146   2.227   6.394   1.567 -0.7922 -0.5125 -0.1382
 7885TIP3    H245147   2.349   6.309   1.543 -0.0405  0.5586 -0.1826
 7886TIP3   OH245148   5.347   6.463  16.929  0.1276  0.4956  0.3474
 7886TIP3    H145149   5.403   6.501  16.998 -0.4853  0.2144  1.0076
 7886TIP3    H245150   5.361   6.369  16.937 -0.3415  0.4305  0.4396
 7887TIP3   OH245151   3.389   1.379   3.661  0.0942 -0.3179 -0.5070
 7887TIP3    H145152   3.449   1.402   3.732  1.6804 -2.4683 -1.0834
 7887TIP3    H245153   3.384   1.459   3.607  1.5520  0.2613  0.1776
 7888TIP3   OH245154   6.395   3.470   2.598 -0.4465  0.6127  0.4568
 7888TIP3    H145155   6.308   3.433   2.587 -0.2230 -0.4337  1.9463
 7888TIP3    H245156   6.380   3.559   2.630 -0.9726  0.6586  0.0776
 7889TIP3   OH245157   4.828   0.203   1.988  0.3218  0.8183 -0.0789
 7889TIP3    H145158   4.743   0.219   1.945  0.8803  2.1432 -0.7007
 7889TIP3    H245159   4.834   0.107   1.993 -0.8017  0.6953 -0.8641
 7890TIP3   OH245160   3.336   1.784   1.306 -0.2664 -0.0815  0.7448
 7890TIP3    H145161   3.328   1.854   1.241 -1.9774 -2.3082 -1.5373
 7890TIP3    H245162   3.280   1.812   1.378 -0.2884  1.2657  0.2222
 7891TIP3   OH245163   0.107   4.382   1.612 -0.3782  0.2956  0.0781
 7891TIP3    H145164   0.163   4.305   1.605 -0.1790  0.5958 -2.1339
 7891TIP3    H245165   0.165   4.450   1.648  0.1023  0.0500 -0.2232
 7892TIP3   OH245166   5.886   2.776  11.457 -0.0355  0.4923 -0.2347
 7892TIP3    H145167   5.910   2.846  11.397  2.2578  0.0579  0.1558
 7892TIP3    H245168   5.836   2.715  11.403  3.0727 -0.5188 -2.0630
 7893TIP3   OH245169   0.218   6.363   3.998 -0.0794 -0.2225  0.4911
 7893TIP3    H145170   0.130   6.351   3.962 -1.4748  2.0906  2.8874
 7893TIP3    H245171   0.250   6.274   4.013 -0.5929 -1.1718 -3.5514
 7894TIP3   OH245172   5.518   5.898  13.635  0.3027 -0.1958  0.2784
 7894TIP3    H145173   5.544   5.890  13.543  1.3726  3.2693  0.2121
 7894TIP3    H245174   5.577   5.839  13.682  3.2235  1.8371 -0.7362
 7895TIP3   OH245175   0.317   4.794  12.245  0.1258 -0.2487  0.3529
 7895TIP3    H145176   0.353   4.785  12.156 -0.2832 -3.2770  0.4623
 7895TIP3    H245177   0.376   4.856  12.288 -0.0778  1.8084 -2.2147
 7896TIP3   OH245178   4.976   1.058   3.132  0.1816  0.7864  0.1807
 7896TIP3    H145179   4.898   1.036   3.184  1.0990  0.8424  1.6294
 7896TIP3    H245180   4.942   1.105   3.057 -1.4526 -1.7570 -0.7549
 7897TIP3   OH245181   3.336   0.928  13.791 -0.1772 -0.0865  0.4497
 7897TIP3    H145182   3.360   0.986  13.720  0.4379 -2.5885 -1.4590
 7897TIP3    H245183   3.241   0.938  13.800 -0.6119 -1.4143 -2.2942
 7898TIP3   OH245184   3.319   2.822  12.596  0.0522 -0.3820  0.0809
 7898TIP3    H145185   3.232   2.783  12.594  0.4987 -1.3843 -0.7749
 7898TIP3    H245186   3.375   2.752  12.631  0.4206  0.4510  1.1774
 7899TIP3   OH245187   1.463   2.263  14.202  0.0870  0.7472 -0.3196
 7899TIP3    H145188   1.409   2.340  14.183  0.0041  0.9043  0.5287
 7899TIP3    H245189   1.552   2.297  14.211  0.3061  0.5183 -1.4980
 7900TIP3   OH245190   0.813   5.151  14.946 -0.7046  0.1960  0.0776
 7900TIP3    H145191   0.815   5.137  14.851  2.2282 -1.5149  0.3294
 7900TIP3    H245192   0.879   5.219  14.961  1.8619 -2.4561  1.2533
 7901TIP3   OH245193   2.413   3.178  16.610 -0.2743 -0.1143  0.4737
 7901TIP3    H145194   2.375   3.266  16.616 -0.5947 -0.3831  2.6985
 7901TIP3    H245195   2.502   3.187  16.645 -0.3727 -0.6990  0.8916
 7902TIP3   OH245196   1.711   0.914  15.077  0.2952 -0.5572  0.1785
 7902TIP3    H145197   1.783   0.954  15.030  0.3772 -1.1914 -0.2474
 7902TIP3    H245198   1.634   0.967  15.054  0.4339 -0.5284 -0.2227
 7903TIP3   OH245199   4.006   2.645  14.704  0.6479  0.0490 -0.0052
 7903TIP3    H145200   3.967   2.615  14.786  1.5802  1.3658  0.9302
 7903TIP3    H245201   4.019   2.739  14.717 -0.9886  0.6620 -2.3783
 7904TIP3   OH245202   3.145   0.437   4.807  0.4227  0.3017  0.8625
 7904TIP3    H145203   3.182   0.378   4.741  0.6001 -0.2228  1.4336
 7904TIP3    H245204   3.194   0.519   4.794 -0.4774  0.6380 -0.5572
 7905TIP3   OH245205   0.720   2.020   4.124  0.4940 -0.0129 -0.4562
 7905TIP3    H145206   0.807   1.980   4.134 -0.0776 -1.3531 -0.6265
 7905TIP3    H245207   0.661   1.959   4.168 -0.3483  0.9593 -0.2226
 7906TIP3   OH245208   5.017   2.052  11.236  0.4562 -0.0671  0.2511
 7906TIP3    H145209   4.966   2.133  11.241  0.3101 -0.2252  1.4395
 7906TIP3    H245210   5.100   2.072  11.279  0.1666 -0.7335  1.1396
 7907TIP3   OH245211   4.072   5.485   4.393  0.1066 -0.4024  0.0143
 7907TIP3    H145212   4.008   5.415   4.379 -0.7053  0.2389  0.4660
 7907TIP3    H245213   4.021   5.557   4.431  1.3800 -0.4312  1.8354
 7908TIP3   OH245214   6.533   5.860   0.795 -0.1460  0.3124 -0.3782
 7908TIP3    H145215   6.601   5.907   0.844  0.6185  1.3183 -2.3479
 7908TIP3    H245216   6.520   5.779   0.844  2.1390  0.3182  0.3051
 7909TIP3   OH245217   5.878   1.038  16.457 -0.0070  0.2517  0.0673
 7909TIP3    H145218   5.811   1.100  16.429  0.5857  1.4392  1.2013
 7909TIP3    H245219   5.877   1.044  16.553  3.1645  1.8924  0.0552
 7910TIP3   OH245220   2.410   4.322   5.118 -0.1055  0.1743 -1.2953
 7910TIP3    H145221   2.388   4.229   5.123 -0.1094  0.0878 -2.6613
 7910TIP3    H245222   2.332   4.368   5.149  0.1735 -0.2877  0.1153
 7911TIP3   OH245223   2.940   1.835  11.268 -0.2082 -0.2416  0.2472
 7911TIP3    H145224   2.985   1.877  11.195 -1.6141  1.1184  0.1423
 7911TIP3    H245225   2.968   1.744  11.264  2.4808  0.5500  0.1597
 7912TIP3   OH245226   3.573   5.978  13.733 -0.0671  0.2085  0.3507
 7912TIP3    H145227   3.595   5.982  13.640  0.3282 -1.4672  0.3521
 7912TIP3    H245228   3.486   6.018  13.739 -0.4276 -0.3616 -0.8671
 7913TIP3   OH245229   3.418   5.261  15.912 -0.0735  0.4884  0.1856
 7913TIP3    H145230   3.455   5.348  15.921 -0.8262  0.9757 -1.2148
 7913TIP3    H245231   3.330   5.276  15.878 -0.3872 -0.7982  0.3902
 7914TIP3   OH245232   1.337   6.137  15.074  0.4030 -0.0381  0.5283
 7914TIP3    H145233   1.340   6.229  15.046 -0.5839  0.8444  3.1726
 7914TIP3    H245234   1.383   6.090  15.005  0.6209  2.3971 -1.0642
 7915TIP3   OH245235   4.316   2.364  13.544 -0.0794  0.2066 -0.0840
 7915TIP3    H145236   4.265   2.304  13.599  0.0671 -0.7933 -1.0281
 7915TIP3    H245237   4.290   2.341  13.455 -0.0867  1.6158 -0.4484
 7916TIP3   OH245238   0.505   5.637   2.297  0.0321 -0.2011 -0.7179
 7916TIP3    H145239   0.503   5.653   2.391 -0.7184 -0.6981 -0.6434
 7916TIP3    H245240   0.592   5.601   2.280  0.4197  0.5471 -0.3274
 7917TIP3   OH245241   1.544   6.115   6.503  0.3867  0.2096  0.4578
 7917TIP3    H145242   1.500   6.086   6.583  1.3613 -0.4660  0.7613
 7917TIP3    H245243   1.514   6.054   6.436  1.6979 -0.9368  0.8971
 7918TIP3   OH245244   5.767   0.130  11.384  0.5972  0.2160 -0.5300
 7918TIP3    H145245   5.819   0.091  11.314  0.6205 -1.6529  0.4885
 7918TIP3    H245246   5.760   0.223  11.360  4.6593  0.6083 -0.5337
 7919TIP3   OH245247   3.448   5.297  16.523  0.0237 -0.2257  0.6417
 7919TIP3    H145248   3.440   5.361  16.593  0.7156 -0.5225  0.9944
 7919TIP3    H245249   3.391   5.224  16.550  0.0037 -0.1832  0.7103
 7920TIP3   OH245250   4.776   0.958   3.314 -0.9261 -0.3544 -0.5711
 7920TIP3    H145251   4.807   1.025   3.374 -3.5813 -0.7694  1.3370
 7920TIP3    H245252   4.772   0.878   3.367  2.0506 -2.0514 -2.7587
 7921TIP3   OH245253   5.333   0.874   1.290  0.7105 -0.5139 -0.6956
 7921TIP3    H145254   5.424   0.868   1.263  1.4300  0.0011  1.5602
 7921TIP3    H245255   5.336   0.902   1.381 -1.6984 -0.6656 -0.5311
 7922TIP3   OH245256   4.223   1.804   1.592 -0.0261  0.0597  0.3056
 7922TIP3    H145257   4.228   1.774   1.502 -1.5422  0.5109  0.0631
 7922TIP3    H245258   4.144   1.762   1.627  0.3883  0.1181  1.3406
 7923TIP3   OH245259   0.892   5.448   2.984  0.6131  0.1490  0.3573
 7923TIP3    H145260   0.850   5.379   3.035  0.0845 -0.4945 -0.9492
 7923TIP3    H245261   0.976   5.411   2.958  1.0392  0.6119  1.0466
 7924TIP3   OH245262   6.353   2.318   3.816 -0.2522 -0.2016  0.2673
 7924TIP3    H145263   6.270   2.279   3.789  0.2402 -1.6555  0.8212
 7924TIP3    H245264   6.331   2.408   3.838 -1.3518 -0.0437 -1.3667
 7925TIP3   OH245265   4.839   5.823   1.357  0.4564 -0.1583 -0.1626
 7925TIP3    H145266   4.855   5.859   1.270  0.5728 -1.2546 -0.5984
 7925TIP3    H245267   4.745   5.803   1.358  0.2489  0.7894  0.3280
 7926TIP3   OH245268   4.788   6.767  10.879 -0.9791 -0.4292 -0.6185
 7926TIP3    H145269   4.757   6.681  10.908 -1.7632  0.1044  0.1674
 7926TIP3    H245270   4.718   6.800  10.823 -0.4960 -0.4674 -1.2494
 7927TIP3   OH245271   5.945   5.050   5.255 -0.4036  1.2713 -0.4099
 7927TIP3    H145272   5.855   5.083   5.251 -0.6019  1.0126  1.4801
 7927TIP3    H245273   5.941   4.977   5.317  1.5542  2.8018  1.6130
 7928TIP3   OH245274   4.077   3.156  14.918 -0.2175  0.3390 -0.4316
 7928TIP3    H145275   4.129   3.099  14.975 -1.3193 -0.7475 -0.4820
 7928TIP3    H245276   4.137   3.179  14.847  0.6915  0.4434  0.3466
 7929TIP3   OH245277   0.711   3.477   6.578  0.2177  0.4273  0.4600
 7929TIP3    H145278   0.626   3.507   6.610 -0.6551  1.3942 -2.5841
 7929TIP3    H245279   0.689   3.412   6.511  1.8696  0.7853 -0.4459
 7930TIP3   OH245280   4.971   4.399   0.669 -0.2332  0.4221  0.0089
 7930TIP3    H145281   4.989   4.442   0.585  0.0873  1.2731  0.5068
 7930TIP3    H245282   4.989   4.467   0.735 -3.9161  0.9148  0.6177
 7931TIP3   OH245283   4.198   4.313   5.562 -0.2137  0.3127  0.4708
 7931TIP3    H145284   4.211   4.357   5.647  0.0675 -1.8553  1.5895
 7931TIP3    H245285   4.242   4.228   5.572 -1.7462 -0.7108 -1.2177
 7932TIP3   OH245286   5.980   0.215  12.623  0.0453 -0.0658  0.2536
 7932TIP3    H145287   5.951   0.265  12.698 -2.2815 -0.5672 -0.2792
 7932TIP3    H245288   5.978   0.124  12.653  2.9307 -0.0006  0.7899
 7933TIP3   OH245289   5.554   2.930   0.842  0.1198 -0.0631  0.2741
 7933TIP3    H145290   5.535   3.009   0.791 -0.1558 -0.2348  0.1092
 7933TIP3    H245291   5.613   2.880   0.786 -0.2583 -0.2960  0.0835
 7934TIP3   OH245292   3.248   2.599   5.271 -0.1872  0.0003 -0.4680
 7934TIP3    H145293   3.264   2.652   5.193 -1.0128  0.3687 -0.3838
 7934TIP3    H245294   3.174   2.640   5.314 -0.4109 -0.8326 -0.0473
 7935TIP3   OH245295   1.597   1.864  16.297 -0.5090  0.1883 -0.1713
 7935TIP3    H145296   1.690   1.859  16.320 -0.4797 -0.5699 -0.4377
 7935TIP3    H245297   1.553   1.884  16.379 -0.2729 -1.1577  0.3047
 7936TIP3   OH245298   1.731   3.911   1.819 -0.0315  0.7549  0.3412
 7936TIP3    H145299   1.648   3.952   1.845 -0.8022  0.0828 -1.0168
 7936TIP3    H245300   1.724   3.900   1.724  1.2827 -0.0470  0.3276
 7937TIP3   OH245301   3.497   3.836   0.743 -0.1188  0.4358 -0.3384
 7937TIP3    H145302   3.475   3.744   0.726  0.6914  0.0815  0.4885
 7937TIP3    H245303   3.588   3.845   0.714  0.3133  0.5735  1.0310
 7938TIP3   OH245304   5.770   1.179  11.233 -0.3146  0.2030 -0.5333
 7938TIP3    H145305   5.808   1.186  11.145 -1.5742  1.4774 -1.0074
 7938TIP3    H245306   5.741   1.268  11.253 -1.5295 -0.4115  0.4776
 7939TIP3   OH245307   5.716   4.755   4.613  0.3174  0.1209 -0.1380
 7939TIP3    H145308   5.622   4.771   4.616  0.3176 -0.0906  1.5849
 7939TIP3    H245309   5.733   4.699   4.688  1.9653  0.9568  0.1391
 7940TIP3   OH245310   5.256   1.711   5.954  0.2704 -0.2006  0.2336
 7940TIP3    H145311   5.264   1.702   6.049 -0.8913 -0.1161  0.3451
 7940TIP3    H245312   5.340   1.680   5.920 -0.2578 -2.7516  1.1336
 7941TIP3   OH245313   0.357   0.467  14.396 -0.4806  0.0138 -0.1976
 7941TIP3    H145314   0.268   0.498  14.376 -0.3376  0.7441  0.2594
 7941TIP3    H245315   0.345   0.396  14.459 -0.6967  0.8434  0.7153
 7942TIP3   OH245316   1.839   3.871  11.828  0.0740 -0.1344  0.4982
 7942TIP3    H145317   1.808   3.877  11.737  0.1249  1.1649  0.5614
 7942TIP3    H245318   1.880   3.785  11.833 -1.6620 -1.0426 -0.1708
 7943TIP3   OH245319   5.047   5.726  11.621 -0.4762 -0.0218 -0.4144
 7943TIP3    H145320   5.111   5.659  11.645  0.1070  0.2720 -1.1457
 7943TIP3    H245321   5.037   5.778  11.701  0.9294  0.5214 -0.5834
 7944TIP3   OH245322   4.960   0.390  17.055  0.2954 -0.2786 -0.4672
 7944TIP3    H145323   4.987   0.448  16.984  1.0841  0.3309  0.3231
 7944TIP3    H245324   5.042   0.366  17.099 -0.4158  1.5315  1.9231
 7945TIP3   OH245325   4.678   5.803  12.066 -0.0319 -0.8908  0.2656
 7945TIP3    H145326   4.683   5.715  12.029  1.3691 -0.9722  0.6142
 7945TIP3    H245327   4.735   5.800  12.143  1.9307  0.9520 -1.0407
 7946TIP3   OH245328   5.953   0.583  16.137 -0.0882 -0.4021  0.7733
 7946TIP3    H145329   5.937   0.671  16.170 -0.5337  0.3097 -1.2666
 7946TIP3    H245330   5.926   0.525  16.209 -0.4806  1.0964  1.8603
 7947TIP3   OH245331   5.423   0.565  11.307  0.8013 -0.0421  0.1266
 7947TIP3    H145332   5.352   0.513  11.344  1.4602  0.8250  2.6893
 7947TIP3    H245333   5.405   0.654  11.335  2.6262  0.2699  0.3864
 7948TIP3   OH245334   6.542   0.243  16.025  0.0794  0.2720  0.1318
 7948TIP3    H145335   6.447   0.237  16.015  0.1982  1.3294 -1.7475
 7948TIP3    H245336   6.568   0.318  15.971  2.3324 -1.8472 -1.8436
 7949TIP3   OH245337   5.620   2.616   2.712  0.4501 -0.3799  0.3482
 7949TIP3    H145338   5.631   2.609   2.618 -0.9340 -0.9847  0.2165
 7949TIP3    H245339   5.707   2.599   2.748  0.3186 -3.4923 -0.6658
 7950TIP3   OH245340   5.549   1.965   4.575  0.1431 -0.2119 -0.1221
 7950TIP3    H145341   5.505   2.003   4.498 -0.0887 -2.1444 -0.9628
 7950TIP3    H245342   5.635   1.938   4.542 -0.1468 -1.4972  0.1860
 7951TIP3   OH245343   6.022   0.186  14.361 -0.4646 -0.6984 -0.1837
 7951TIP3    H145344   5.996   0.268  14.318 -0.4935 -1.1814 -1.1070
 7951TIP3    H245345   6.025   0.207  14.454 -0.9971  0.2134 -0.3690
 7952TIP3   OH245346   5.723   3.367  10.968  0.5603 -0.3242 -0.5278
 7952TIP3    H145347   5.699   3.457  10.944 -0.0557  0.1087  1.5366
 7952TIP3    H245348   5.818   3.367  10.967  0.5559  0.1630 -1.2497
 7953TIP3   OH245349   6.004   1.063  14.686 -0.0729 -0.3179 -0.2060
 7953TIP3    H145350   5.930   1.063  14.746  1.1737 -0.3550  1.3840
 7953TIP3    H245351   6.060   1.135  14.716  1.1006 -1.0225 -0.6343
 7954TIP3   OH245352   1.553   4.247   0.819 -0.1784  0.3613  0.0865
 7954TIP3    H145353   1.593   4.261   0.733  1.9659 -3.4940  0.3619
 7954TIP3    H245354   1.459   4.241   0.801  0.2812 -0.8029 -2.0633
 7955TIP3   OH245355   4.916   0.113  11.292  0.6605  0.3088 -0.1295
 7955TIP3    H145356   4.914   0.173  11.366  1.4218 -0.7438  0.7537
 7955TIP3    H245357   4.922   0.026  11.331  1.7188 -0.2181 -1.4351
 7956TIP3   OH245358   0.821   3.551   3.411 -0.7964 -0.5507  0.1095
 7956TIP3    H145359   0.795   3.545   3.319  1.1829  0.1301 -0.5155
 7956TIP3    H245360   0.856   3.639   3.421 -3.1828  0.2457  2.1454
 7957TIP3   OH245361   2.421   6.256  13.367  0.2578  0.0394  0.3196
 7957TIP3    H145362   2.461   6.170  13.357  0.2995 -0.2104  2.3865
 7957TIP3    H245363   2.495   6.315  13.382  0.1905  0.3588 -0.5767
 7958TIP3   OH245364   4.278   3.985  16.317  0.1450  0.2948 -0.1202
 7958TIP3    H145365   4.338   4.035  16.261 -0.7359  1.5375  0.0334
 7958TIP3    H245366   4.287   4.027  16.403 -1.3981  0.8942 -0.2388
 7959TIP3   OH245367   4.903   3.426   4.245  0.3071  0.2037 -0.1719
 7959TIP3    H145368   4.985   3.433   4.196 -0.6946  2.9521 -1.5363
 7959TIP3    H245369   4.927   3.448   4.335  1.8802 -3.4692  0.4073
 7960TIP3   OH245370   2.771   4.006   6.254 -0.3152 -0.3073  0.2382
 7960TIP3    H145371   2.748   3.941   6.188  1.7131  0.7514 -1.5532
 7960TIP3    H245372   2.842   3.965   6.303  0.0095  0.0081  0.0239
 7961TIP3   OH245373   4.790   5.168   5.832 -0.1515 -0.0830  0.1139
 7961TIP3    H145374   4.767   5.215   5.912 -1.8821  0.0416 -0.4390
 7961TIP3    H245375   4.765   5.077   5.850 -0.7269 -0.0168 -0.3648
 7962TIP3   OH245376   1.681   3.152  13.798 -0.0379  0.0611 -0.1715
 7962TIP3    H145377   1.748   3.093  13.763  1.2458  1.1330  0.4430
 7962TIP3    H245378   1.658   3.113  13.883 -0.7455 -0.7132 -0.7085
 7963TIP3   OH245379   0.221   4.382   3.633 -0.1173  0.2199 -0.9058
 7963TIP3    H145380   0.194   4.421   3.549  0.1508 -2.8910 -2.5112
 7963TIP3    H245381   0.299   4.331   3.612  1.6931  1.7218  1.8855
 7964TIP3   OH245382   4.197   2.622   5.691 -0.0680  0.6440  1.0813
 7964TIP3    H145383   4.145   2.661   5.761 -1.3498  1.1867 -0.1706
 7964TIP3    H245384   4.236   2.696   5.645  0.2678  0.3086  0.8134
 7965TIP3   OH245385   1.381   0.738   4.328  0.0511 -0.0608  0.5353
 7965TIP3    H145386   1.311   0.673   4.338  0.1549 -0.2647 -0.0386
 7965TIP3    H245387   1.361   0.782   4.246  0.3294  0.2062  0.6117
 7966TIP3   OH245388   5.858   1.430  12.549  0.3223 -0.0074 -0.0962
 7966TIP3    H145389   5.909   1.510  12.534 -0.1012  0.5635  1.4262
 7966TIP3    H245390   5.923   1.365  12.574  0.5545  0.1389 -0.3151
 7967TIP3   OH245391   0.030   6.558  12.760  0.5139 -0.0956  0.0778
 7967TIP3    H145392  -0.024   6.496  12.712  1.6841 -0.7009 -0.4854
 7967TIP3    H245393   0.041   6.632  12.700  0.5246 -0.0788  0.1006
 7968TIP3   OH245394   0.172   5.413   0.810  0.3161 -0.0283 -0.1130
 7968TIP3    H145395   0.119   5.368   0.744  0.2624  1.0245 -0.8116
 7968TIP3    H245396   0.132   5.391   0.893 -0.9968  0.4655 -0.6085
 7969TIP3   OH245397   0.592   5.376  15.685 -0.6500 -0.4602 -0.3351
 7969TIP3    H145398   0.619   5.348  15.773 -0.5919  0.4297 -0.0681
 7969TIP3    H245399   0.608   5.470  15.683 -0.7961 -0.4468 -1.2518
 7970TIP3   OH245400   5.394   4.396   2.975  0.0629 -0.2355  0.4392
 7970TIP3    H145401   5.474   4.344   2.974  0.3275  0.1768  0.5286
 7970TIP3    H245402   5.417   4.478   2.933 -0.0715  0.2422  1.2846
 7971TIP3   OH245403   2.963   5.518  12.447 -0.2093 -0.6216  0.1453
 7971TIP3    H145404   2.879   5.534  12.404 -0.3327 -0.2448  0.5257
 7971TIP3    H245405   2.950   5.438  12.498 -0.1813 -0.8481 -0.1972
 7972TIP3   OH245406   3.748   0.752  13.450 -0.2396 -0.3430 -0.1568
 7972TIP3    H145407   3.731   0.716  13.537 -1.3892 -0.0763 -0.2562
 7972TIP3    H245408   3.800   0.685  13.406 -1.5415 -1.4802 -0.0121
 7973TIP3   OH245409   5.595   5.522  14.578 -0.2810  0.1585  0.1357
 7973TIP3    H145410   5.566   5.611  14.557 -1.0457 -0.0724  0.1982
 7973TIP3    H245411   5.578   5.472  14.498 -1.5175 -0.3206  0.6848
 7974TIP3   OH245412   3.110   6.743   4.021  0.2552  0.2374  0.3187
 7974TIP3    H145413   3.025   6.717   3.985  0.1061  2.1118 -0.7405
 7974TIP3    H245414   3.129   6.677   4.087 -1.6837 -0.6174  0.0572
 7975TIP3   OH245415   5.676   5.989   0.740  0.1170  0.1772 -0.1507
 7975TIP3    H145416   5.594   5.962   0.780  0.8553 -0.2755  1.0964
 7975TIP3    H245417   5.716   5.908   0.707 -0.5248  0.5525 -1.9321
 7976TIP3   OH245418   0.324   3.268  16.091 -0.6696  0.2372  1.1423
 7976TIP3    H145419   0.231   3.258  16.069 -0.6446 -0.7311  1.4546
 7976TIP3    H245420   0.361   3.181  16.078  0.3650  0.7821  0.2735
 7977TIP3   OH245421   6.542   5.754   5.958  0.0565  0.3964 -0.4344
 7977TIP3    H145422   6.554   5.659   5.956 -0.1679  0.3851 -1.3350
 7977TIP3    H245423   6.453   5.766   5.992 -0.0039  0.2835 -0.5543
 7978TIP3   OH245424   6.481   5.433  14.514  0.1586 -0.4723 -0.2029
 7978TIP3    H145425   6.392   5.399  14.505  0.0010  0.1954 -1.2855
 7978TIP3    H245426   6.530   5.360  14.553 -0.9623 -0.6633  0.8682
 7979TIP3   OH245427   1.312   2.963  16.116 -0.7397 -0.0559  0.1258
 7979TIP3    H145428   1.256   2.904  16.065 -0.5151 -0.4994  0.3948
 7979TIP3    H245429   1.378   2.906  16.155 -0.0741  0.4661 -0.2169
 7980TIP3   OH245430   6.143   4.815   4.568 -0.3860 -0.0287 -0.0155
 7980TIP3    H145431   6.189   4.881   4.516  0.5531 -0.6765 -0.0194
 7980TIP3    H245432   6.165   4.835   4.658  1.6573 -1.6184 -0.1330
 7981TIP3   OH245433   0.376   5.358  10.636  0.8673 -0.1559  0.1862
 7981TIP3    H145434   0.449   5.415  10.615 -0.5360  1.3635 -0.6796
 7981TIP3    H245435   0.415   5.287  10.688  2.7209  1.2602  0.7835
 7982TIP3   OH245436   6.149   0.692  11.385  0.4673 -0.0133  0.4105
 7982TIP3    H145437   6.138   0.615  11.442 -0.2400  0.2362  0.6168
 7982TIP3    H245438   6.212   0.664  11.319 -0.9799 -1.3132 -0.4716
 7983TIP3   OH245439   5.696   0.624   5.377 -0.2154  0.1924  0.3460
 7983TIP3    H145440   5.648   0.542   5.379 -0.4888  0.3604  0.6379
 7983TIP3    H245441   5.636   0.688   5.415 -0.3761  0.7158 -0.7648
 7984TIP3   OH245442   4.188   3.941   0.870  0.5768 -0.2253 -0.2759
 7984TIP3    H145443   4.214   4.033   0.869  1.1722 -0.2599  3.5102
 7984TIP3    H245444   4.254   3.898   0.924 -0.9340 -2.4494 -0.1423
 7985TIP3   OH245445   1.515   0.591  12.468 -0.0781 -0.2648 -0.4730
 7985TIP3    H145446   1.561   0.649  12.407  0.2507 -0.3118 -0.2702
 7985TIP3    H245447   1.468   0.529  12.412 -0.7226  0.4249 -0.6931
 7986TIP3   OH245448   6.334   3.473  13.543 -0.8110 -0.7599  0.2303
 7986TIP3    H145449   6.410   3.440  13.589 -0.6744  1.2869  1.5222
 7986TIP3    H245450   6.368   3.542  13.486 -1.5383 -0.5109  0.0888
 7987TIP3   OH245451   6.421   0.350  15.254 -0.1105 -0.2589  0.3708
 7987TIP3    H145452   6.516   0.347  15.244 -0.1062 -1.4058  0.7545
 7987TIP3    H245453   6.405   0.320  15.343 -1.0592 -3.6920 -0.8815
 7988TIP3   OH245454   5.902   5.520  13.356 -0.2144  0.3213 -0.0701
 7988TIP3    H145455   5.873   5.439  13.316 -0.9219  0.6412 -0.2156
 7988TIP3    H245456   5.975   5.495  13.413 -1.8601 -0.7479  1.5943
 7989TIP3   OH245457   1.947   5.294   1.531 -0.3470 -0.0259 -0.2231
 7989TIP3    H145458   2.017   5.351   1.500  0.0986 -0.8321 -0.7089
 7989TIP3    H245459   1.945   5.306   1.625  0.3980  0.0587 -0.2180
 7990TIP3   OH245460   0.284   5.031  10.889 -0.4977 -0.7608 -0.4464
 7990TIP3    H145461   0.296   4.942  10.857  1.6853 -0.4670 -0.4796
 7990TIP3    H245462   0.190   5.046  10.882 -1.0064 -3.3260  0.2501
 7991TIP3   OH245463   3.943   5.632   4.087 -0.4230  0.3168 -0.0908
 7991TIP3    H145464   4.037   5.624   4.069 -0.2238  0.0166  1.0222
 7991TIP3    H245465   3.905   5.661   4.004  0.3061 -1.9565 -1.2703
 7992TIP3   OH245466   0.092   0.319   3.605  0.5477 -0.0367 -0.1692
 7992TIP3    H145467   0.067   0.397   3.654  0.5303 -0.6750  0.8757
 7992TIP3    H245468   0.009   0.278   3.581  0.5409 -1.1888  1.7089
 7993TIP3   OH245469   3.481   3.876   4.308  0.6007  0.7429  0.3102
 7993TIP3    H145470   3.563   3.923   4.326  1.1678 -0.0549 -0.1570
 7993TIP3    H245471   3.509   3.786   4.293 -0.4329  0.3554  0.7043
 7994TIP3   OH245472   3.152   4.029   3.897 -0.0333  0.5112 -0.1628
 7994TIP3    H145473   3.136   3.935   3.907 -1.1960  0.5622 -1.5299
 7994TIP3    H245474   3.070   4.065   3.865  1.3003  1.5286 -2.5343
 7995TIP3   OH245475   6.345   0.357  16.513 -0.0699 -0.5067 -0.4540
 7995TIP3    H145476   6.374   0.314  16.594 -0.3636  1.4659  0.7170
 7995TIP3    H245477   6.251   0.372  16.526 -0.0770 -0.0121 -1.0764
 7996TIP3   OH245478   4.548   5.266   5.181  0.4292 -0.0528  0.4966
 7996TIP3    H145479   4.512   5.267   5.092  1.5227 -1.3054  0.0279
 7996TIP3    H245480   4.513   5.185   5.219 -0.2261  0.5986  1.3002
 7997TIP3   OH245481   6.140   4.163   0.094 -0.0070 -0.2107 -0.0100
 7997TIP3    H145482   6.072   4.188   0.156  0.9441 -1.0928  1.4123
 7997TIP3    H245483   6.113   4.077   0.061  0.3128 -0.4765  0.4149
 7998TIP3   OH245484   0.179   1.165  16.042  0.3444  0.4972 -0.1435
 7998TIP3    H145485   0.155   1.154  16.134  1.3100  0.9388  0.1698
 7998TIP3    H245486   0.266   1.127  16.035  0.5259  1.0007 -0.7397
 7999TIP3   OH245487   6.345   0.074   5.228  0.5029  0.1970 -0.1435
 7999TIP3    H145488   6.256   0.101   5.206  0.7831  0.3326 -1.1447
 7999TIP3    H245489   6.342   0.054   5.321 -0.4896  0.5509 -0.0945
 8000TIP3   OH245490   5.338   5.440   2.263  0.1230  0.3862  0.1123
 8000TIP3    H145491   5.432   5.456   2.256  1.0908 -2.6490  4.4614
 8000TIP3    H245492   5.321   5.368   2.201  0.2172  2.1750 -2.0572
 8001TIP3   OH245493   4.513   1.621   0.464  0.0996  0.1002  0.5824
 8001TIP3    H145494   4.509   1.546   0.405 -0.2258  1.0129 -0.5893
 8001TIP3    H245495   4.606   1.645   0.467 -0.0239  0.7352 -0.4570
 8002TIP3   OH245496   4.652   1.532   2.846 -0.4684  0.4703  0.1880
 8002TIP3    H145497   4.671   1.561   2.935 -1.4131 -1.1860  0.9499
 8002TIP3    H245498   4.694   1.447   2.838 -0.4880  0.5503 -0.9232
 8003TIP3   OH245499   1.765   4.695   3.634 -0.2030 -0.6013 -0.6907
 8003TIP3    H145500   1.809   4.624   3.681  2.0629  2.2340  1.6209
 8003TIP3    H245501   1.696   4.724   3.694 -1.5315 -1.1802 -1.8924
 8004TIP3   OH245502   1.574   4.295   2.794  0.3516 -0.1982  0.5755
 8004TIP3    H145503   1.520   4.355   2.743 -0.0556 -0.3308  0.8385
 8004TIP3    H245504   1.619   4.351   2.857 -0.0307 -0.1664  0.8233
 8005TIP3   OH245505   5.195   1.494  17.049  0.1524 -0.2300 -0.6974
 8005TIP3    H145506   5.286   1.512  17.073 -0.0461 -0.1844  0.0367
 8005TIP3    H245507   5.168   1.425  17.110 -0.1923 -0.5059 -1.1613
 8006TIP3   OH245508   1.041   4.328   3.739  0.6329  0.4274  0.2877
 8006TIP3    H145509   1.022   4.421   3.731  1.0808  0.3469 -1.9148
 8006TIP3    H245510   1.072   4.302   3.653 -2.5024 -2.4422 -0.0793
 8007TIP3   OH245511   5.423   4.355  16.602  0.0095 -0.0664  0.5575
 8007TIP3    H145512   5.460   4.281  16.553 -0.2740 -0.1523  0.4715
 8007TIP3    H245513   5.491   4.378  16.665  0.6565  0.4914 -0.3343
 8008TIP3   OH245514   3.961   5.915  15.591  0.3027  0.4139 -0.2815
 8008TIP3    H145515   3.875   5.874  15.579 -0.0730  1.1790 -0.2339
 8008TIP3    H245516   3.955   5.957  15.677  0.5373  0.9301 -0.5181
 8009TIP3   OH245517   2.780   2.113   3.190 -0.5697 -0.0760  0.1557
 8009TIP3    H145518   2.835   2.124   3.268  0.5593  1.1597 -0.7966
 8009TIP3    H245519   2.747   2.023   3.197  2.2702 -1.1637  0.3036
 8010TIP3   OH245520   4.528   3.147   1.386 -0.5595  0.4873  0.3488
 8010TIP3    H145521   4.519   3.093   1.464 -1.1484  0.0065 -0.0407
 8010TIP3    H245522   4.614   3.124   1.351 -0.1399  0.9790  1.0580
 8011TIP3   OH245523   4.673   4.074  12.675  0.1038 -0.4562 -0.2313
 8011TIP3    H145524   4.634   4.161  12.667  1.2916 -0.0893 -2.6030
 8011TIP3    H245525   4.599   4.014  12.682 -0.7605  0.6176 -0.1794
 8012TIP3   OH245526   1.557   6.491   5.353 -0.4013  0.2801  0.0557
 8012TIP3    H145527   1.628   6.451   5.404 -0.7584 -0.4097  0.0221
 8012TIP3    H245528   1.478   6.445   5.382 -0.4813 -0.8160 -1.8339
 8013TIP3   OH245529   3.705   6.016   1.823  0.3310  0.2011  0.3628
 8013TIP3    H145530   3.619   6.058   1.822  0.5703  0.7056  0.4891
 8013TIP3    H245531   3.755   6.067   1.888  0.6074 -0.3161  0.5547
 8014TIP3   OH245532   5.757   5.530   6.521  0.0258 -0.1412  0.2185
 8014TIP3    H145533   5.669   5.496   6.533  0.0535 -0.4989 -0.5155
 8014TIP3    H245534   5.804   5.459   6.476  0.6898  0.0313  0.6328
 8015TIP3   OH245535   1.142   6.471  16.478 -0.0756 -0.5560 -0.0436
 8015TIP3    H145536   1.149   6.421  16.559  2.0080 -0.2521 -0.0048
 8015TIP3    H245537   1.113   6.407  16.413 -1.4010 -0.8827  0.8423
 8016TIP3   OH245538   3.862   2.253  16.690 -0.5676 -0.3753  0.2126
 8016TIP3    H145539   3.866   2.256  16.595 -0.1603 -2.7846  0.1071
 8016TIP3    H245540   3.886   2.341  16.719  1.7169 -0.2595 -1.8601
 8017TIP3   OH245541   1.308   1.720   6.071 -0.0751  0.7899 -0.4773
 8017TIP3    H145542   1.348   1.748   6.153  0.5880  1.5826 -1.0633
 8017TIP3    H245543   1.380   1.686   6.019 -0.7683 -1.4236 -0.0442
 8018TIP3   OH245544   0.379   0.484  13.410  0.7898  0.3960  0.2856
 8018TIP3    H145545   0.316   0.412  13.404  1.5783 -0.4672  2.0981
 8018TIP3    H245546   0.342   0.544  13.475  0.2415  1.5457 -1.0605
 8019TIP3   OH245547   4.782   6.712   2.275 -0.3721 -0.0393  0.3213
 8019TIP3    H145548   4.782   6.767   2.354  1.0259 -2.0493  1.7815
 8019TIP3    H245549   4.871   6.677   2.271 -0.7198 -0.7116 -1.6374
 8020TIP3   OH245550   3.379   2.789  14.110 -0.0489 -0.0668  0.1209
 8020TIP3    H145551   3.461   2.762  14.152  1.1520 -0.8254 -2.6460
 8020TIP3    H245552   3.338   2.707  14.083 -0.5083  0.4425 -0.7216
 8021TIP3   OH245553   3.945   6.562  14.893  0.0251 -1.0702 -0.1104
 8021TIP3    H145554   4.024   6.563  14.840 -0.3770  1.7523 -0.7580
 8021TIP3    H245555   3.973   6.595  14.978 -0.4622  0.0686 -0.3853
 8022TIP3   OH245556   2.546   4.686   2.154  0.1244  0.4741  0.2603
 8022TIP3    H145557   2.588   4.752   2.098 -0.2493  0.1403 -0.4187
 8022TIP3    H245558   2.591   4.694   2.238  1.5005  0.1625 -0.4293
 8023TIP3   OH245559   1.946   6.564  11.406 -0.2982  0.1652  0.0043
 8023TIP3    H145560   1.887   6.541  11.334 -0.5448 -0.5849  0.4412
 8023TIP3    H245561   1.893   6.555  11.485  0.4052 -0.5881  0.4054
 8024TIP3   OH245562   2.171   1.436   2.704  0.2871  0.6540 -0.4224
 8024TIP3    H145563   2.187   1.488   2.783 -1.2461 -1.0684  1.0712
 8024TIP3    H245564   2.156   1.348   2.737  1.1920 -0.4140 -2.7896
 8025TIP3   OH245565   5.904   6.369   0.230  0.2075  0.4220 -0.1582
 8025TIP3    H145566   5.891   6.412   0.314 -0.2839 -0.8930  0.4587
 8025TIP3    H245567   5.905   6.275   0.251  0.2099  0.0876 -1.5935
 8026TIP3   OH245568   5.601   4.031   4.083  0.2219  0.1744 -0.6757
 8026TIP3    H145569   5.636   4.077   4.006 -1.0077  0.3860 -1.1288
 8026TIP3    H245570   5.507   4.021   4.064  0.3701 -2.1332 -0.3877
 8027TIP3   OH245571   4.591   0.400   5.109 -0.1560 -0.0874  0.6385
 8027TIP3    H145572   4.612   0.481   5.063  0.1489  1.0314  2.6929
 8027TIP3    H245573   4.498   0.385   5.090  0.4961 -0.8822 -2.1484
 8028TIP3   OH245574   6.520   4.429   6.399  0.3142 -0.2734 -0.0223
 8028TIP3    H145575   6.611   4.424   6.369  0.4018  0.2897  0.1405
 8028TIP3    H245576   6.527   4.439   6.494  0.0765 -0.3793  0.0078
 8029TIP3   OH245577   6.529   6.122   4.393 -0.1811 -0.5738  0.1248
 8029TIP3    H145578   6.550   6.169   4.312 -1.4757 -1.2278 -0.5916
 8029TIP3    H245579   6.443   6.154   4.418 -0.8878 -2.2545 -0.1305
 8030TIP3   OH245580   6.797   1.213   6.783 -0.0499  0.4604 -0.5777
 8030TIP3    H145581   6.725   1.180   6.836 -0.4600  1.2591 -0.6321
 8030TIP3    H245582   6.779   1.307   6.774  0.0560  0.3501 -2.0502
 8031TIP3   OH245583   4.111   2.474   5.474  0.1360 -0.3783 -0.0051
 8031TIP3    H145584   4.059   2.538   5.424 -0.5414 -1.4033 -0.6198
 8031TIP3    H245585   4.159   2.528   5.537  1.5339  1.0427 -2.1791
 8032TIP3   OH245586   1.641   6.810  15.673 -0.5330  0.4761 -0.1071
 8032TIP3    H145587   1.689   6.874  15.621 -1.7676  1.0014 -0.6103
 8032TIP3    H245588   1.549   6.833  15.661 -0.8238  1.1270  3.0002
 8033TIP3   OH245589   4.384   3.266  12.699 -0.1798  0.0752 -0.1814
 8033TIP3    H145590   4.424   3.219  12.772 -0.1959  1.1312  0.5137
 8033TIP3    H245591   4.318   3.206  12.665  0.4855 -0.8063  0.0577
 8034TIP3   OH245592   6.150   1.889   2.982  0.6757  0.7397 -0.8491
 8034TIP3    H145593   6.096   1.919   3.055 -0.8028 -0.6417 -1.3372
 8034TIP3    H245594   6.174   1.799   3.005  1.0460  0.6450 -1.5904
 8035TIP3   OH245595   5.274   1.115  16.877  0.4987  0.1656 -0.2714
 8035TIP3    H145596   5.328   1.192  16.899  0.3836  0.3074 -0.4852
 8035TIP3    H245597   5.221   1.099  16.955 -0.6104  1.2548 -0.7932
 8036TIP3   OH245598   0.700   3.924   3.122 -0.2917 -0.2218 -0.1490
 8036TIP3    H145599   0.631   3.951   3.062 -0.2866 -1.4584 -0.7340
 8036TIP3    H245600   0.653   3.903   3.204 -0.4210  0.4602 -0.0485
 8037TIP3   OH245601   3.769   1.889  15.523 -0.3046 -0.1819  0.0737
 8037TIP3    H145602   3.805   1.832  15.591 -1.5340 -0.3891  0.5656
 8037TIP3    H245603   3.678   1.861  15.514 -1.0600  1.9876  0.6408
 8038TIP3   OH245604   3.803   4.651   3.968  0.1220 -0.1717 -0.2151
 8038TIP3    H145605   3.894   4.631   3.992 -0.2305 -1.5043 -0.0061
 8038TIP3    H245606   3.798   4.629   3.875 -0.7898 -2.9267  0.4624
 8039TIP3   OH245607   2.043   2.787   4.829 -0.1437  0.3753 -0.1577
 8039TIP3    H145608   2.048   2.842   4.907 -2.5226 -1.7195  1.5510
 8039TIP3    H245609   2.102   2.714   4.848  2.0897  1.6510 -1.9194
 8040TIP3   OH245610   1.055   5.348   4.995  0.3015  0.4197 -0.5795
 8040TIP3    H145611   1.141   5.344   5.036 -0.3687  0.0945  0.7977
 8040TIP3    H245612   0.997   5.302   5.055 -1.1754  2.1156 -0.6643
 8041TIP3   OH245613   0.557   4.998   1.318 -0.1284  0.0456 -0.4693
 8041TIP3    H145614   0.587   5.081   1.281  0.5894  1.0413  2.2497
 8041TIP3    H245615   0.637   4.949   1.337 -0.4672 -0.2167  0.3059
 8042TIP3   OH245616   1.468   2.454   1.950 -0.9256 -0.2042 -0.0543
 8042TIP3    H145617   1.499   2.372   1.913  0.9784  0.1778  0.6354
 8042TIP3    H245618   1.410   2.428   2.021  0.0605 -0.9689  0.4833
 8043TIP3   OH245619   5.299   1.501   4.770  0.1821 -0.6767 -0.0046
 8043TIP3    H145620   5.259   1.417   4.791 -1.9039  0.6052  1.2872
 8043TIP3    H245621   5.294   1.506   4.674  0.3572 -2.0223 -0.0909
 8044TIP3   OH245622   1.656   2.311  14.565  0.3324  0.4234 -0.4281
 8044TIP3    H145623   1.614   2.391  14.533  0.5709 -0.4517 -3.0035
 8044TIP3    H245624   1.747   2.336  14.581  0.0765  1.0102  0.1426
 8045TIP3   OH245625   0.687   5.848  16.420 -0.2418 -0.2172 -0.5279
 8045TIP3    H145626   0.639   5.812  16.495 -0.5191  0.4763 -0.3695
 8045TIP3    H245627   0.620   5.895  16.369  0.5201  2.0921  0.5172
 8046TIP3   OH245628   5.084   1.662  15.571 -0.3261  0.6416  0.3627
 8046TIP3    H145629   5.057   1.668  15.480  1.7516 -1.2991 -0.4250
 8046TIP3    H245630   5.062   1.572  15.597  0.3022  0.7712  1.3699
 8047TIP3   OH245631   6.140   5.119  14.093  0.1799  0.7776  0.3699
 8047TIP3    H145632   6.163   5.210  14.106  0.1554  0.8201  0.1281
 8047TIP3    H245633   6.072   5.121  14.026  0.2508  0.5764  0.2906
 8048TIP3   OH245634   2.930   5.299   3.546  0.1377 -0.3261  0.1084
 8048TIP3    H145635   2.846   5.304   3.501  1.1194  2.4378 -1.5296
 8048TIP3    H245636   2.915   5.342   3.630 -0.1885 -0.1917 -0.0178
 8049TIP3   OH245637   4.685   1.838  14.313  0.2093 -0.2151  0.2037
 8049TIP3    H145638   4.649   1.864  14.398 -1.5473 -0.4930 -0.4428
 8049TIP3    H245639   4.629   1.766  14.284  1.3468 -0.7218 -0.7940
 8050TIP3   OH245640   2.709   4.754   5.053  0.1188 -0.3008  0.4812
 8050TIP3    H145641   2.673   4.667   5.066 -0.6844  0.2740  2.1947
 8050TIP3    H245642   2.796   4.751   5.093  0.3788 -0.5339 -0.1072
 8051TIP3   OH245643   4.231   6.770   0.480  0.7492 -0.1416  0.2003
 8051TIP3    H145644   4.295   6.774   0.410 -0.3803  0.9791 -0.7958
 8051TIP3    H245645   4.192   6.857   0.483 -1.5933 -1.1339 -0.0533
 8052TIP3   OH245646   5.615   6.257   0.672 -0.1874 -0.5854  0.5212
 8052TIP3    H145647   5.655   6.170   0.679 -0.8652 -0.7107  4.1542
 8052TIP3    H245648   5.525   6.244   0.700 -0.8317  0.9685 -0.7912
 8053TIP3   OH245649   4.350   0.209  13.835  0.0573 -0.0929  0.2160
 8053TIP3    H145650   4.330   0.193  13.743  2.4549 -0.6681 -0.2553
 8053TIP3    H245651   4.365   0.303  13.840  1.0834 -0.2241 -0.2453
 8054TIP3   OH245652   0.777   0.769   0.576  0.5351 -0.4280  0.0082
 8054TIP3    H145653   0.700   0.825   0.564  0.6865 -0.2467 -0.1216
 8054TIP3    H245654   0.777   0.713   0.499  2.1530  1.5059 -1.4426
 8055TIP3   OH245655   3.606   4.453   6.026  0.8926  0.3088 -0.2473
 8055TIP3    H145656   3.519   4.448   6.064  1.1069  0.1106  0.2261
 8055TIP3    H245657   3.631   4.361   6.013  0.3760  0.3886 -1.8998
 8056TIP3   OH245658   3.127   6.378  14.974  0.2576 -0.6193 -0.6195
 8056TIP3    H145659   3.203   6.360  14.919  1.5188 -1.0236  1.2103
 8056TIP3    H245660   3.148   6.459  15.020 -0.1262 -1.0798  0.3897
 8057TIP3   OH245661   0.662   0.409  16.878  0.4836  0.3641  0.5298
 8057TIP3    H145662   0.745   0.433  16.838  0.2184 -1.4719 -1.2080
 8057TIP3    H245663   0.681   0.329  16.927 -0.0337  0.4779  0.9185
 8058TIP3   OH245664   1.499   6.226   5.162  0.0967 -0.2830 -0.1207
 8058TIP3    H145665   1.513   6.321   5.163 -1.0212 -0.1301  1.7537
 8058TIP3    H245666   1.517   6.200   5.071 -2.6279  2.1699 -1.4320
 8059TIP3   OH245667   2.705   0.107  13.135 -0.4072  0.4353  0.3296
 8059TIP3    H145668   2.743   0.058  13.061  1.0105  0.8926  0.7483
 8059TIP3    H245669   2.614   0.122  13.109  0.3060  1.3531 -1.7221
 8060TIP3   OH245670   0.138   3.120   2.767  0.4563  0.1504  0.4621
 8060TIP3    H145671   0.223   3.082   2.746  0.8628  0.3518  1.7353
 8060TIP3    H245672   0.081   3.045   2.783  0.0080 -0.0219 -1.8313
 8061TIP3   OH245673   0.251   0.141   4.156  0.4033  0.3592 -0.3897
 8061TIP3    H145674   0.315   0.092   4.105 -0.8740  0.5746 -2.2667
 8061TIP3    H245675   0.274   0.233   4.143 -0.2975  0.4403 -1.1093
 8062TIP3   OH245676   6.539   4.907   2.285  0.1673 -0.2217  0.3044
 8062TIP3    H145677   6.565   4.893   2.376  0.3301 -0.1880  0.2640
 8062TIP3    H245678   6.544   4.820   2.245 -1.3698 -0.5103  0.6947
 8063TIP3   OH245679   2.948   5.705   1.061  0.2011 -0.4304 -0.4252
 8063TIP3    H145680   2.855   5.725   1.070  0.1489 -0.7955 -0.1295
 8063TIP3    H245681   2.954   5.612   1.082  0.8194 -0.1068  0.9145
 8064TIP3   OH245682   6.150   3.330  14.452  0.0701  0.1108  0.1519
 8064TIP3    H145683   6.092   3.392  14.496  0.5026  0.8150 -0.2524
 8064TIP3    H245684   6.238   3.358  14.477  0.3246  0.5738 -1.2264
 8065TIP3   OH245685   6.668   1.030  12.296  0.2320 -0.2894 -0.2078
 8065TIP3    H145686   6.715   1.095  12.347  0.8416 -0.3471 -0.6899
 8065TIP3    H245687   6.670   1.063  12.206  1.3845 -1.4433 -0.6216
 8066TIP3   OH245688   6.022   3.973   3.954  0.7963  0.4495  0.1223
 8066TIP3    H145689   6.085   3.982   3.883  0.4948  0.5080 -0.1417
 8066TIP3    H245690   6.061   3.907   4.012  1.2147  0.6720  0.0940
 8067TIP3   OH245691   2.259   1.823   6.461 -0.0029 -0.3116  0.0616
 8067TIP3    H145692   2.190   1.870   6.509 -1.7775 -1.1618 -1.6198
 8067TIP3    H245693   2.260   1.735   6.500  0.5714 -0.1312  0.4775
 8068TIP3   OH245694   4.272   1.770  11.992 -0.2054  0.0166  0.3405
 8068TIP3    H145695   4.244   1.751  12.082  1.1720  0.9119  0.9853
 8068TIP3    H245696   4.304   1.686  11.959 -0.6067 -0.2929  0.7322
 8069TIP3   OH245697   4.589   2.708  14.023 -0.2393 -0.1500 -0.0628
 8069TIP3    H145698   4.682   2.712  13.999 -0.0162  0.8954  0.9427
 8069TIP3    H245699   4.547   2.776  13.970 -0.1066  0.6717  0.8687
 8070TIP3   OH245700   0.258   5.963   6.622  0.2853  0.1253  0.4118
 8070TIP3    H145701   0.232   5.877   6.587  1.7621 -0.0600 -0.2951
 8070TIP3    H245702   0.182   6.019   6.607  0.9240  0.1190 -3.4427
 8071TIP3   OH245703   2.447   6.276  16.278  0.2646  0.0865 -0.0056
 8071TIP3    H145704   2.513   6.223  16.323 -0.9373 -1.0287  0.4470
 8071TIP3    H245705   2.473   6.367  16.295  2.1724 -0.3377 -0.5515
 8072TIP3   OH245706   1.063   2.473   1.659 -0.0233  0.2851 -0.0207
 8072TIP3    H145707   1.056   2.416   1.583  1.8626  0.2957 -0.2293
 8072TIP3    H245708   1.152   2.509   1.654  0.3182 -0.1121  2.4745
 8073TIP3   OH245709   5.992   6.143  15.691 -0.4371 -0.8106  0.1866
 8073TIP3    H145710   5.962   6.068  15.640  1.2862 -1.8568  0.6686
 8073TIP3    H245711   5.929   6.150  15.763 -0.4340 -2.0045  0.3074
 8074TIP3   OH245712   5.476   2.306  14.221 -0.1800 -0.7608 -0.7043
 8074TIP3    H145713   5.435   2.249  14.286 -0.0416  2.4031  2.3611
 8074TIP3    H245714   5.563   2.325  14.257 -0.5342  1.9811 -1.1266
 8075TIP3   OH245715   0.639   5.685  15.665 -0.2649  0.2111 -0.0106
 8075TIP3    H145716   0.666   5.680  15.573  1.9514  1.5797  0.5259
 8075TIP3    H245717   0.548   5.712  15.661 -0.4731 -0.6226 -1.8244
 8076TIP3   OH245718   4.810   1.430   5.673  0.3973 -0.1454  0.2823
 8076TIP3    H145719   4.720   1.462   5.679 -0.0460 -0.5440 -3.1979
 8076TIP3    H245720   4.864   1.509   5.681 -0.3954  0.4648 -0.2714
 8077TIP3   OH245721   0.635   1.436  11.739  0.1689  0.3507 -0.2163
 8077TIP3    H145722   0.710   1.422  11.681 -0.1980 -1.3723 -0.2786
 8077TIP3    H245723   0.659   1.514  11.789  1.8239  0.0763 -0.5357
 8078TIP3   OH245724   4.811   4.886   5.014 -0.1036 -0.1223 -0.6978
 8078TIP3    H145725   4.734   4.931   4.979 -0.2181 -0.2345 -0.5878
 8078TIP3    H245726   4.776   4.807   5.055 -0.1953  0.9504  1.3669
 8079TIP3   OH245727   3.052   4.764   0.252 -0.3199 -0.2519 -0.5034
 8079TIP3    H145728   2.998   4.685   0.250  0.8851 -1.0891 -0.3036
 8079TIP3    H245729   3.019   4.813   0.327  2.1711 -2.9205  2.4622
 8080TIP3   OH245730   4.056   2.490   3.660 -0.2490 -0.5104 -0.1102
 8080TIP3    H145731   4.020   2.557   3.601 -0.1535 -1.3953 -1.1902
 8080TIP3    H245732   3.996   2.489   3.734 -0.2014  0.8496 -0.0324
 8081TIP3   OH245733   5.373   6.633   6.478  0.6856  0.1002 -0.1026
 8081TIP3    H145734   5.318   6.554   6.475 -0.2461  0.7920 -2.0805
 8081TIP3    H245735   5.453   6.605   6.522  0.3267 -1.9216 -0.6800
 8082TIP3   OH245736   0.710   3.402  10.940  0.0971 -0.7927 -0.7878
 8082TIP3    H145737   0.686   3.462  11.010 -1.0405 -0.9858 -1.0125
 8082TIP3    H245738   0.792   3.362  10.970  0.0357 -0.2874  0.0626
 8083TIP3   OH245739   6.694   1.602  13.158 -0.3483  0.4782 -0.2228
 8083TIP3    H145740   6.739   1.647  13.229 -0.9383  1.1857 -0.2881
 8083TIP3    H245741   6.657   1.524  13.198  0.2775  0.2895 -0.0046
 8084TIP3   OH245742   4.841   6.387   5.190  0.1588 -0.2072 -0.0517
 8084TIP3    H145743   4.829   6.444   5.114 -0.8276 -1.2046 -0.6648
 8084TIP3    H245744   4.809   6.301   5.161  0.1141 -0.6888  1.3738
 8085TIP3   OH245745   0.387   0.705  13.089  0.0403 -0.8160 -0.1371
 8085TIP3    H145746   0.313   0.651  13.063 -0.3362  0.0115 -0.8340
 8085TIP3    H245747   0.464   0.662  13.051 -0.4351  0.0387 -2.1386
 8086TIP3   OH245748   5.868   6.743  12.490 -0.2672  0.1221  0.4753
 8086TIP3    H145749   5.917   6.795  12.427  0.1224  0.8512  1.3676
 8086TIP3    H245750   5.912   6.658  12.489 -1.2307 -0.3868 -1.3617
 8087TIP3   OH245751   3.368   5.029  13.955 -0.1976 -0.5968  0.3295
 8087TIP3    H145752   3.453   5.009  13.917  0.3203 -1.1182  1.7080
 8087TIP3    H245753   3.304   5.003  13.888  0.7147 -0.4368 -0.6046
 8088TIP3   OH245754   0.561   4.131  11.780  0.4546  0.1382 -0.2153
 8088TIP3    H145755   0.540   4.037  11.778 -0.3269  0.2954  0.4131
 8088TIP3    H245756   0.566   4.152  11.873 -3.3067  1.5832 -0.2539
 8089TIP3   OH245757   1.012   4.379  12.414  0.0254 -0.1588  0.5279
 8089TIP3    H145758   1.076   4.354  12.348  0.2920 -0.3914  0.8760
 8089TIP3    H245759   0.955   4.443  12.369 -0.4185 -1.0777 -0.2335
 8090TIP3   OH245760   4.411   4.903   0.245  0.4402  0.0984  0.2343
 8090TIP3    H145761   4.373   4.854   0.171  0.1115 -1.0014  1.1191
 8090TIP3    H245762   4.504   4.912   0.221  0.7422 -1.9040  0.5283
 8091TIP3   OH245763   3.924   0.841   1.200 -0.6873  0.3902 -0.4447
 8091TIP3    H145764   4.002   0.886   1.169 -0.8739  1.9513  1.2445
 8091TIP3    H245765   3.858   0.910   1.209 -1.3392 -0.3892  1.0671
 8092TIP3   OH245766   6.145   1.791  11.943  0.0682  0.2352  0.3385
 8092TIP3    H145767   6.100   1.864  11.985 -1.3983 -0.2783 -0.2977
 8092TIP3    H245768   6.225   1.830  11.907  0.1862  1.1464  1.5685
 8093TIP3   OH245769   1.974   2.100   2.743 -0.0096 -0.0922  0.3030
 8093TIP3    H145770   1.965   2.127   2.652 -1.1023 -0.7234  0.2206
 8093TIP3    H245771   2.054   2.143   2.773  0.3238  0.1555 -0.9365
 8094TIP3   OH245772   3.620   2.748  11.480  0.1940  0.5744  0.9011
 8094TIP3    H145773   3.630   2.840  11.456  0.3840  0.2951 -0.1068
 8094TIP3    H245774   3.528   2.739  11.505 -0.2031  0.7004 -0.4822
 8095TIP3   OH245775   2.395   1.474   2.103  0.7816  0.2485 -0.1405
 8095TIP3    H145776   2.426   1.398   2.053 -1.4367 -0.8493  0.0733
 8095TIP3    H245777   2.449   1.546   2.073  1.6180 -1.0339 -1.8027
 8096TIP3   OH245778   3.635   1.174  14.332  0.3578  0.9850  0.2167
 8096TIP3    H145779   3.724   1.138  14.327  0.0922  0.4871 -1.3223
 8096TIP3    H245780   3.606   1.178  14.241 -2.1850 -1.3301  0.8764
 8097TIP3   OH245781   0.147   6.680   5.681 -0.0206 -0.3130  0.3336
 8097TIP3    H145782   0.100   6.609   5.724  1.6163 -0.0314  2.6671
 8097TIP3    H245783   0.215   6.706   5.743  0.7580  1.8845 -1.3436
 8098TIP3   OH245784   6.135   4.269   1.505  0.6294  0.2872 -0.0112
 8098TIP3    H145785   6.124   4.293   1.597  1.2331  0.8989 -0.0978
 8098TIP3    H245786   6.113   4.349   1.457  0.0873 -0.0948 -0.4169
 8099TIP3   OH245787   6.323   1.982   1.345  0.5667  0.2720 -0.0898
 8099TIP3    H145788   6.364   1.978   1.431 -2.6583 -0.3857  1.4703
 8099TIP3    H245789   6.327   1.892   1.312 -0.3368  0.0398  0.4220
 8100TIP3   OH245790   3.345   1.557  14.478 -0.2524  0.3773  0.3937
 8100TIP3    H145791   3.409   1.493  14.510 -2.3062 -3.0049 -1.9509
 8100TIP3    H245792   3.362   1.562  14.384 -2.3214  0.6677  0.0189
 8101TIP3   OH245793   2.713   2.389  16.847  0.3440 -0.0785 -0.1004
 8101TIP3    H145794   2.722   2.332  16.923  1.7266  0.2771  0.0138
 8101TIP3    H245795   2.802   2.423  16.832  0.2379 -0.7543 -2.3413
 8102TIP3   OH245796   6.131   1.282  15.988  0.5235  0.6083 -0.1668
 8102TIP3    H145797   6.210   1.333  15.973  0.3975  0.5972 -0.9360
 8102TIP3    H245798   6.136   1.211  15.924  0.1815  0.2685  0.1751
 8103TIP3   OH245799   0.880   0.529  12.451  0.0873 -0.1062  0.3526
 8103TIP3    H145800   0.937   0.606  12.460  1.0968 -0.5892 -1.5882
 8103TIP3    H245801   0.813   0.557  12.387 -0.4313 -0.3580  0.7804
 8104TIP3   OH245802   0.395   0.602   3.546  0.0070  0.9111 -0.1653
 8104TIP3    H145803   0.485   0.583   3.521 -0.4915 -2.0118 -0.0091
 8104TIP3    H245804   0.355   0.639   3.467  0.2337 -1.9174 -1.6983
 8105TIP3   OH245805   2.748   5.337  17.292 -0.0973  0.0599  0.8132
 8105TIP3    H145806   2.737   5.384  17.374  1.0627  0.6093  0.6568
 8105TIP3    H245807   2.838   5.355  17.265 -0.5347  0.0810 -0.6920
 8106TIP3   OH245808   3.317   3.321   0.937 -0.1792  0.0068 -0.3213
 8106TIP3    H145809   3.253   3.250   0.940  0.1069 -0.2282  0.5870
 8106TIP3    H245810   3.402   3.276   0.942 -0.0343  0.5027  2.2770
 8107TIP3   OH245811   3.961   2.336   5.850 -0.7993  0.3506  0.5444
 8107TIP3    H145812   3.962   2.321   5.944 -0.9275 -0.0441  0.4818
 8107TIP3    H245813   4.051   2.362   5.829 -0.8392  0.7046  0.8180
 8108TIP3   OH245814   0.080   1.244   6.097  0.3395  0.7636 -0.1356
 8108TIP3    H145815   0.071   1.314   6.161  1.5145  0.9675 -0.1894
 8108TIP3    H245816   0.004   1.254   6.040  0.4683  1.9694 -0.1145
 8109TIP3   OH245817   1.402   5.980  12.035  0.2433  0.1521 -0.9314
 8109TIP3    H145818   1.378   6.072  12.046 -2.1620 -0.7143  1.7567
 8109TIP3    H245819   1.328   5.941  11.990  0.8183 -0.6702 -1.1701
 8110TIP3   OH245820   6.589   1.754   3.288  0.5579 -0.5629  0.6446
 8110TIP3    H145821   6.624   1.813   3.221  0.7679 -2.5579 -1.0530
 8110TIP3    H245822   6.662   1.695   3.307  0.4585 -0.1067  2.5883
 8111TIP3   OH245823   4.859   4.955  15.197  0.7992 -0.5150  0.0183
 8111TIP3    H145824   4.801   4.963  15.121  3.5802  0.1060 -2.1536
 8111TIP3    H245825   4.874   5.045  15.225  0.4373 -0.6966  0.8205
 8112TIP3   OH245826   2.796   5.582  14.921  0.0957  0.0747  0.4053
 8112TIP3    H145827   2.863   5.569  14.854  1.1580 -0.6383  1.5821
 8112TIP3    H245828   2.749   5.661  14.893  1.2393  0.4157 -0.6000
 8113TIP3   OH245829   2.904   5.403   0.459 -0.1541  0.1726 -0.0319
 8113TIP3    H145830   2.865   5.490   0.446  2.0558  1.2162  0.1105
 8113TIP3    H245831   2.872   5.352   0.385 -0.3084  1.5325 -0.9268
 8114TIP3   OH245832   3.454   4.867   0.245  0.6376 -0.4376 -0.0327
 8114TIP3    H145833   3.394   4.881   0.318 -0.3827 -0.4100 -0.8665
 8114TIP3    H245834   3.444   4.945   0.190  1.0333 -0.6822 -0.4565
 8115TIP3   OH245835   2.291   6.710   5.789  0.2142 -0.7405 -1.1410
 8115TIP3    H145836   2.281   6.803   5.770  2.6394 -0.3979 -0.9374
 8115TIP3    H245837   2.318   6.707   5.881  1.8461 -1.5098 -1.6209
 8116TIP3   OH245838   6.513   0.492  14.499  0.3854 -0.5558  0.3879
 8116TIP3    H145839   6.483   0.463  14.585 -0.3344  0.2520  0.4084
 8116TIP3    H245840   6.574   0.563  14.518 -1.2347  0.9200  0.1660
 8117TIP3   OH245841   5.192   4.042   5.138 -0.3361  0.3901  0.5237
 8117TIP3    H145842   5.285   4.032   5.159 -0.1951 -0.3514 -0.4018
 8117TIP3    H245843   5.149   3.970   5.185 -0.2497 -0.1608 -0.2290
 8118TIP3   OH245844   4.293   5.451  13.165 -0.1387  0.4044  0.1274
 8118TIP3    H145845   4.381   5.416  13.151 -0.0615  0.3018  0.8108
 8118TIP3    H245846   4.278   5.439  13.259 -1.5523 -1.1495 -0.2733
 8119TIP3   OH245847   4.334   2.058   2.775  0.3512 -0.3991 -0.3555
 8119TIP3    H145848   4.314   2.134   2.829  1.8089  0.6685 -1.2475
 8119TIP3    H245849   4.420   2.029   2.806  0.5879 -0.5937 -1.1657
 8120TIP3   OH245850   6.686   5.576  13.280  0.0307  0.0333 -0.3555
 8120TIP3    H145851   6.631   5.504  13.249 -0.4466  0.3612 -0.2852
 8120TIP3    H245852   6.657   5.591  13.370  1.0538 -0.5732  0.0832
 8121TIP3   OH245853   1.290   4.171   2.496  0.0564 -0.3922  0.2879
 8121TIP3    H145854   1.292   4.076   2.504  1.0344 -0.5886 -1.9418
 8121TIP3    H245855   1.214   4.198   2.548 -0.2108 -2.3735  0.9590
 8122TIP3   OH245856   6.388   6.559   5.660  0.4202  0.1586 -0.4573
 8122TIP3    H145857   6.343   6.617   5.598  0.9231 -0.1351 -1.1052
 8122TIP3    H245858   6.327   6.487   5.674  0.6296 -0.1814 -1.2465
 8123TIP3   OH245859   6.524   2.327   0.142  0.2931 -0.5819 -0.0027
 8123TIP3    H145860   6.509   2.325   0.237  0.0007 -0.7899 -0.0560
 8123TIP3    H245861   6.452   2.277   0.105 -0.5384  0.9430 -0.4645
 8124TIP3   OH245862   6.289   0.403  13.351 -0.1648 -0.1129 -0.0251
 8124TIP3    H145863   6.294   0.349  13.430 -0.0170 -0.7844 -0.4884
 8124TIP3    H245864   6.345   0.478  13.370  0.4144 -0.6086  0.2582
 8125TIP3   OH245865   0.802   1.357   4.076 -0.8895 -0.8951  0.2026
 8125TIP3    H145866   0.889   1.318   4.072 -0.2409  0.6456 -1.0749
 8125TIP3    H245867   0.797   1.397   4.163 -1.8247 -4.3289  1.8088
 8126TIP3   OH245868   3.764   1.719  10.656  0.1084 -0.2572  0.8048
 8126TIP3    H145869   3.816   1.797  10.674 -0.0007 -0.0703  0.3124
 8126TIP3    H245870   3.827   1.654  10.625  0.0638 -0.0496  0.2658
 8127TIP3   OH245871   5.353   4.854  15.368 -0.6672 -0.4789  0.3821
 8127TIP3    H145872   5.364   4.913  15.443  0.1303  3.2991 -2.5354
 8127TIP3    H245873   5.261   4.862  15.344 -0.1150  1.2560 -1.2676
 8128TIP3   OH245874   5.217   0.915   3.170 -0.4915 -0.3595 -0.5917
 8128TIP3    H145875   5.208   0.884   3.260 -0.9225 -0.4083 -0.6497
 8128TIP3    H245876   5.132   0.952   3.149 -0.1457  0.3696 -0.7135
 8129TIP3   OH245877   4.703   1.774  14.978  0.6191  0.1652  0.5098
 8129TIP3    H145878   4.783   1.807  14.936  0.8394 -0.5231  0.3731
 8129TIP3    H245879   4.632   1.808  14.925  0.8675 -0.0459  0.0379
 8130TIP3   OH245880   0.864   6.274  11.778 -0.0194  0.2199  0.1454
 8130TIP3    H145881   0.916   6.354  11.772  0.6426 -0.1849  0.4489
 8130TIP3    H245882   0.813   6.284  11.859 -0.8663  0.8784 -0.4585
 8131TIP3   OH245883   5.532   4.348   0.095  0.4814  0.1663  0.0793
 8131TIP3    H145884   5.528   4.332   0.189  1.0734  0.2876  0.1250
 8131TIP3    H245885   5.441   4.365   0.070  0.3587  0.4048  0.6800
 8132TIP3   OH245886   5.205   5.788   4.202 -0.4410  0.3965 -0.4351
 8132TIP3    H145887   5.296   5.814   4.214 -0.5887  0.9130 -0.4010
 8132TIP3    H245888   5.183   5.739   4.281  0.4324 -1.5483 -1.3867
 8133TIP3   OH245889   3.477   6.659  15.765  0.2826  0.3363 -0.7492
 8133TIP3    H145890   3.432   6.661  15.680 -1.5452 -0.5868  0.1697
 8133TIP3    H245891   3.413   6.621  15.825  2.0512 -0.3231  0.7641
 8134TIP3   OH245892   5.946   3.245   5.083 -0.0206 -0.3108 -0.6657
 8134TIP3    H145893   5.987   3.240   5.169 -0.5807 -0.6003 -0.4164
 8134TIP3    H245894   5.987   3.321   5.041  1.3795 -1.0895 -0.7358
 8135TIP3   OH245895   5.886   0.703   1.710  0.0776 -0.6202  0.3065
 8135TIP3    H145896   5.810   0.713   1.767 -0.2225  2.0580 -0.4707
 8135TIP3    H245897   5.953   0.760   1.749  0.7476 -0.8191 -0.5260
 8136TIP3   OH245898   4.290   6.121   4.527 -0.3488 -0.4209  0.7781
 8136TIP3    H145899   4.228   6.154   4.462 -1.1581  0.2513  1.8667
 8136TIP3    H245900   4.323   6.200   4.570 -0.1768 -0.8862  1.4971
 8137TIP3   OH245901   4.205   0.667  12.198  0.2542 -0.2821 -0.5168
 8137TIP3    H145902   4.220   0.593  12.258 -1.3282 -0.7154 -0.6191
 8137TIP3    H245903   4.210   0.628  12.111  2.3965  0.3201 -0.6739
 8138TIP3   OH245904   5.165   0.561  10.635 -0.5017  0.0272  1.0017
 8138TIP3    H145905   5.075   0.550  10.664 -0.2765 -0.9385  1.3356
 8138TIP3    H245906   5.177   0.495  10.567 -0.3636  0.8509  0.2154
 8139TIP3   OH245907   1.124   6.292  12.611 -0.0608 -0.2678  0.3055
 8139TIP3    H145908   1.218   6.312  12.613 -0.4249  1.4799  1.1143
 8139TIP3    H245909   1.084   6.369  12.569 -1.2412 -0.4618  1.0571
 8140TIP3   OH245910   6.370   6.712   6.385  0.1442  0.0362 -0.9487
 8140TIP3    H145911   6.280   6.729   6.356  0.1964  0.1675 -1.0354
 8140TIP3    H245912   6.370   6.620   6.411  0.2750 -0.2689 -2.0070
 8141TIP3   OH245913   5.958   2.991  15.385  0.3948  0.0865 -0.1969
 8141TIP3    H145914   5.950   2.929  15.458 -1.7088  1.3548  0.7090
 8141TIP3    H245915   6.051   3.010  15.380  0.7089 -0.8949  1.4436
 8142TIP3   OH245916   5.462   5.334  16.607 -0.0168  0.0033 -0.0011
 8142TIP3    H145917   5.471   5.294  16.520  0.2694  0.6424 -0.2664
 8142TIP3    H245918   5.381   5.384  16.602  0.7320  1.2139 -0.3773
 8143TIP3   OH245919   3.094   3.987  11.733  0.4974  0.0294  0.3537
 8143TIP3    H145920   3.100   4.072  11.689 -1.7469 -0.1677 -0.3644
 8143TIP3    H245921   3.039   4.004  11.810 -0.3895 -0.8795 -0.0732
 8144TIP3   OH245922   0.458   1.673  12.601  0.0164 -0.0551 -0.0954
 8144TIP3    H145923   0.494   1.760  12.617 -0.1594 -0.2224  1.2470
 8144TIP3    H245924   0.398   1.685  12.527  2.4528  0.3159 -2.0848
 8145TIP3   OH245925   3.841   3.518  17.039  0.3735  0.5023  0.1475
 8145TIP3    H145926   3.823   3.458  16.966 -4.2827  1.0543  0.6991
 8145TIP3    H245927   3.851   3.604  16.998  2.0093  0.1850 -0.1682
 8146TIP3   OH245928   6.592   6.131  14.916  0.1793 -0.3323 -0.1794
 8146TIP3    H145929   6.539   6.209  14.934  1.5238  0.6269 -0.2719
 8146TIP3    H245930   6.612   6.096  15.003 -0.5336 -0.6553 -0.1410
 8147TIP3   OH245931   5.815   2.868  13.437  0.3967  0.0995  0.3855
 8147TIP3    H145932   5.854   2.861  13.525  0.6605 -2.6060  0.0797
 8147TIP3    H245933   5.886   2.845  13.377 -0.5248 -0.7862 -0.3865
 8148TIP3   OH245934   1.237   3.737   2.023 -0.2299 -0.0420 -0.1480
 8148TIP3    H145935   1.308   3.784   2.066  0.6113 -1.1851 -0.2490
 8148TIP3    H245936   1.227   3.656   2.074 -0.0023 -0.8754 -1.3917
 8149TIP3   OH245937   1.123   2.969   0.905 -0.4863  0.2098  0.5725
 8149TIP3    H145938   1.078   3.045   0.868 -2.2327  0.1215  2.4373
 8149TIP3    H245939   1.054   2.917   0.944  0.9682 -1.1777  1.3499
 8150TIP3   OH245940   1.095   1.793   1.342  0.2241 -0.4732  0.1527
 8150TIP3    H145941   1.019   1.842   1.372 -0.0519 -0.7286 -0.1265
 8150TIP3    H245942   1.060   1.728   1.282  0.7962  0.1049 -0.8169
 8151TIP3   OH245943   2.888   2.721  11.989 -0.4114 -0.1666 -0.0258
 8151TIP3    H145944   2.901   2.810  12.021 -1.7908  0.6692 -1.7260
 8151TIP3    H245945   2.966   2.673  12.017  0.9722  1.9089 -0.2964
 8152TIP3   OH245946   4.134   6.659  12.186  0.2339 -0.3281 -1.0458
 8152TIP3    H145947   4.199   6.723  12.213 -1.3932  0.8573  0.1715
 8152TIP3    H245948   4.144   6.587  12.248  0.5096 -0.2373 -0.9817
 8153TIP3   OH245949   0.672   6.012  10.987 -0.2552 -0.1077 -0.0964
 8153TIP3    H145950   0.595   6.037  11.037  0.6808 -0.8571  1.7563
 8153TIP3    H245951   0.737   6.079  11.007  0.3495 -0.7892  0.2458
 8154TIP3   OH245952   4.159   1.310   3.724 -0.2676  0.3451 -0.1174
 8154TIP3    H145953   4.252   1.333   3.722 -0.1586 -0.1662 -0.9748
 8154TIP3    H245954   4.141   1.291   3.816  0.7037 -0.4539 -0.0816
 8155TIP3   OH245955   1.951   3.159   2.180  0.2286  0.5900  0.3958
 8155TIP3    H145956   1.909   3.193   2.101  0.4160  0.2543  0.1534
 8155TIP3    H245957   2.043   3.184   2.171  0.1637  0.9628  0.7335
 8156TIP3   OH245958   1.536   1.088   4.008  0.1338  0.3878 -0.4055
 8156TIP3    H145959   1.620   1.060   3.973  0.3933 -0.3445  0.7658
 8156TIP3    H245960   1.554   1.170   4.053  0.5353 -0.5243  1.1303
 8157TIP3   OH245961   1.856   0.896  16.111 -0.4722  0.0160 -0.7667
 8157TIP3    H145962   1.929   0.844  16.076  0.5204 -0.0058  1.2346
 8157TIP3    H245963   1.876   0.986  16.086  0.4753  0.0620  0.1104
 8158TIP3   OH245964   6.447   5.708  17.048  0.1587  0.1598 -0.1557
 8158TIP3    H145965   6.390   5.682  16.975 -0.2755  1.8533 -0.4317
 8158TIP3    H245966   6.535   5.707  17.011  0.1980 -1.2566 -0.0596
 8159TIP3   OH245967   0.259   5.111   3.391  0.4235  0.2581 -0.1985
 8159TIP3    H145968   0.282   5.134   3.481 -2.1495  1.6424  0.1284
 8159TIP3    H245969   0.176   5.156   3.375 -1.0975 -3.0161 -1.9727
 8160TIP3   OH245970   1.683   3.762   6.161 -0.3085 -0.2554  0.4283
 8160TIP3    H145971   1.729   3.687   6.198 -2.0494 -0.3469  2.5578
 8160TIP3    H245972   1.726   3.838   6.201 -0.7667 -0.2687  0.9544
 8161TIP3   OH245973   5.216   2.706   3.599 -0.2466 -0.2040 -0.2660
 8161TIP3    H145974   5.194   2.799   3.597 -0.8601 -0.3021  0.9576
 8161TIP3    H245975   5.295   2.702   3.652 -1.5322 -0.5828  1.7078
 8162TIP3   OH245976   2.866   5.908   2.816 -0.0630  0.7270 -0.4709
 8162TIP3    H145977   2.797   5.905   2.750  0.6041  2.1631 -1.2545
 8162TIP3    H245978   2.941   5.864   2.775 -0.4367 -0.7288  0.3365
 8163TIP3   OH245979   3.032   2.551   1.884 -0.1777 -0.4582  0.1059
 8163TIP3    H145980   3.025   2.501   1.965 -1.0875 -0.7512 -0.1487
 8163TIP3    H245981   3.039   2.642   1.913  0.5546 -0.6424  0.5384
 8164TIP3   OH245982   4.947   1.424  11.826 -0.3795  0.4441 -0.0029
 8164TIP3    H145983   5.006   1.432  11.751 -0.0141 -0.2677  0.2009
 8164TIP3    H245984   4.859   1.433  11.788 -0.1259  2.2575 -0.1964
 8165TIP3   OH245985   2.036   0.883  15.355 -0.1743 -0.7333  0.1499
 8165TIP3    H145986   2.108   0.927  15.399  0.6130 -1.3427 -0.5301
 8165TIP3    H245987   2.077   0.817  15.300 -1.3672 -2.5922  1.4455
 8166TIP3   OH245988   1.559   3.322   5.668  0.8355 -0.0414 -0.3659
 8166TIP3    H145989   1.622   3.380   5.711  0.4313  1.1995 -1.4255
 8166TIP3    H245990   1.487   3.380   5.642  0.0755 -1.1487 -0.7546
 8167TIP3   OH245991   0.252   4.594  11.917 -0.6193 -0.1439  0.3000
 8167TIP3    H145992   0.288   4.556  11.997  0.4632 -2.6041 -1.2621
 8167TIP3    H245993   0.187   4.530  11.887 -2.4277  1.6872  0.2199
 8168TIP3   OH245994   5.538   0.389  15.071  0.4839 -0.3832 -0.3983
 8168TIP3    H145995   5.569   0.300  15.082  0.0250 -0.3210  1.6409
 8168TIP3    H245996   5.601   0.430  15.012  1.9928 -1.4110  0.4612
 8169TIP3   OH245997   1.716   1.827   1.639 -0.0988  0.0352 -0.0256
 8169TIP3    H145998   1.723   1.909   1.589  0.5358  0.6341  1.0518
 8169TIP3    H245999   1.766   1.764   1.588  0.0311  0.4968 -0.4776
 8170TIP3   OH246000   5.403   2.022  12.237  0.2247  0.1198  0.5951
 8170TIP3    H146001   5.397   1.932  12.268  2.4275 -0.9399 -1.8957
 8170TIP3    H246002   5.373   2.075  12.311 -0.6525 -2.6082  2.2525
 8171TIP3   OH246003   4.634   6.141  10.146  0.2614  0.6920  0.0749
 8171TIP3    H146004   4.561   6.142  10.209  0.3915  2.6765  0.2155
 8171TIP3    H246005   4.707   6.181  10.193  0.6864  1.1308 -0.9418
 8172TIP3   OH246006   4.843   2.700   1.103 -0.1179 -0.1012 -0.7397
 8172TIP3    H146007   4.750   2.691   1.122 -0.6257 -1.6946 -3.6255
 8172TIP3    H246008   4.847   2.754   1.023  1.4454  0.3051 -0.4158
 8173TIP3   OH246009   0.065   3.819   5.448  0.0776  0.4827 -0.3313
 8173TIP3    H146010   0.113   3.777   5.377 -0.4061 -0.5500 -0.0640
 8173TIP3    H246011  -0.017   3.848   5.409 -0.1189  0.0600 -0.2363
 8174TIP3   OH246012   3.438   5.236  12.861  0.0024  0.0229  0.2290
 8174TIP3    H146013   3.439   5.143  12.882  2.3048 -0.3780 -1.4302
 8174TIP3    H246014   3.514   5.271  12.906  0.1702  0.7454 -0.5966
 8175TIP3   OH246015   6.396   0.542   4.414  0.2751  0.0599 -0.2545
 8175TIP3    H146016   6.474   0.578   4.457  0.2921  0.9433 -1.0042
 8175TIP3    H246017   6.340   0.513   4.486  0.6393  0.8155  0.3403
 8176TIP3   OH246018   4.152   2.658  16.061  0.5025 -0.1658  0.0223
 8176TIP3    H146019   4.125   2.734  16.009  1.6963  0.5308  0.3996
 8176TIP3    H246020   4.247   2.654  16.050  0.7572 -0.0952  2.0367
 8177TIP3   OH246021   0.371   1.714   3.435  0.5544  0.0373 -0.1068
 8177TIP3    H146022   0.446   1.655   3.434  1.2274  0.8766 -0.8935
 8177TIP3    H246023   0.403   1.794   3.392 -0.8330  0.3556 -0.5783
 8178TIP3   OH246024   3.160   2.875  14.287 -0.2557 -0.2597  0.4640
 8178TIP3    H146025   3.236   2.827  14.253 -1.0107 -0.4150 -1.0449
 8178TIP3    H246026   3.116   2.908  14.209  0.7078  3.6621  1.4699
 8179TIP3   OH246027   5.318   0.392   4.959  0.3440  0.6635  0.0742
 8179TIP3    H146028   5.228   0.417   4.942  0.4922  0.3002 -1.2501
 8179TIP3    H246029   5.317   0.296   4.962  0.7309  0.6506 -0.1971
 8180TIP3   OH246030   4.481   2.698  12.942 -0.0082 -0.0178 -0.1399
 8180TIP3    H146031   4.559   2.752  12.956 -1.1314  1.3853  0.7969
 8180TIP3    H246032   4.490   2.628  13.007  0.1315  0.5220  0.4313
 8181TIP3   OH246033   2.043   4.067   5.551  0.1097  0.2208 -0.1539
 8181TIP3    H146034   1.961   4.063   5.601 -0.7620 -1.9355 -1.6704
 8181TIP3    H246035   2.074   4.157   5.563 -0.9933  0.2606  2.7629
 8182TIP3   OH246036   1.771   6.350   5.445 -0.0484  0.9402  0.0183
 8182TIP3    H146037   1.729   6.395   5.518 -1.0481 -1.7488  1.1373
 8182TIP3    H246038   1.864   6.351   5.466 -0.2151  1.1752  0.7386
 8183TIP3   OH246039   6.456   0.505  16.839 -0.2546 -0.3970  0.8720
 8183TIP3    H146040   6.514   0.581  16.836 -2.9808  1.7605  0.9354
 8183TIP3    H246041   6.496   0.441  16.779  2.8027  0.5043  1.8717
 8184TIP3   OH246042   3.009   6.420   4.416  0.0376  0.4420 -0.2480
 8184TIP3    H146043   2.956   6.398   4.493 -0.6771 -0.0022 -0.8598
 8184TIP3    H246044   3.083   6.359   4.420 -0.8836 -0.7304 -0.8248
 8185TIP3   OH246045   1.657   4.275  16.383 -0.8555  0.3860 -0.1736
 8185TIP3    H146046   1.684   4.311  16.467  0.0378  1.2725 -0.8351
 8185TIP3    H246047   1.709   4.195  16.374  0.6006  1.3809 -0.8233
 8186TIP3   OH246048   1.083   6.655  14.242 -0.2275  0.4450 -0.7975
 8186TIP3    H146049   1.019   6.673  14.311 -1.0719  0.5360 -1.6000
 8186TIP3    H246050   1.031   6.634  14.165  0.7202 -0.4761 -1.2027
 8187TIP3   OH246051   5.456   4.154  11.896 -0.4528 -0.2025 -0.2979
 8187TIP3    H146052   5.495   4.095  11.960  0.4127 -0.3304 -0.9309
 8187TIP3    H246053   5.388   4.101  11.853  2.4549 -1.8733 -3.1323
 8188TIP3   OH246054   5.817   3.255  14.600  0.3925 -0.6860  0.3541
 8188TIP3    H146055   5.760   3.294  14.666 -0.6889 -1.4988 -0.0661
 8188TIP3    H246056   5.879   3.324  14.577  0.7264 -0.3685  2.1486
 8189TIP3   OH246057   1.319   2.108  11.371  0.2549  0.2082 -0.3120
 8189TIP3    H146058   1.295   2.028  11.324  0.5370  0.2159 -0.4716
 8189TIP3    H246059   1.409   2.126  11.342 -0.0024  0.8845 -0.6942
 8190TIP3   OH246060   1.787   3.064  12.253 -0.1167  0.1449  0.4562
 8190TIP3    H146061   1.867   3.053  12.202 -0.6047 -2.6404  0.2145
 8190TIP3    H246062   1.747   3.143  12.217  1.7581  0.7341 -0.4225
 8191TIP3   OH246063   2.409   5.756  12.079  0.1116  0.0716  0.0322
 8191TIP3    H146064   2.364   5.705  12.012 -1.5289  1.7277 -0.1727
 8191TIP3    H246065   2.485   5.793  12.035  0.8996 -1.5603 -0.0108
 8192TIP3   OH246066   3.541   0.875   2.541 -0.1432 -0.2922  0.4847
 8192TIP3    H146067   3.584   0.852   2.623 -1.5970  0.2475  1.4152
 8192TIP3    H246068   3.539   0.971   2.541 -0.3229 -0.2916 -0.0939
 8193TIP3   OH246069   1.298   4.217  16.975  0.1824  0.9207 -0.3555
 8193TIP3    H146070   1.290   4.206  16.881 -0.8448  2.1073 -0.4215
 8193TIP3    H246071   1.219   4.264  17.001 -0.3119 -0.7655  1.3392
 8194TIP3   OH246072   4.528   4.338   0.704  0.7487 -0.1920 -0.0706
 8194TIP3    H146073   4.569   4.328   0.618 -0.5353 -0.1059 -0.6989
 8194TIP3    H246074   4.594   4.384   0.756  1.0890  0.7973 -1.3376
 8195TIP3   OH246075   5.653   0.919  15.944 -0.4911  0.0860  0.1390
 8195TIP3    H146076   5.572   0.927  15.995 -0.1345 -1.1692  0.9461
 8195TIP3    H246077   5.624   0.909  15.854 -1.1671  1.5820  0.1798
 8196TIP3   OH246078   0.013   0.282   1.680  0.6841  0.0964  0.0992
 8196TIP3    H146079   0.025   0.370   1.642  0.7129 -0.8349 -2.1504
 8196TIP3    H246080   0.102   0.246   1.682  0.5534 -0.2154  0.1505
 8197TIP3   OH246081   2.217   3.125   4.794 -0.3494 -0.6750 -0.0901
 8197TIP3    H146082   2.296   3.083   4.759 -1.3324 -0.3041 -2.9182
 8197TIP3    H246083   2.192   3.188   4.727 -2.7044 -0.3322  1.0518
 8198TIP3   OH246084   5.940   1.723  14.093 -0.4562  0.1942  0.0391
 8198TIP3    H146085   5.960   1.646  14.147  1.1681  0.7791  0.2937
 8198TIP3    H246086   5.927   1.688  14.005 -1.5671 -0.5858  0.5111
 8199TIP3   OH246087   2.223   4.659  10.866 -0.2593 -0.6605 -0.6562
 8199TIP3    H146088   2.221   4.751  10.839 -0.7998 -0.2707  0.6530
 8199TIP3    H246089   2.169   4.614  10.801 -0.0810 -0.0309 -1.2437
 8200TIP3   OH246090   1.128   2.961  11.952 -0.4718 -0.0618 -0.8061
 8200TIP3    H146091   1.116   3.016  12.029  0.5236  1.3139 -1.6196
 8200TIP3    H246092   1.201   3.001  11.905 -0.4258 -1.4645 -1.9572
 8201TIP3   OH246093   4.977   6.130  13.561 -0.1715 -0.6343 -0.2103
 8201TIP3    H146094   5.057   6.183  13.562 -0.1980 -0.6044  0.2264
 8201TIP3    H246095   5.008   6.040  13.571 -0.1470 -0.6859 -0.7015
 8202TIP3   OH246096   4.412   6.376  13.512  0.0007  0.4110  1.0857
 8202TIP3    H146097   4.420   6.350  13.420 -1.5178 -1.1588  1.3749
 8202TIP3    H246098   4.500   6.403  13.537  0.9603 -1.4866 -0.1372
 8203TIP3   OH246099   4.395   1.391  11.197 -0.1791  0.1440 -0.1213
 8203TIP3    H146100   4.348   1.341  11.130  1.2000  0.0821 -1.0534
 8203TIP3    H246101   4.482   1.404  11.161 -0.4682  3.1452  0.1556
 8204TIP3   OH246102   6.592   3.126   1.773 -0.2038 -0.4842 -0.1180
 8204TIP3    H146103   6.625   3.172   1.695 -0.8992  2.2503  1.1604
 8204TIP3    H246104   6.671   3.099   1.820  0.2165 -1.6152 -1.4281
 8205TIP3   OH246105   0.924   3.503  14.969  0.1326 -0.5833 -0.1372
 8205TIP3    H146106   0.842   3.551  14.952  1.5729  1.7362 -0.7336
 8205TIP3    H246107   0.903   3.447  15.044 -1.0990  2.3416  1.7956
 8206TIP3   OH246108   0.349   5.775  11.270 -0.8178  0.3601  0.5955
 8206TIP3    H146109   0.401   5.786  11.191 -0.0959 -0.3667  0.9565
 8206TIP3    H246110   0.267   5.821  11.252 -0.1359  1.3302 -0.0599
 8207TIP3   OH246111   4.492   4.202  15.975  0.2871  0.0035  0.3239
 8207TIP3    H146112   4.473   4.200  16.068 -1.1099  0.9699  0.0624
 8207TIP3    H246113   4.588   4.196  15.970  0.3431 -0.3646  1.7974
 8208TIP3   OH246114   2.576   4.389   2.203 -0.2718 -0.4674  0.2135
 8208TIP3    H146115   2.582   4.484   2.193  1.1733 -0.3900  1.6306
 8208TIP3    H246116   2.482   4.371   2.203 -0.5378  0.8232 -1.1858
 8209TIP3   OH246117   3.937   0.042   4.568  0.2060  0.4851 -0.3617
 8209TIP3    H146118   3.896  -0.019   4.507 -1.8665  0.3354  1.1394
 8209TIP3    H246119   3.868   0.063   4.631  1.8988  1.7256  1.1163
 8210TIP3   OH246120   4.587   2.975   6.141  0.0891 -0.0935 -0.2275
 8210TIP3    H146121   4.528   2.997   6.069 -0.8193 -0.8775  0.2583
 8210TIP3    H246122   4.617   3.060   6.174  0.0103  0.2836 -1.1244
 8211TIP3   OH246123   6.711   4.555   4.821  0.3608 -0.3524 -0.0088
 8211TIP3    H146124   6.778   4.579   4.885  1.4468 -0.4308 -1.1150
 8211TIP3    H246125   6.757   4.553   4.737 -0.8724 -1.1019 -0.6767
 8212TIP3   OH246126   1.256   3.790   2.831  0.0041 -0.0401 -0.1955
 8212TIP3    H146127   1.304   3.862   2.871  0.4561 -0.7779  0.6035
 8212TIP3    H246128   1.239   3.729   2.903 -0.4274 -0.7100 -0.8511
 8213TIP3   OH246129   3.111   5.059   3.698 -0.1868 -0.6476 -0.2792
 8213TIP3    H146130   3.128   5.052   3.604 -1.7600 -0.5089 -0.5986
 8213TIP3    H246131   3.173   5.126   3.729  1.7651 -2.1755 -0.7966
 8214TIP3   OH246132   1.235   3.538  13.180 -0.1439 -0.3123  0.4432
 8214TIP3    H146133   1.275   3.594  13.247  1.9652  0.5862 -1.5180
 8214TIP3    H246134   1.246   3.449  13.214  1.4888  0.0793  1.0197
 8215TIP3   OH246135   5.917   6.764   2.639 -0.2213 -0.1997 -0.3720
 8215TIP3    H146136   5.976   6.694   2.611  0.6978  0.6805 -0.6240
 8215TIP3    H246137   5.972   6.842   2.645 -1.5548  0.8672 -1.6667
 8216TIP3   OH246138   2.594   0.550   4.168  0.0501  0.3808  0.6561
 8216TIP3    H146139   2.655   0.546   4.095 -0.3450  0.3757  0.3222
 8216TIP3    H246140   2.550   0.634   4.159  0.2130  0.5121  1.0633
 8217TIP3   OH246141   5.245   6.668  11.585  0.3374 -0.0554  0.3548
 8217TIP3    H146142   5.311   6.702  11.646 -0.4792  1.3102  0.4961
 8217TIP3    H246143   5.296   6.635  11.511  1.1884  1.0650  0.4222
 8218TIP3   OH246144   0.462   1.760   2.175  0.5090  0.2574 -0.2526
 8218TIP3    H146145   0.387   1.752   2.116  0.4623 -0.8449 -0.0597
 8218TIP3    H246146   0.533   1.793   2.119 -0.2426  1.7972 -0.3184
 8219TIP3   OH246147   5.105   5.976  12.307  0.3055  0.0805 -0.1030
 8219TIP3    H146148   5.177   6.039  12.311  1.1911 -0.7984 -1.6493
 8219TIP3    H246149   5.036   6.015  12.359  0.7721  2.4205 -1.1678
 8220TIP3   OH246150   3.245   0.155   2.403 -0.3293 -0.2459 -0.0095
 8220TIP3    H146151   3.169   0.209   2.385 -0.4342 -0.3449  0.1369
 8220TIP3    H246152   3.241   0.086   2.337 -0.2268 -0.1060 -0.1609
 8221TIP3   OH246153   6.361   3.997   1.402  0.0766  0.0979 -0.2843
 8221TIP3    H146154   6.449   3.959   1.406  0.1943  0.2801 -1.1319
 8221TIP3    H246155   6.302   3.921   1.401  0.3348 -0.0890 -2.6754
 8222TIP3   OH246156   6.037   1.410   2.895 -0.6968 -0.7567 -0.6384
 8222TIP3    H146157   6.030   1.469   2.821  0.0881  0.1507  0.0036
 8222TIP3    H246158   5.947   1.378   2.908 -0.9760 -0.3382 -1.4892
 8223TIP3   OH246159   0.245   1.904  15.560  0.2624  0.5194  0.2686
 8223TIP3    H146160   0.260   1.817  15.522  0.5659  0.4646  0.5165
 8223TIP3    H246161   0.152   1.903  15.584  0.2680  0.2581  0.2834
 8224TIP3   OH246162   5.712   3.861  14.012  0.0864  0.0245 -0.3814
 8224TIP3    H146163   5.761   3.809  13.948  0.5176  0.6539 -0.5740
 8224TIP3    H246164   5.765   3.857  14.092 -0.5150 -0.8636 -0.0222
 8225TIP3   OH246165   0.879   0.494  11.768 -0.6961 -0.4289  0.0061
 8225TIP3    H146166   0.907   0.437  11.839 -0.4053 -0.0393  0.2019
 8225TIP3    H246167   0.820   0.557  11.809 -0.6889 -0.3275 -0.1380
 8226TIP3   OH246168   6.099   0.316  16.680 -0.3910  0.1595  0.1618
 8226TIP3    H146169   6.074   0.254  16.612  2.6975 -0.9593 -0.0605
 8226TIP3    H246170   6.070   0.275  16.762 -0.5397 -0.4133 -0.1733
 8227TIP3   OH246171   0.580   3.947  17.136 -0.2957 -0.6518  0.0814
 8227TIP3    H146172   0.618   4.000  17.206 -2.3425  0.5806  0.2934
 8227TIP3    H246173   0.577   4.005  17.060 -1.9943 -0.6227  0.1568
 8228TIP3   OH246174   6.627   6.516   5.489 -0.0643 -0.4289 -0.5857
 8228TIP3    H146175   6.559   6.530   5.556  0.4228 -0.8798  0.0094
 8228TIP3    H246176   6.686   6.452   5.529  1.1149  0.5187 -0.8171
 8229TIP3   OH246177   4.920   5.173  15.626  0.2003 -0.0288 -0.4248
 8229TIP3    H146178   5.003   5.160  15.579  1.2701 -0.3357  1.4921
 8229TIP3    H246179   4.859   5.111  15.585  0.9546  0.0871 -1.7533
 8230TIP3   OH246180   2.089   3.033   1.789 -0.6387  0.2168 -0.3099
 8230TIP3    H146181   2.056   2.979   1.717 -0.9531 -1.4697  1.0765
 8230TIP3    H246182   2.028   3.106   1.795 -0.2778  0.6836 -2.1313
 8231TIP3   OH246183   1.899   4.186   2.234 -0.1583 -0.0706  1.1185
 8231TIP3    H146184   1.898   4.092   2.216 -0.4012 -0.0228  0.8809
 8231TIP3    H246185   1.993   4.208   2.240 -0.1126 -0.4205  1.6883
 8232TIP3   OH246186   4.393   5.150   4.940  0.3802 -1.1835  0.0022
 8232TIP3    H146187   4.303   5.174   4.916  1.4193  1.8021 -1.2098
 8232TIP3    H246188   4.443   5.162   4.859  2.4048  0.3100  1.4153
 8233TIP3   OH246189   0.640   0.282   1.545 -0.2888 -0.2029 -0.4796
 8233TIP3    H146190   0.589   0.296   1.465 -1.0090 -0.6163 -0.1038
 8233TIP3    H246191   0.592   0.214   1.592 -1.0279  1.4710  1.2660
 8234TIP3   OH246192   4.715   6.148  11.653 -0.5208  0.4806  0.2063
 8234TIP3    H146193   4.773   6.099  11.595  2.7708  2.6388  1.5562
 8234TIP3    H246194   4.694   6.087  11.723  0.3331 -0.2338 -0.1456
 8235TIP3   OH246195   0.551   0.088  14.674  0.3589  0.1005  0.6230
 8235TIP3    H146196   0.527   0.178  14.651 -1.3421 -0.9239 -1.8434
 8235TIP3    H246197   0.467   0.046  14.694  0.7469 -1.8292 -1.6958
 8236TIP3   OH246198   2.159   2.623   5.507 -0.4411 -0.4655  0.2461
 8236TIP3    H146199   2.169   2.605   5.600 -1.0065  0.9510  0.5913
 8236TIP3    H246200   2.135   2.539   5.468 -0.4499 -1.0035  1.4156
 8237TIP3   OH246201   2.039   2.545   2.594  0.0728  0.6107  0.0916
 8237TIP3    H146202   2.094   2.513   2.666  0.2569 -0.8937 -0.7005
 8237TIP3    H246203   2.101   2.563   2.523 -0.2483  0.7326 -0.1584
 8238TIP3   OH246204   2.427   4.074  15.434 -0.5603 -0.7006  0.3912
 8238TIP3    H146205   2.496   4.012  15.456 -1.6474 -1.4672  1.6949
 8238TIP3    H246206   2.366   4.024  15.380 -1.8564 -1.0308  2.1194
 8239TIP3   OH246207   1.509   1.074  14.990  0.7551  0.3415  0.0076
 8239TIP3    H146208   1.494   1.073  14.895 -1.6904  0.9722  0.3493
 8239TIP3    H246209   1.423   1.057  15.028  1.6030  0.6282  2.1398
 8240TIP3   OH246210   5.054   3.487  11.336 -0.4126 -0.1328 -0.4727
 8240TIP3    H146211   4.976   3.543  11.329  0.3547  1.2087  1.2293
 8240TIP3    H246212   5.121   3.534  11.287 -0.3066 -0.6059 -0.7807
 8241TIP3   OH246213   2.874   4.571   4.580 -0.5949 -0.0541 -0.2297
 8241TIP3    H146214   2.798   4.623   4.558 -0.3349 -0.4217 -2.1028
 8241TIP3    H246215   2.948   4.632   4.576 -0.6867  0.1323  0.8080
 8242TIP3   OH246216   1.081   3.147  11.731  0.1012  0.7663 -0.5051
 8242TIP3    H146217   1.130   3.087  11.674  1.5870  1.4214  0.0672
 8242TIP3    H246218   1.042   3.210  11.671  0.0567  0.3167 -0.9572
 8243TIP3   OH246219   4.051   2.103  12.991 -0.1471  0.5667  0.1866
 8243TIP3    H146220   3.996   2.035  13.028  1.0269 -0.0621  0.8244
 8243TIP3    H246221   4.072   2.161  13.064  1.9397 -0.5142  0.4917
 8244TIP3   OH246222   3.714   6.362   4.358 -0.0419  0.3540 -0.2363
 8244TIP3    H146223   3.622   6.337   4.368 -0.1874  0.8281 -0.3472
 8244TIP3    H246224   3.743   6.382   4.447 -0.0042  0.0467 -0.1824
 8245TIP3   OH246225   6.781   5.310  12.137  0.0561  1.1427 -0.2880
 8245TIP3    H146226   6.821   5.223  12.132  1.6479  1.8066  0.8241
 8245TIP3    H246227   6.688   5.292  12.154  0.4063 -0.3234  0.1509
 8246TIP3   OH246228   2.664   2.956  15.354 -0.6666  0.3551 -0.2806
 8246TIP3    H146229   2.706   2.994  15.276  0.7014 -1.3747 -0.3937
 8246TIP3    H246230   2.695   3.011  15.426 -0.4489  0.8088 -0.7095
 8247TIP3   OH246231   4.802   0.730   0.998  0.1490  0.0840 -0.2160
 8247TIP3    H146232   4.824   0.766   1.084  2.5889  0.0944 -0.8059
 8247TIP3    H246233   4.793   0.807   0.942 -2.0124  0.1099  0.1159
 8248TIP3   OH246234   5.344   2.615  17.209  0.0253 -0.1409  0.0789
 8248TIP3    H146235   5.401   2.543  17.181 -2.4170 -2.4924  0.9307
 8248TIP3    H246236   5.394   2.660  17.277  1.6017 -1.0542 -0.4602
 8249TIP3   OH246237   6.806   2.813  13.938 -0.4865 -0.0800 -0.0818
 8249TIP3    H146238   6.849   2.887  13.894 -0.7010 -0.0714 -0.2817
 8249TIP3    H246239   6.712   2.830  13.926 -0.5816  0.7299  1.7317
 8250TIP3   OH246240   0.768   0.503  13.485  0.6549  0.2820 -0.3138
 8250TIP3    H146241   0.740   0.495  13.394  0.3188 -1.0338 -0.1055
 8250TIP3    H246242   0.864   0.509  13.480  0.6555 -0.0782 -0.7371
 8251TIP3   OH246243   1.822   1.094   6.452 -0.2872  0.4861  0.0589
 8251TIP3    H146244   1.750   1.076   6.391  0.3436  2.5507 -1.3724
 8251TIP3    H246245   1.901   1.070   6.404  0.1232  0.5122  0.7152
 8252TIP3   OH246246   4.206   2.773   4.932  0.2872  0.4137  0.0748
 8252TIP3    H146247   4.149   2.709   4.975  1.0126 -0.3889 -0.1298
 8252TIP3    H246248   4.152   2.813   4.864 -0.4845  0.7704  0.9084
 8253TIP3   OH246249   6.360   3.386  16.504  0.3100 -0.8159 -0.0738
 8253TIP3    H146250   6.346   3.413  16.413 -0.5997  0.5538  0.4443
 8253TIP3    H246251   6.450   3.354  16.506  0.5055 -0.3848 -1.3487
 8254TIP3   OH246252   0.578   0.870  15.991  0.1329  0.0789 -0.3027
 8254TIP3    H146253   0.662   0.879  16.035 -0.5161  1.9086  0.5737
 8254TIP3    H246254   0.519   0.928  16.038 -1.5997 -1.0565 -1.0074
 8255TIP3   OH246255   2.771   6.543  11.912  0.3999  0.0734  0.0618
 8255TIP3    H146256   2.842   6.508  11.858  0.3622  2.3034 -1.5142
 8255TIP3    H246257   2.693   6.532  11.858  0.4354  2.7751 -0.6071
 8256TIP3   OH246258   2.459   2.336  12.955  0.2913  0.2923  0.2567
 8256TIP3    H146259   2.365   2.331  12.935  0.5661  1.0275 -1.3023
 8256TIP3    H246260   2.481   2.247  12.984 -0.5374 -0.3382 -0.9769
 8257TIP3   OH246261   6.174   0.213   1.133 -0.3308 -0.1706 -0.5942
 8257TIP3    H146262   6.267   0.194   1.143 -0.5428  0.3168  3.0438
 8257TIP3    H246263   6.134   0.128   1.115  0.5337 -0.8399  0.5575
 8258TIP3   OH246264   6.153   6.054   1.541 -0.2371  0.3389  0.0680
 8258TIP3    H146265   6.197   6.031   1.622 -0.4415 -0.1917  0.0287
 8258TIP3    H246266   6.223   6.076   1.480 -0.0145 -0.9122 -0.1250
 8259TIP3   OH246267   3.175   6.118  15.127  0.0155  0.2032 -0.6499
 8259TIP3    H146268   3.260   6.153  15.098  0.8460 -2.1549 -1.1373
 8259TIP3    H246269   3.118   6.195  15.132  2.9049  2.3024  2.4230
 8260TIP3   OH246270   0.630   1.399   0.890 -0.1581 -0.5166 -0.0768
 8260TIP3    H146271   0.568   1.335   0.924  2.9964 -2.5045  2.1604
 8260TIP3    H246272   0.593   1.484   0.915 -1.8064 -1.6509  1.4661
 8261TIP3   OH246273   2.107   0.298   4.140 -0.7062 -0.0071 -0.5444
 8261TIP3    H146274   2.152   0.254   4.211 -2.0214 -0.7775 -0.1613
 8261TIP3    H246275   2.173   0.310   4.072  0.6188  0.9804  0.9090
 8262TIP3   OH246276   1.308   4.008   5.634 -0.4817 -0.2980  0.1010
 8262TIP3    H146277   1.377   4.062   5.595  1.8729 -2.4602  1.1001
 8262TIP3    H246278   1.326   3.919   5.601 -3.9794 -0.6274 -1.1513
 8263TIP3   OH246279   4.720   3.302  15.489  0.1175  0.1456 -0.0170
 8263TIP3    H146280   4.812   3.276  15.479 -0.1505 -1.0316  0.5098
 8263TIP3    H246281   4.719   3.357  15.568  0.6388  1.5652 -0.9769
 8264TIP3   OH246282   2.583   2.980  11.081 -0.6773  0.1058  0.9238
 8264TIP3    H146283   2.506   3.036  11.085 -0.9276 -0.1434 -0.2850
 8264TIP3    H246284   2.590   2.954  10.989 -0.0992 -1.2022  1.3227
 8265TIP3   OH246285   0.794   2.354  12.556  0.1278  0.3714 -0.4470
 8265TIP3    H146286   0.699   2.363  12.549  0.0798  1.3445  1.1520
 8265TIP3    H246287   0.826   2.373  12.468 -1.1051  0.8218 -0.8135
 8266TIP3   OH246288   6.100   6.736   6.347 -0.5199  0.4840  0.1337
 8266TIP3    H146289   6.023   6.685   6.373 -0.3524 -0.3487 -0.9553
 8266TIP3    H246290   6.078   6.826   6.369 -1.7735  0.2356 -0.0850
 8267TIP3   OH246291   6.558   6.808   2.530  0.1182  0.0423 -0.5790
 8267TIP3    H146292   6.515   6.858   2.599  0.6750  0.2729 -0.3905
 8267TIP3    H246293   6.553   6.717   2.559  0.8215  0.1939  0.0278
 8268TIP3   OH246294   5.853   0.024   3.791 -0.2042 -0.0153 -0.1287
 8268TIP3    H146295   5.936   0.072   3.791 -2.0309  3.2990 -0.8443
 8268TIP3    H246296   5.819   0.035   3.702 -2.4891  0.6785  0.7985
 8269TIP3   OH246297   3.288   1.975  12.824 -0.3047 -0.0931 -0.0001
 8269TIP3    H146298   3.285   2.049  12.765  0.7576 -1.9891 -2.5334
 8269TIP3    H246299   3.209   1.925  12.805  0.7633 -1.4832 -0.9239
 8270TIP3   OH246300   5.298   4.361  14.886 -0.0973  0.6515 -0.1241
 8270TIP3    H146301   5.249   4.387  14.808 -1.1289  0.5023  0.4619
 8270TIP3    H246302   5.322   4.269  14.871  2.2256  1.4352 -1.5212
 8271TIP3   OH246303   3.350   3.879  12.981  0.4735  0.0155  0.0776
 8271TIP3    H146304   3.342   3.915  12.892  1.5594 -1.3028 -0.5576
 8271TIP3    H246305   3.352   3.784  12.968  2.0902 -0.1410  1.4055
 8272TIP3   OH246306   3.997   5.161   2.376  0.5059  0.3217  0.5741
 8272TIP3    H146307   3.948   5.118   2.447 -0.9362  0.2891 -0.4303
 8272TIP3    H246308   4.052   5.226   2.421 -1.2713  1.1208  1.6360
 8273TIP3   OH246309   6.154   4.982  11.988  0.3405  0.1477  0.0597
 8273TIP3    H146310   6.138   5.072  12.018  0.1079  0.4041 -0.8071
 8273TIP3    H246311   6.107   4.976  11.904 -0.4805 -1.1001  0.5954
 8274TIP3   OH246312   1.307   1.887  11.198 -0.1358  0.2859  0.5319
 8274TIP3    H146313   1.394   1.849  11.185 -0.4000  0.0214 -0.4919
 8274TIP3    H246314   1.261   1.871  11.116 -0.5935  1.9183  0.4518
 8275TIP3   OH246315   1.381   2.551   1.359 -0.6391 -0.2512  0.1038
 8275TIP3    H146316   1.301   2.561   1.308 -0.2056  0.4638 -0.4402
 8275TIP3    H246317   1.445   2.606   1.315 -0.0292 -0.2857  0.9326
 8276TIP3   OH246318   1.802   6.389   2.092  0.2171  0.4715  0.0874
 8276TIP3    H146319   1.888   6.424   2.067 -0.1807  1.1278 -0.3837
 8276TIP3    H246320   1.816   6.294   2.100  0.7961  0.4705 -0.8097
 8277TIP3   OH246321   2.506   1.584  13.310 -0.2383 -0.5598 -0.6627
 8277TIP3    H146322   2.452   1.508  13.329 -3.2867  0.3706 -4.8082
 8277TIP3    H246323   2.464   1.656  13.358 -0.0859 -0.6533 -0.3921
 8278TIP3   OH246324   5.209   1.061  13.009 -0.0466 -0.4267  0.2322
 8278TIP3    H146325   5.232   0.972  12.981  0.6558  0.1022 -0.9218
 8278TIP3    H246326   5.282   1.115  12.978 -0.7753  0.6463  0.3763
 8279TIP3   OH246327   2.418   0.059  11.457  0.1538 -0.1965 -0.1564
 8279TIP3    H146328   2.373   0.131  11.502  0.3401 -0.3567  0.2914
 8279TIP3    H246329   2.458   0.008  11.527  0.9713 -0.1010 -0.5534
 8280TIP3   OH246330   3.409   6.113  14.741  0.1227  0.5001 -0.0573
 8280TIP3    H146331   3.414   6.141  14.833 -1.3588 -2.6591  1.0306
 8280TIP3    H246332   3.378   6.191  14.695  3.7458  3.0688  1.6025
 8281TIP3   OH246333   3.455   6.093   0.076 -0.3983 -0.3493 -0.4552
 8281TIP3    H146334   3.453   6.143   0.158  0.4831  0.8024 -1.1159
 8281TIP3    H246335   3.547   6.092   0.051 -0.4208 -2.2161 -0.5310
 8282TIP3   OH246336   5.178   6.566  13.208 -0.7088 -0.0107  0.0613
 8282TIP3    H146337   5.139   6.539  13.292  0.6966  0.9087  1.0327
 8282TIP3    H246338   5.136   6.650  13.188  0.2369  0.6322  0.7473
 8283TIP3   OH246339   2.044   3.528  11.105  0.3209 -0.2906  0.7117
 8283TIP3    H146340   2.082   3.593  11.165  0.5235 -0.9938  1.3457
 8283TIP3    H246341   2.112   3.463  11.093 -0.5121 -1.3332  1.5175
 8284TIP3   OH246342   4.607   0.031   3.804  0.3157  0.3175 -0.2775
 8284TIP3    H146343   4.525  -0.016   3.812  0.2558  0.6064  0.8542
 8284TIP3    H246344   4.630   0.057   3.894  0.7598  1.7308 -0.7753
 8285TIP3   OH246345   6.699   4.754   0.011 -0.3867  0.2039  0.5284
 8285TIP3    H146346   6.700   4.810  -0.067 -0.8154  0.6323  0.8199
 8285TIP3    H246347   6.624   4.696  -0.002 -0.7647  0.6128  0.8458
 8286TIP3   OH246348   0.252   5.033  14.461 -0.6594 -0.6116 -0.2722
 8286TIP3    H146349   0.313   4.979  14.410  0.3560  0.1058  0.1778
 8286TIP3    H246350   0.195   5.073  14.396 -0.6685 -1.3058 -0.6935
 8287TIP3   OH246351   0.152   4.870  11.267 -0.0020  0.3335 -0.3641
 8287TIP3    H146352   0.075   4.848  11.320  0.4440  2.1528  1.1025
 8287TIP3    H246353   0.165   4.963  11.281  2.3822  0.0957 -0.7222
 8288TIP3   OH246354   0.200   5.622   4.400  0.2831  0.3354  0.3310
 8288TIP3    H146355   0.118   5.670   4.395  1.4670  2.4553  0.8701
 8288TIP3    H246356   0.185   5.543   4.348 -1.9691  0.8595  0.1497
 8289TIP3   OH246357   5.104   4.472   2.612 -0.5674  0.1915  0.4304
 8289TIP3    H146358   5.191   4.504   2.587 -0.7644  0.9421  0.6811
 8289TIP3    H246359   5.045   4.512   2.549 -0.6231 -1.1565 -0.3869
 8290TIP3   OH246360   3.313   2.064  16.418  0.3056  0.2047 -0.9914
 8290TIP3    H146361   3.398   2.071  16.463 -0.4001 -0.5169  0.4693
 8290TIP3    H246362   3.305   1.972  16.396 -0.5448  0.1145 -0.2842
 8291TIP3   OH246363   3.269   2.086   0.759  0.1446 -0.3519  0.3643
 8291TIP3    H146364   3.200   2.113   0.820 -1.2807 -0.4405 -1.1651
 8291TIP3    H246365   3.339   2.149   0.772 -0.3595 -0.0337  1.6790
 8292TIP3   OH246366   0.171   2.568   3.080 -0.3745  0.3849  0.3479
 8292TIP3    H146367   0.188   2.651   3.125 -1.2260  0.9949 -0.4327
 8292TIP3    H246368   0.241   2.560   3.016  0.2533  0.0243  1.0788
 8293TIP3   OH246369   2.962   0.975   0.713 -0.3757 -0.0230  0.7940
 8293TIP3    H146370   2.973   1.062   0.675  2.1885  0.4020  2.4157
 8293TIP3    H246371   3.043   0.959   0.761 -0.6797 -3.4645  0.2440
 8294TIP3   OH246372   3.973   4.134   5.728  0.0813  0.3606  0.1413
 8294TIP3    H146373   3.987   4.171   5.641  1.6497  1.7804  0.9531
 8294TIP3    H246374   3.989   4.041   5.718  3.5627  0.9444 -0.4677
 8295TIP3   OH246375   6.074   5.979   4.815 -0.2926 -0.6732  0.4640
 8295TIP3    H146376   6.134   6.049   4.789 -0.9764  0.1960  1.1536
 8295TIP3    H246377   6.101   5.957   4.905 -0.9050 -0.3815  0.7211
 8296TIP3   OH246378   2.044   2.877   5.961  0.2214  0.4207 -0.0159
 8296TIP3    H146379   2.054   2.926   6.043  1.0445 -0.0501  0.1662
 8296TIP3    H246380   2.112   2.912   5.904 -2.5223  3.2279 -1.7496
 8297TIP3   OH246381   3.099   4.443   0.253  0.4131 -0.1815  0.4541
 8297TIP3    H146382   3.088   4.478   0.164 -1.0444 -0.6698  0.4326
 8297TIP3    H246383   3.189   4.465   0.276  0.1957  1.6749 -0.3975
 8298TIP3   OH246384   4.150   5.353   5.591 -0.0105  0.5574  0.0171
 8298TIP3    H146385   4.184   5.440   5.613  1.5228 -0.3011  1.1271
 8298TIP3    H246386   4.209   5.292   5.635 -1.4503 -1.0484 -0.2093
 8299TIP3   OH246387   0.931   1.921  16.131  0.0664  0.4313 -0.2805
 8299TIP3    H146388   0.953   1.849  16.072 -0.0847  0.3222 -0.2068
 8299TIP3    H246389   0.835   1.923  16.132  0.0553  1.8104 -1.6904
 8300TIP3   OH246390   2.244   2.634   3.565  0.4273  0.6618  0.3672
 8300TIP3    H146391   2.198   2.554   3.590  0.2697  1.2220  1.9463
 8300TIP3    H246392   2.336   2.615   3.581  0.6707 -0.0506 -1.6714
 8301TIP3   OH246393   6.498   3.913   1.843  0.4089  0.4416 -0.4484
 8301TIP3    H146394   6.512   3.818   1.832  0.8366  0.5421 -0.8110
 8301TIP3    H246395   6.581   3.952   1.814  0.2409  0.9251 -0.2673
 8302TIP3   OH246396   4.219   1.505   2.988  0.4376 -0.7693  0.2702
 8302TIP3    H146397   4.279   1.524   2.916 -1.0562 -0.8843 -1.0290
 8302TIP3    H246398   4.139   1.475   2.946 -0.6454 -0.3545  1.9574
 8303TIP3   OH246399   3.148   1.708   0.569 -0.1513 -0.5463 -0.3258
 8303TIP3    H146400   3.217   1.729   0.506  1.3425  0.2202  1.5178
 8303TIP3    H246401   3.096   1.788   0.576  1.4535  0.3785  1.5759
 8304TIP3   OH246402   4.517   4.069  14.513 -0.6210 -0.1517  0.2156
 8304TIP3    H146403   4.556   4.079  14.426 -0.5912 -0.8479  0.1524
 8304TIP3    H246404   4.550   3.985  14.545 -0.3468  0.2678  1.0487
 8305TIP3   OH246405   2.357   5.288   2.649  0.3920 -0.0326  0.2071
 8305TIP3    H146406   2.428   5.288   2.712 -0.2511  0.0301  0.9362
 8305TIP3    H246407   2.317   5.375   2.656  0.5528  0.1136 -0.5572
 8306TIP3   OH246408   0.729   3.047   2.807 -0.3896 -0.3952  0.5986
 8306TIP3    H146409   0.684   2.962   2.809  0.3195 -0.8091 -0.5103
 8306TIP3    H246410   0.661   3.111   2.828 -0.5372 -1.3737  3.4326
 8307TIP3   OH246411   0.170   3.106  12.794 -0.4157 -0.2239 -0.1025
 8307TIP3    H146412   0.136   3.148  12.715 -0.6302  0.4089  0.3290
 8307TIP3    H246413   0.121   3.145  12.866 -2.2147 -2.8479  0.1374
 8308TIP3   OH246414   5.657   2.322   1.640  0.3028 -0.3842  0.0944
 8308TIP3    H146415   5.749   2.295   1.635  0.5675  0.5024  0.1187
 8308TIP3    H246416   5.608   2.242   1.620  1.0264 -1.4440  2.4003
 8309TIP3   OH246417   0.940   4.752   3.279  0.4646 -0.2940 -0.1335
 8309TIP3    H146418   0.879   4.764   3.352  1.4386  0.9746  0.4998
 8309TIP3    H246419   0.964   4.659   3.282 -0.5564 -0.5448  0.3073
 8310TIP3   OH246420   2.354   3.060  15.897 -0.0172  0.3191 -0.1362
 8310TIP3    H146421   2.279   3.116  15.920  0.4739  0.7308  0.4873
 8310TIP3    H246422   2.398   3.044  15.980  0.4915 -0.0600 -0.4775
 8311TIP3   OH246423   3.509   3.122   1.056  0.5798  0.2960 -0.1420
 8311TIP3    H146424   3.474   3.044   1.098 -1.7807  1.4273  0.0496
 8311TIP3    H246425   3.570   3.158   1.120  1.7994 -1.4486 -0.2965
 8312TIP3   OH246426   1.716   5.111  13.548 -0.4041 -0.1351 -0.0915
 8312TIP3    H146427   1.743   5.046  13.614  0.3202 -2.2272 -2.3449
 8312TIP3    H246428   1.718   5.062  13.466  0.7277  2.9426 -1.9496
 8313TIP3   OH246429   3.157   3.785  14.120  0.1515 -0.3954 -0.8208
 8313TIP3    H146430   3.107   3.758  14.197  0.5833 -0.3955 -0.5358
 8313TIP3    H246431   3.246   3.798  14.154  0.6752 -1.8229 -1.5885
 8314TIP3   OH246432   3.241   3.129   1.609 -0.1777  0.5062 -0.6919
 8314TIP3    H146433   3.249   3.065   1.680 -0.1998  0.8277 -0.3958
 8314TIP3    H246434   3.310   3.104   1.547 -1.5214 -1.0645 -1.5955
 8315TIP3   OH246435   1.393   2.081   4.167 -0.3431  0.2673  0.2462
 8315TIP3    H146436   1.450   2.020   4.213  0.8170  0.3948 -0.9811
 8315TIP3    H246437   1.371   2.036   4.085 -0.0198  1.2124 -0.3686
 8316TIP3   OH246438   0.994   0.688  16.604  0.0864 -0.3420  0.1574
 8316TIP3    H146439   0.976   0.679  16.697  0.7871  1.6970  0.5317
 8316TIP3    H246440   1.077   0.642  16.591 -1.0670 -2.4479  0.1035
 8317TIP3   OH246441   4.077   4.682  10.597 -0.3896  0.0252 -0.2686
 8317TIP3    H146442   4.029   4.611  10.554  0.2002  0.2061 -1.2334
 8317TIP3    H246443   4.101   4.646  10.683 -0.4648 -0.7902 -0.5855
 8318TIP3   OH246444   1.884   4.414   4.725  0.3606 -0.0778  0.1956
 8318TIP3    H146445   1.961   4.469   4.739 -0.5781  1.4594 -0.5064
 8318TIP3    H246446   1.919   4.328   4.702  1.8553  0.4355  0.5040
 8319TIP3   OH246447   5.801   3.843  12.000 -0.2778 -0.3257 -0.1667
 8319TIP3    H146448   5.803   3.761  11.951  1.7949  1.1363 -2.6728
 8319TIP3    H246449   5.888   3.881  11.988 -1.3112  2.4306  0.5487
 8320TIP3   OH246450   4.903   5.179  13.658 -0.0971  0.7532 -1.0872
 8320TIP3    H146451   4.829   5.119  13.662  0.2137  0.4804  1.1888
 8320TIP3    H246452   4.968   5.133  13.605 -0.5728 -0.1070 -0.9270
 8321TIP3   OH246453   5.008   6.165   2.611  0.2984  0.0513 -0.3389
 8321TIP3    H146454   5.085   6.219   2.598  0.1680  1.1370  2.8016
 8321TIP3    H246455   5.042   6.079   2.634  0.6857  0.8831  2.4500
 8322TIP3   OH246456   6.058   1.320   2.557  0.3924 -0.6971 -0.4505
 8322TIP3    H146457   6.120   1.296   2.626  0.4273  0.4071 -0.0892
 8322TIP3    H246458   6.109   1.372   2.496 -0.4063  1.0911  0.3754
 8323TIP3   OH246459   4.043   4.720   2.419 -0.2760  0.2833 -0.0995
 8323TIP3    H146460   3.993   4.646   2.453 -5.6078  2.9643 -1.5777
 8323TIP3    H246461   4.049   4.704   2.325  0.8526  0.4610 -0.0647
 8324TIP3   OH246462   0.726   2.421   2.087  0.4424 -0.3070  0.5356
 8324TIP3    H146463   0.804   2.392   2.040 -0.4531 -0.2201 -1.0246
 8324TIP3    H246464   0.683   2.340   2.114  0.0238 -0.3732 -0.3416
 8325TIP3   OH246465   1.376   1.957  16.172 -0.6086 -0.6259  0.4511
 8325TIP3    H146466   1.458   1.936  16.217  1.5915  0.7818 -2.7358
 8325TIP3    H246467   1.380   1.907  16.091 -2.5611  0.0910 -0.1088
 8326TIP3   OH246468   4.239   5.267   2.037 -0.5547 -0.7347 -0.1562
 8326TIP3    H146469   4.186   5.191   2.062 -0.9068 -0.1806  0.7713
 8326TIP3    H246470   4.289   5.236   1.961  0.0712 -2.2194  0.8484
 8327TIP3   OH246471   5.238   5.726  12.409  0.4140 -0.0066 -1.0508
 8327TIP3    H146472   5.192   5.648  12.379 -0.8863  0.3582 -0.0459
 8327TIP3    H246473   5.193   5.798  12.365  1.1980  0.2350 -1.4716
 8328TIP3   OH246474   1.952   1.443  12.622 -0.0121 -0.0624 -0.2452
 8328TIP3    H146475   1.891   1.393  12.676  0.8796  1.1709  1.9555
 8328TIP3    H246476   1.903   1.521  12.597  0.2260  0.3186  0.4605
 8329TIP3   OH246477   5.555   0.932   5.228  0.1915 -0.0282  0.3494
 8329TIP3    H146478   5.522   0.946   5.317 -1.5756 -1.5149 -0.0306
 8329TIP3    H246479   5.618   0.861   5.237  0.6991  0.4386  0.5374
 8330TIP3   OH246480   3.122   1.576  10.806 -0.4102  0.5054 -0.4587
 8330TIP3    H146481   3.102   1.670  10.800  1.5436  0.8346 -2.6088
 8330TIP3    H246482   3.149   1.552  10.717  1.2190 -1.5861  0.5631
 8331TIP3   OH246483   3.364   0.009   3.852  0.6335 -0.0188  0.2914
 8331TIP3    H146484   3.326   0.036   3.768 -0.6759 -0.5723  0.6880
 8331TIP3    H246485   3.308   0.051   3.918 -0.3606 -2.2428  0.9058
 8332TIP3   OH246486   3.499   3.393   3.673 -0.3770  0.4173  1.1923
 8332TIP3    H146487   3.517   3.300   3.662 -1.7485  0.1412  1.1630
 8332TIP3    H246488   3.414   3.396   3.717 -1.2030  1.6778 -0.4444
 8333TIP3   OH246489   4.256   0.306  13.343 -0.5819  0.1773  0.2029
 8333TIP3    H146490   4.299   0.375  13.292 -2.5741  1.1727 -0.2049
 8333TIP3    H246491   4.317   0.233  13.341  1.0314  1.5050 -0.4254
 8334TIP3   OH246492   3.018   2.443   0.871 -0.3326 -0.0268 -0.3182
 8334TIP3    H146493   2.927   2.413   0.864 -0.9097  1.5504  0.2476
 8334TIP3    H246494   3.015   2.512   0.937  1.0907  0.8025 -1.1113
 8335TIP3   OH246495   4.248   0.457  12.363 -0.3148  0.5440 -0.4020
 8335TIP3    H146496   4.302   0.442  12.441 -1.2072  2.6382  0.6658
 8335TIP3    H246497   4.181   0.389  12.367 -0.2513  0.5291  0.5786
 8336TIP3   OH246498   5.960   1.340   3.579  0.1100 -0.0843 -0.0708
 8336TIP3    H146499   6.025   1.327   3.647  1.4948  1.7979 -0.9909
 8336TIP3    H246500   6.005   1.316   3.498  0.0515  2.2475 -0.8376
 8337TIP3   OH246501   6.118   4.089   4.567  0.1491 -0.2461 -0.1512
 8337TIP3    H146502   6.060   4.057   4.498 -2.0190  1.5179  0.7930
 8337TIP3    H246503   6.204   4.095   4.524 -0.7457 -1.0169 -2.1411
 8338TIP3   OH246504   3.079   2.654   0.027  0.1441 -0.0389 -0.6645
 8338TIP3    H146505   3.082   2.562  -0.000  0.0797 -1.2080  3.0125
 8338TIP3    H246506   3.030   2.698  -0.042 -0.7632 -2.9565 -1.9613
 8339TIP3   OH246507   4.179   1.972  10.688  0.0898 -0.0334 -0.0623
 8339TIP3    H146508   4.251   1.913  10.667  0.0913  0.0526 -0.2966
 8339TIP3    H246509   4.183   1.982  10.783 -1.0525 -1.8852  0.1959
 8340TIP3   OH246510   5.899   5.929  16.400  0.7517  0.1842  0.3910
 8340TIP3    H146511   5.900   6.018  16.434 -0.3260  0.4850 -0.3315
 8340TIP3    H246512   5.991   5.901  16.401  0.9695  0.9377  1.5419
 8341TIP3   OH246513   5.781   5.885  13.144 -0.0495  0.2944  0.4387
 8341TIP3    H146514   5.823   5.933  13.215  0.4263  0.1550  0.2509
 8341TIP3    H246515   5.839   5.898  13.069 -1.2368  1.5802 -0.2842
 8342TIP3   OH246516   4.166   1.057   0.691 -0.5356 -0.1045  0.2799
 8342TIP3    H146517   4.221   1.136   0.690 -2.4355  1.3009  2.1569
 8342TIP3    H246518   4.110   1.066   0.614 -0.3336  0.0826  0.1531
 8343TIP3   OH246519   3.935   0.513   5.942  0.1377 -0.1703  0.8527
 8343TIP3    H146520   3.877   0.583   5.973 -1.3072 -1.6359  1.5593
 8343TIP3    H246521   3.992   0.555   5.878 -1.1245  1.5175  0.8175
 8344TIP3   OH246522   4.283   4.920  11.455  0.5386 -0.1337  0.1034
 8344TIP3    H146523   4.202   4.870  11.450  0.6569 -0.2623 -0.4911
 8344TIP3    H246524   4.277   4.966  11.539  0.4792 -1.2163  0.6905
 8345TIP3   OH246525   6.262   2.743  14.488 -0.0031  0.5440 -0.4923
 8345TIP3    H146526   6.301   2.656  14.502 -2.0764 -0.2587  0.5574
 8345TIP3    H246527   6.285   2.792  14.567  2.2528  1.3969 -1.6446
 8346TIP3   OH246528   5.983   5.007  15.415 -0.0763  0.2262 -0.3988
 8346TIP3    H146529   5.927   4.938  15.450  1.5523 -1.1694 -0.5057
 8346TIP3    H246530   5.953   5.087  15.459 -1.3300 -0.6989  0.4539
 8347TIP3   OH246531   4.693   1.470  11.534 -0.1050 -0.0805  0.0589
 8347TIP3    H146532   4.645   1.524  11.597 -2.8163 -2.1665 -0.1440
 8347TIP3    H246533   4.659   1.382  11.547  1.5833 -1.1080 -2.1779
 8348TIP3   OH246534   3.789   3.059   1.485 -0.1165  0.0091 -0.2925
 8348TIP3    H146535   3.739   2.985   1.451  2.1119 -0.8791 -1.7618
 8348TIP3    H246536   3.831   3.026   1.565 -0.1857  0.0890 -0.2231
 8349TIP3   OH246537   1.487   2.083  16.487 -0.4121  0.1387 -0.4516
 8349TIP3    H146538   1.448   2.150  16.431 -0.2263  0.0594 -0.6754
 8349TIP3    H246539   1.569   2.123  16.519 -0.6584  0.2953 -0.0043
 8350TIP3   OH246540   4.910   0.897   0.363 -0.1584  0.1198 -0.3780
 8350TIP3    H146541   4.950   0.887   0.449 -0.4998  0.7886 -0.1401
 8350TIP3    H246542   4.836   0.956   0.378 -0.6363 -0.3196 -0.9954
 8351TIP3   OH246543   3.938   5.703   4.767 -0.2091 -0.1664 -0.0790
 8351TIP3    H146544   3.983   5.786   4.749 -1.4230  0.2130 -1.4059
 8351TIP3    H246545   3.904   5.675   4.682 -0.9371 -1.3598  0.5954
 8352TIP3   OH246546   5.761   5.141   4.343 -0.1497 -0.4980  0.1598
 8352TIP3    H146547   5.715   5.197   4.405  1.0011  0.8589 -0.1861
 8352TIP3    H246548   5.828   5.097   4.397  0.1698 -0.1139  0.0766
 8353TIP3   OH246549   5.070   1.697   4.950  0.2432  0.8993 -0.0024
 8353TIP3    H146550   5.139   1.682   4.885  0.4021  0.8292  0.1811
 8353TIP3    H246551   5.117   1.724   5.029  0.1929 -0.9616  0.6895
 8354TIP3   OH246552   4.066   2.608  11.700  0.2782 -0.1815 -0.5076
 8354TIP3    H146553   4.014   2.648  11.769  0.4715 -0.5159 -0.1644
 8354TIP3    H246554   4.022   2.632  11.619  0.9112  1.5084 -0.3672
 8355TIP3   OH246555   1.375   1.609  16.422 -0.0081  0.1015  0.6101
 8355TIP3    H146556   1.446   1.612  16.358 -1.6167  0.7511 -1.2036
 8355TIP3    H246557   1.384   1.691  16.471  0.9205 -0.1553  0.8839
 8356TIP3   OH246558   2.416   2.555  17.253 -0.0141  0.1207 -0.9003
 8356TIP3    H146559   2.378   2.514  17.330  3.7694 -1.2387  0.3146
 8356TIP3    H246560   2.463   2.631  17.287  0.8002  0.1100 -1.9787
 8357TIP3   OH246561   4.447   4.595  15.259 -0.0969 -0.1179  0.2748
 8357TIP3    H146562   4.506   4.532  15.217 -1.4661 -0.9040 -0.4893
 8357TIP3    H246563   4.423   4.655  15.189 -1.7941 -0.9929  0.0708
 8358TIP3   OH246564   0.551   3.017   4.390  0.1847 -0.4394  0.4976
 8358TIP3    H146565   0.538   3.066   4.309  0.0290 -1.0619  0.1378
 8358TIP3    H246566   0.566   2.927   4.361 -2.2677 -1.1304  1.2301
 8359TIP3   OH246567   1.081   0.420   3.608 -0.6029  0.3254 -0.3299
 8359TIP3    H146568   0.998   0.376   3.593 -0.6743  0.5374 -0.5657
 8359TIP3    H246569   1.067   0.473   3.687 -0.4371 -0.2721  0.0996
 8360TIP3   OH246570   1.870   3.617   1.655 -0.6082 -0.1264 -0.6473
 8360TIP3    H146571   1.827   3.641   1.738 -0.8113 -0.8689 -0.5344
 8360TIP3    H246572   1.800   3.583   1.600 -0.1570 -1.4306 -0.4283
 8361TIP3   OH246573   6.036   1.253   4.949  0.0293  0.3420 -0.3788
 8361TIP3    H146574   5.942   1.235   4.949 -0.0718  0.8711 -0.3621
 8361TIP3    H246575   6.047   1.329   5.006  0.2936  1.1709 -1.4925
 8362TIP3   OH246576   3.116   2.604   4.704  0.3785 -0.4335  0.3840
 8362TIP3    H146577   3.116   2.514   4.669  0.4360  0.7629 -2.8840
 8362TIP3    H246578   3.201   2.612   4.748  0.3185 -2.0219  0.8486
 8363TIP3   OH246579   4.988   0.079   1.594  0.2460  0.2267 -0.7086
 8363TIP3    H146580   4.948   0.040   1.672  0.2706 -0.7188 -1.1594
 8363TIP3    H246581   4.914   0.107   1.540  0.1868 -1.1730 -1.3675
 8364TIP3   OH246582   4.694   6.086   0.337 -0.2958 -0.1789 -0.4635
 8364TIP3    H146583   4.729   6.161   0.289  0.5192 -1.2329 -1.5693
 8364TIP3    H246584   4.599   6.095   0.330 -0.1971  0.7794 -0.5468
 8365TIP3   OH246585   4.236   5.321   1.172  1.2418  0.6501 -0.3510
 8365TIP3    H146586   4.202   5.232   1.179  0.5782  0.9256 -0.0516
 8365TIP3    H246587   4.323   5.317   1.213  2.1839 -0.3763 -2.3681
 8366TIP3   OH246588   3.682   5.514   0.084  0.2871  0.2625  0.3569
 8366TIP3    H146589   3.625   5.448   0.125 -1.0841  0.5625 -1.0304
 8366TIP3    H246590   3.630   5.594   0.086  0.5487  0.4821 -1.1701
 8367TIP3   OH246591   4.023   0.237  11.706  0.0795  0.4454  0.1432
 8367TIP3    H146592   4.023   0.143  11.686 -0.4135  0.4945 -0.1100
 8367TIP3    H246593   3.983   0.244  11.792 -3.4168  0.7129 -1.4107
 8368TIP3   OH246594   1.562   4.777   6.241 -0.2366 -0.1474 -0.0565
 8368TIP3    H146595   1.500   4.805   6.308  0.1536 -1.2189  0.7688
 8368TIP3    H246596   1.615   4.855   6.223 -0.6529  0.2771  0.5409
 8369TIP3   OH246597   6.805   4.545  12.159  0.2753  0.2356 -0.7267
 8369TIP3    H146598   6.795   4.568  12.067  1.1180  1.5706 -0.4835
 8369TIP3    H246599   6.895   4.514  12.167  0.1896  0.0763 -0.3647
 8370TIP3   OH246600   5.354   1.967   1.086 -0.2752  0.1087 -0.1157
 8370TIP3    H146601   5.318   1.892   1.134  0.6745 -0.7736 -0.7593
 8370TIP3    H246602   5.422   2.001   1.143  0.3111 -0.4511 -0.4696
 8371TIP3   OH246603   1.809   1.747   5.306 -0.0448 -0.0549 -0.1514
 8371TIP3    H146604   1.819   1.776   5.216 -2.6985  2.4830  0.2846
 8371TIP3    H246605   1.732   1.690   5.305  0.8374 -1.2534  0.2351
 8372TIP3   OH246606   6.110   4.219  12.950 -0.0743  0.2397 -0.5156
 8372TIP3    H146607   6.122   4.134  12.991  0.0143 -0.2965 -1.6267
 8372TIP3    H246608   6.083   4.277  13.021  2.0589 -0.1985  0.6892
 8373TIP3   OH246609   2.762   0.018   0.503 -0.4452 -0.0888 -0.4100
 8373TIP3    H146610   2.673   0.025   0.469 -0.8009  0.1637  0.5373
 8373TIP3    H246611   2.815  -0.004   0.427 -1.5896 -2.1827 -0.6553
 8374TIP3   OH246612   3.266   5.066  16.582  0.6282 -0.1122  0.2094
 8374TIP3    H146613   3.215   5.121  16.641  0.9833 -1.2326  1.5846
 8374TIP3    H246614   3.201   5.014  16.535  0.4323 -0.4702  0.8770
 8375TIP3   OH246615   3.172   1.069  12.627 -0.6997  0.0152 -0.2064
 8375TIP3    H146616   3.077   1.080  12.633 -0.5111  0.9162  1.3958
 8375TIP3    H246617   3.205   1.095  12.713  0.6754 -3.7913  0.5242
 8376TIP3   OH246618   6.192   3.504  12.466  0.4122 -0.0407 -0.7004
 8376TIP3    H146619   6.237   3.481  12.384 -0.2877  1.0036 -1.3810
 8376TIP3    H246620   6.099   3.492  12.447  0.2519  0.0063  0.0223
 8377TIP3   OH246621   2.947   1.180   5.092 -0.3585  0.1620  0.0014
 8377TIP3    H146622   2.961   1.223   5.008 -1.0558 -0.7954 -0.6197
 8377TIP3    H246623   3.026   1.129   5.107 -0.5808 -0.3355 -0.4923
 8378TIP3   OH246624   6.438   4.398  14.976  1.0546 -0.4680 -0.4153
 8378TIP3    H146625   6.348   4.431  14.967  1.1081 -0.1009  0.3344
 8378TIP3    H246626   6.470   4.392  14.887 -0.2116 -2.0029 -0.8028
 8379TIP3   OH246627   3.439   2.899   5.129  0.0538  1.1384 -0.2065
 8379TIP3    H146628   3.350   2.908   5.094  0.0089 -0.2035 -0.4518
 8379TIP3    H246629   3.437   2.948   5.211 -1.1773  0.3739  0.2396
 8380TIP3   OH246630   0.555   4.888  13.664 -0.3439 -0.2092  0.1787
 8380TIP3    H146631   0.596   4.926  13.742  1.9472 -0.6525 -0.7712
 8380TIP3    H246632   0.571   4.952  13.595  2.3169 -2.1670 -1.1091
 8381TIP3   OH246633   0.437   5.976   5.522  0.5442 -0.3125  0.7449
 8381TIP3    H146634   0.516   5.929   5.551  2.4909  2.6892  0.5033
 8381TIP3    H246635   0.436   6.055   5.575 -1.3629  0.5214 -0.5060
 8382TIP3   OH246636   4.411   0.819   3.346  0.1897 -0.2213 -0.5987
 8382TIP3    H146637   4.393   0.856   3.259  1.0695  1.7171  0.0165
 8382TIP3    H246638   4.412   0.895   3.404 -2.0155 -1.6555  1.4027
 8383TIP3   OH246639   1.620   3.639  16.911 -0.0337  0.1447  1.0407
 8383TIP3    H146640   1.544   3.673  16.959  0.1269 -0.9880  2.1187
 8383TIP3    H246641   1.695   3.681  16.952  0.3530 -3.2082  3.9657
 8384TIP3   OH246642   6.141   4.096   1.126 -0.1842  0.2350 -0.4935
 8384TIP3    H146643   6.100   4.119   1.209  1.7596 -2.5481  1.3227
 8384TIP3    H246644   6.126   4.172   1.070 -1.3634  2.2580  2.4350
 8385TIP3   OH246645   3.210   1.141  11.651  0.0229 -0.0533  0.2164
 8385TIP3    H146646   3.193   1.169  11.741  2.9607 -1.6792  1.3663
 8385TIP3    H246647   3.248   1.054  11.660 -0.8065 -0.7804 -2.7090
 8386TIP3   OH246648   2.247   5.344  13.719  0.3064  0.0047 -0.4470
 8386TIP3    H146649   2.168   5.380  13.679  0.8756  2.2236  0.3296
 8386TIP3    H246650   2.214   5.288  13.790 -0.6104  2.6546  1.3299
 8387TIP3   OH246651   5.665   5.913  13.405  0.1921  0.4483 -0.1026
 8387TIP3    H146652   5.618   5.846  13.356  2.4378 -0.8363 -0.5943
 8387TIP3    H246653   5.715   5.961  13.339  0.0345  1.4047  0.4623
 8388TIP3   OH246654   2.596   1.446   6.110 -0.1882 -0.5207  0.3661
 8388TIP3    H146655   2.624   1.434   6.201  2.5789 -0.4601 -0.4148
 8388TIP3    H246656   2.519   1.390   6.101  1.0717 -2.6102  2.0558
 8389TIP3   OH246657   3.975   6.174  15.459  0.2580  0.4018 -0.2415
 8389TIP3    H146658   4.037   6.203  15.526  0.3946 -0.1339 -0.1336
 8389TIP3    H246659   3.933   6.096  15.497 -2.0989  2.0425  0.6153
 8390TIP3   OH246660   4.687   3.926   5.777 -0.0547  0.2665  0.1402
 8390TIP3    H146661   4.708   4.006   5.728 -0.4403  0.5126  0.3753
 8390TIP3    H246662   4.716   3.945   5.866 -0.2467  0.1844  0.2203
 8391TIP3   OH246663   1.253   4.227  16.709 -0.0685  0.1528 -0.6326
 8391TIP3    H146664   1.237   4.166  16.637  0.5596  0.0471 -0.6858
 8391TIP3    H246665   1.281   4.308  16.666 -0.4883  0.3490 -0.5426
 8392TIP3   OH246666   4.329   2.482   3.766 -0.0927  0.1118 -0.0212
 8392TIP3    H146667   4.237   2.503   3.747  0.4355  2.3093 -0.3035
 8392TIP3    H246668   4.361   2.439   3.687 -0.7497 -0.2426 -0.0986
 8393TIP3   OH246669   1.176   4.132  14.408  0.1808 -0.5332 -0.0668
 8393TIP3    H146670   1.258   4.110  14.453  0.2872 -1.7264 -0.8184
 8393TIP3    H246671   1.178   4.227  14.399  0.7164 -0.3976  1.3746
 8394TIP3   OH246672   1.520   1.415  10.962 -0.0996 -0.4396 -0.1306
 8394TIP3    H146673   1.593   1.411  10.899  0.6610 -0.0604  0.7131
 8394TIP3    H246674   1.466   1.339  10.941  0.5923 -0.7810 -0.7061
 8395TIP3   OH246675   0.718   2.224  17.011  0.3736 -0.7478  0.2668
 8395TIP3    H146676   0.667   2.202  17.090 -0.5519 -0.7224 -0.3139
 8395TIP3    H246677   0.669   2.183  16.939  0.9025 -0.2949 -0.3609
 8396TIP3   OH246678   1.209   4.368  13.397 -0.0199 -0.2013  0.3059
 8396TIP3    H146679   1.138   4.349  13.337 -0.4992  0.1141  0.7689
 8396TIP3    H246680   1.288   4.367  13.343 -0.0579 -3.1760  0.2259
 8397TIP3   OH246681   4.980   4.442   5.038  0.3138  0.5821  0.6025
 8397TIP3    H146682   4.919   4.408   4.973  0.5316 -0.8437  1.1272
 8397TIP3    H246683   4.936   4.430   5.122  0.1774  2.0963  0.7543
 8398TIP3   OH246684   4.495   3.765  16.235 -0.2459  0.0748  0.0027
 8398TIP3    H146685   4.402   3.764  16.259 -0.5546 -1.4526 -1.2215
 8398TIP3    H246686   4.529   3.682  16.267  0.9000  0.9515  1.1204
 8399TIP3   OH246687   2.338   4.328  12.819  0.1784 -0.3097 -1.1691
 8399TIP3    H146688   2.409   4.392  12.815 -0.0327 -0.0562 -0.8873
 8399TIP3    H246689   2.265   4.370  12.773 -0.0665 -0.2081 -0.6954
 8400TIP3   OH246690   4.141   1.895   5.349 -0.3733 -0.6732  0.2094
 8400TIP3    H146691   4.173   1.917   5.437  1.5131 -2.1430 -0.0816
 8400TIP3    H246692   4.149   1.977   5.300 -0.0655 -0.2160  1.0106
 8401TIP3   OH246693   3.036   1.080   1.357 -0.3584 -0.1113 -0.5368
 8401TIP3    H146694   3.091   1.015   1.401 -0.8079  0.3596  0.7624
 8401TIP3    H246695   2.947   1.047   1.366 -0.5400  0.4290 -0.2840
 8402TIP3   OH246696   2.780   6.662   4.625 -0.0466 -0.8288 -0.2042
 8402TIP3    H146697   2.807   6.753   4.615 -1.0356 -0.4810  0.2164
 8402TIP3    H246698   2.859   6.617   4.657  0.1841  0.0605  0.5005
 8403TIP3   OH246699   4.461   4.567   5.644 -0.0603  0.6895  0.0686
 8403TIP3    H146700   4.401   4.532   5.710 -0.3054 -1.3537 -1.1888
 8403TIP3    H246701   4.503   4.641   5.687 -1.0433  0.1012  2.1237
 8404TIP3   OH246702   3.529   3.129   3.731  0.2347 -0.1485 -0.7244
 8404TIP3    H146703   3.461   3.080   3.778  0.6165 -0.4231 -0.4500
 8404TIP3    H246704   3.598   3.064   3.715 -0.7395 -0.5573 -3.4382
 8405TIP3   OH246705   5.795   4.534   3.453  0.4100 -0.7272  0.5992
 8405TIP3    H146706   5.783   4.460   3.512 -2.1059 -1.0980 -0.2962
 8405TIP3    H246707   5.757   4.608   3.499 -0.1515 -0.6970  0.0945
 8406TIP3   OH246708   6.636   2.875   4.073  0.3639 -0.1834  0.4534
 8406TIP3    H146709   6.550   2.898   4.111  0.9929  2.4607  0.4020
 8406TIP3    H246710   6.637   2.919   3.989  2.2662  0.8580  0.9978
 8407TIP3   OH246711   4.797   6.337   0.237  0.7889 -0.4953  0.1925
 8407TIP3    H146712   4.810   6.376   0.150  0.2750  1.5966  1.0072
 8407TIP3    H246713   4.885   6.322   0.270  1.1557  3.4791  1.3224
 8408TIP3   OH246714   1.265   4.625  14.146 -0.2033 -0.0134 -0.1865
 8408TIP3    H146715   1.293   4.657  14.231 -0.0331  2.3139 -1.0836
 8408TIP3    H246716   1.344   4.586  14.108 -0.1743 -0.6642  0.5455
 8409TIP3   OH246717   0.144   0.979  16.609  0.3423  0.0857  0.4796
 8409TIP3    H146718   0.155   0.904  16.667 -0.3810 -0.5861 -0.2481
 8409TIP3    H246719   0.078   0.951  16.546  1.5052  0.6130 -0.9912
 8410TIP3   OH246720   2.364   0.035  14.678 -0.4609  0.1781  0.1998
 8410TIP3    H146721   2.379   0.069  14.590 -0.1165 -0.9201 -0.1680
 8410TIP3    H246722   2.423   0.085  14.733  0.7791 -0.4976 -0.4898
 8411TIP3   OH246723   3.023   6.508   4.143  0.2347 -0.3893  0.1846
 8411TIP3    H146724   3.066   6.433   4.101 -0.3331 -0.4648 -0.2671
 8411TIP3    H246725   2.975   6.470   4.216  1.3125 -0.2446  0.9803
 8412TIP3   OH246726   2.778   5.147  13.422 -0.1189  0.0864  0.6266
 8412TIP3    H146727   2.874   5.153  13.415 -0.2632  1.6352 -0.1705
 8412TIP3    H246728   2.759   5.174  13.512  0.4076 -3.2774  1.8174
 8413TIP3   OH246729   2.663   6.797  13.450  0.6227 -0.4704 -0.5136
 8413TIP3    H146730   2.647   6.870  13.511  1.6666 -0.5518 -0.1188
 8413TIP3    H246731   2.692   6.839  13.369  1.4189 -0.4376 -0.2219
 8414TIP3   OH246732   4.121   1.925   4.886  0.2698  0.4906  0.2671
 8414TIP3    H146733   4.078   1.874   4.817 -0.7693  1.9158 -0.1511
 8414TIP3    H246734   4.178   1.985   4.839  0.0878  0.9949  0.6910
 8415TIP3   OH246735   3.098   6.293   0.683 -0.1888 -0.0055 -0.7211
 8415TIP3    H146736   3.129   6.316   0.596 -1.7745 -0.0765 -1.3164
 8415TIP3    H246737   3.166   6.237   0.719  1.0068  0.9445 -1.4757
 8416TIP3   OH246738   2.450   2.520  13.442 -0.4717  0.3430  0.6107
 8416TIP3    H146739   2.440   2.565  13.526 -0.1604  2.4885 -0.4510
 8416TIP3    H246740   2.521   2.567  13.398 -1.0967 -0.3018 -1.1368
 8417TIP3   OH246741   3.921   4.505  17.205  0.2338  0.0676  0.0933
 8417TIP3    H146742   3.981   4.432  17.224  1.5213  1.1767  0.4204
 8417TIP3    H246743   3.959   4.547  17.127 -1.5784 -0.7527 -1.2516
 8418TIP3   OH246744   2.359   4.384  14.168  0.2867 -0.5079 -0.2056
 8418TIP3    H146745   2.347   4.415  14.078 -0.0976  2.0313  0.6983
 8418TIP3    H246746   2.402   4.457  14.213 -0.2694 -1.4436  1.8890
 8419TIP3   OH246747   2.821   0.174   6.375 -0.5637  0.2528  0.2301
 8419TIP3    H146748   2.781   0.093   6.407 -0.6180  0.4323  0.6172
 8419TIP3    H246749   2.894   0.145   6.321 -0.8125 -0.0633  0.0567
 8420TIP3   OH246750   5.857   4.502  13.723 -0.2891  0.0038 -0.0054
 8420TIP3    H146751   5.913   4.574  13.753  0.7693 -0.7805 -0.0525
 8420TIP3    H246752   5.777   4.545  13.693  0.0772  1.1052  0.5569
 8421TIP3   OH246753   6.381   6.632  17.259  0.3238 -0.0828  0.1414
 8421TIP3    H146754   6.336   6.638  17.176  0.6484 -0.4622 -0.0654
 8421TIP3    H246755   6.324   6.678  17.321 -0.4581 -0.7751 -0.0618
 8422TIP3   OH246756   0.995   3.682  17.131  0.0789  0.6289  0.5299
 8422TIP3    H146757   0.930   3.685  17.061 -1.1367 -1.6565  1.5082
 8422TIP3    H246758   1.075   3.651  17.088 -0.4442  0.0235 -0.0242
 8423TIP3   OH246759   4.765   1.583  17.170  0.2305 -0.0953 -0.6877
 8423TIP3    H146760   4.678   1.588  17.209 -0.4556  0.4296 -2.2388
 8423TIP3    H246761   4.825   1.603  17.242 -0.8582 -1.4347  0.6275
 8424TIP3   OH246762   6.109   3.637  11.941  0.2148  0.2704 -0.4171
 8424TIP3    H146763   6.072   3.554  11.910 -0.7970  1.1192 -1.5192
 8424TIP3    H246764   6.065   3.652  12.025  0.9580 -0.6744  0.1563
 8425TIP3   OH246765   5.774   4.799  16.235  0.0380  0.0659 -0.5194
 8425TIP3    H146766   5.725   4.788  16.153 -2.6697 -1.6953  1.2521
 8425TIP3    H246767   5.866   4.788  16.209 -0.9506 -3.9052 -2.8161
 8426TIP3   OH246768   2.244   2.975   4.479 -0.2224  0.2835  0.5593
 8426TIP3    H146769   2.273   2.948   4.566  0.1430 -3.2704 -0.5849
 8426TIP3    H246770   2.175   2.913   4.456 -1.4516  2.1853 -1.0534
 8427TIP3   OH246771   0.295   4.922  14.989  0.3987 -0.2019  0.4402
 8427TIP3    H146772   0.305   4.895  14.898  0.2927  0.0378  0.3547
 8427TIP3    H246773   0.379   4.901  15.030  0.1448 -1.1181  0.5014
 8428TIP3   OH246774   4.229   5.474   4.152 -0.7042  0.0702 -0.2046
 8428TIP3    H146775   4.188   5.464   4.238  0.4699  2.3369  0.6490
 8428TIP3    H246776   4.305   5.416   4.155 -0.1149  0.8737  0.6642
 8429TIP3   OH246777   5.813   1.078   2.900 -0.0793 -0.1206  0.0509
 8429TIP3    H146778   5.873   1.095   2.973 -1.2478 -1.3804  1.3500
 8429TIP3    H246779   5.799   1.164   2.860 -0.3747  0.8211  2.0982
 8430TIP3   OH246780   4.824   2.724  11.482 -0.0970 -0.7173 -0.7182
 8430TIP3    H146781   4.857   2.813  11.494 -0.3750 -0.3266 -2.7072
 8430TIP3    H246782   4.903   2.673  11.460 -0.0221 -0.8544 -0.1399
 8431TIP3   OH246783   0.301   0.500  15.036 -0.0920  0.1478  0.4393
 8431TIP3    H146784   0.360   0.557  15.085 -2.5291  1.3243  2.1104
 8431TIP3    H246785   0.257   0.447  15.103 -1.2247 -0.4354 -0.7311
 8432TIP3   OH246786   3.821   6.226  13.060  0.4636 -0.0567 -0.1097
 8432TIP3    H146787   3.766   6.164  13.108  0.4495 -0.9167 -1.2064
 8432TIP3    H246788   3.771   6.246  12.981  1.0376  0.3658 -0.3721
 8433TIP3   OH246789   1.393   6.613  16.232  0.6436 -0.1474 -0.6418
 8433TIP3    H146790   1.424   6.576  16.315  2.0819 -2.4578 -2.1451
 8433TIP3    H246791   1.378   6.705  16.252 -1.0606 -1.0540  2.7098
 8434TIP3   OH246792   4.620   2.380   5.511 -0.6645 -0.8421  0.4594
 8434TIP3    H146793   4.596   2.428   5.590  0.5970 -0.7659  0.8038
 8434TIP3    H246794   4.548   2.397   5.450 -1.3144 -0.3512  1.3457
 8435TIP3   OH246795   5.761   1.705  14.719 -0.4865 -0.2927  0.2426
 8435TIP3    H146796   5.727   1.639  14.658  2.1295 -1.8362  0.3895
 8435TIP3    H246797   5.822   1.757  14.667 -1.3673  1.0544  0.5295
 8436TIP3   OH246798   4.221   1.171  14.919  0.0216 -0.0035  0.2739
 8436TIP3    H146799   4.232   1.097  14.978 -2.2564 -2.4441 -2.2232
 8436TIP3    H246800   4.139   1.212  14.946 -0.8073 -0.8711 -0.8670
 8437TIP3   OH246801   1.343   6.351   2.913  0.0667  0.6178 -0.5097
 8437TIP3    H146802   1.422   6.342   2.860  0.0267 -0.5339 -0.3847
 8437TIP3    H246803   1.285   6.281   2.883 -0.4093  0.6729  0.2572
 8438TIP3   OH246804   4.910   4.597  13.996 -0.7633 -0.3760 -0.1557
 8438TIP3    H146805   4.904   4.652  14.074 -1.5561 -0.1103 -0.4024
 8438TIP3    H246806   4.989   4.627  13.951 -0.8894  0.1818 -0.0036
 8439TIP3   OH246807   5.339   6.586  12.353  0.6107 -0.0553  0.2029
 8439TIP3    H146808   5.290   6.652  12.305  1.7878  0.9283  0.3235
 8439TIP3    H246809   5.358   6.518  12.287 -1.8958 -1.0356  0.4348
 8440TIP3   OH246810   2.592   4.065   6.462 -0.2064  0.1529  0.1260
 8440TIP3    H146811   2.662   4.074   6.398  0.8328  0.3580  1.2691
 8440TIP3    H246812   2.637   4.065   6.547 -1.5273 -0.4369  0.8385
 8441TIP3   OH246813   0.493   6.661   1.908  0.4315  0.1249  0.2052
 8441TIP3    H146814   0.542   6.742   1.900 -1.7523  1.3726 -0.8719
 8441TIP3    H246815   0.516   6.627   1.995 -0.0887  2.8604  1.4503
 8442TIP3   OH246816   2.980   0.445  15.635 -0.0022  0.7146 -0.2083
 8442TIP3    H146817   2.918   0.386  15.592 -0.1945  0.4078  0.4812
 8442TIP3    H246818   2.997   0.513  15.570  1.5244 -0.9919 -1.6492
 8443TIP3   OH246819   6.228   0.497   0.745 -0.1879  0.1877  0.0599
 8443TIP3    H146820   6.269   0.567   0.694  0.4587  1.2433  1.9654
 8443TIP3    H246821   6.210   0.428   0.681 -0.5783  1.9682 -1.8097
 8444TIP3   OH246822   6.711   3.666  17.288  0.0710  0.4013  0.3260
 8444TIP3    H146823   6.731   3.576  17.313  0.0798 -0.1206 -1.4666
 8444TIP3    H246824   6.737   3.672  17.196 -0.6094  2.0257  0.2157
 8445TIP3   OH246825   6.369   6.493  10.767 -0.0572  0.1768  0.7599
 8445TIP3    H146826   6.429   6.426  10.800  0.7584  1.3923  1.8192
 8445TIP3    H246827   6.425   6.554  10.719 -0.6778  0.4744  0.4050
 8446TIP3   OH246828   2.045   4.054  13.031  0.4469 -0.0333  0.2738
 8446TIP3    H146829   2.072   4.114  13.100 -0.6120  0.2542  0.4509
 8446TIP3    H246830   2.038   4.109  12.953 -1.0142  0.1796  0.5475
 8447TIP3   OH246831   1.472   3.685  12.484  0.4463 -0.3418 -0.5312
 8447TIP3    H146832   1.415   3.756  12.511 -0.5925 -1.0781 -0.7690
 8447TIP3    H246833   1.540   3.727  12.431  0.4778  0.6192  0.2597
 8448TIP3   OH246834   0.613   6.693  11.945 -0.4159  0.4252  0.6937
 8448TIP3    H146835   0.581   6.775  11.906  0.1483  0.5575  0.5120
 8448TIP3    H246836   0.665   6.652  11.876  0.4881  0.6031  1.2711
 8449TIP3   OH246837   1.667   0.980  12.805 -0.0590  0.1405 -0.4077
 8449TIP3    H146838   1.669   0.996  12.899  0.6831  1.0317 -0.5549
 8449TIP3    H246839   1.644   1.065  12.767 -3.1187 -0.8706 -0.9111
 8450TIP3   OH246840   0.752   4.649  11.734 -0.1815  0.4067  0.0317
 8450TIP3    H146841   0.773   4.569  11.685  1.3674 -1.8641  4.0746
 8450TIP3    H246842   0.657   4.657  11.727 -0.0154  0.0496 -3.0851
 8451TIP3   OH246843   4.475   2.492   2.408 -0.0838  0.2320 -0.4006
 8451TIP3    H146844   4.428   2.572   2.429 -0.8423 -0.6168  1.2665
 8451TIP3    H246845   4.528   2.475   2.485  1.3934  0.0476 -1.4364
 8452TIP3   OH246846   6.740   0.543   6.267 -0.1547  0.1547  0.1887
 8452TIP3    H146847   6.711   0.606   6.333 -1.3000 -0.5790  0.3948
 8452TIP3    H246848   6.667   0.538   6.205  0.1921 -0.4856 -0.1741
 8453TIP3   OH246849   4.410   3.983  10.447 -0.1889 -0.3014  0.0363
 8453TIP3    H146850   4.360   4.025  10.377 -0.5701 -1.7196 -0.5701
 8453TIP3    H246851   4.478   3.933  10.401  0.1175 -0.5250  0.7299
 8454TIP3   OH246852   0.629   1.638   0.645  0.0382  0.1810  0.1791
 8454TIP3    H146853   0.612   1.732   0.633 -2.0983 -0.1770  0.1617
 8454TIP3    H246854   0.544   1.597   0.632  0.7702 -1.6827  1.1104
 8455TIP3   OH246855   1.304   3.653  11.289 -0.0562  0.0982 -0.0998
 8455TIP3    H146856   1.307   3.602  11.208  0.3097 -0.9982  0.5931
 8455TIP3    H246857   1.382   3.709  11.284 -0.1299  0.1635 -0.5820
 8456TIP3   OH246858   1.244   0.077   0.687  0.6433  0.7520 -0.0140
 8456TIP3    H146859   1.240   0.093   0.782  0.1741 -0.0376  0.1028
 8456TIP3    H246860   1.268   0.161   0.650  0.1228  1.2443  0.7514
 8457TIP3   OH246861   5.228   1.469  12.560  0.0837  0.0986  0.6847
 8457TIP3    H146862   5.175   1.546  12.543  2.0885  1.4987  0.5597
 8457TIP3    H246863   5.298   1.473  12.494  1.5562 -0.5325  2.1725
 8458TIP3   OH246864   1.569   3.537  14.842  0.9736 -0.7396  0.0705
 8458TIP3    H146865   1.479   3.557  14.868  0.4769 -1.6223 -0.9493
 8458TIP3    H246866   1.610   3.506  14.923  0.8982  1.3635  0.9680
 8459TIP3   OH246867   5.654   4.479  11.492 -0.2764  0.4640  0.5607
 8459TIP3    H146868   5.660   4.402  11.548  0.4574 -0.1850 -0.3952
 8459TIP3    H246869   5.732   4.474  11.436 -0.5582  1.5532  0.0587
 8460TIP3   OH246870   2.082   0.340  10.798  0.4469 -0.2807 -0.2742
 8460TIP3    H146871   2.038   0.272  10.747 -1.6289  0.5590  0.3316
 8460TIP3    H246872   2.082   0.416  10.741 -1.6874  0.5994  0.8130
 8461TIP3   OH246873   6.686   4.553   1.807  0.0977 -0.2297 -0.0316
 8461TIP3    H146874   6.702   4.541   1.713  2.8424 -0.4063  0.3980
 8461TIP3    H246875   6.622   4.486   1.829 -0.1077 -0.5928 -1.6728
 8462TIP3   OH246876   6.015   5.901   3.543 -0.2427 -0.2155  0.1984
 8462TIP3    H146877   6.030   5.817   3.586 -2.1364  0.1229  1.6190
 8462TIP3    H246878   5.958   5.879   3.469 -0.9682 -0.1526  0.7344
 8463TIP3   OH246879   1.659   0.436   4.821  0.3357  0.9610  0.0135
 8463TIP3    H146880   1.730   0.495   4.846  0.5632  1.1915 -1.1296
 8463TIP3    H246881   1.690   0.393   4.742 -0.4852  0.4991 -0.0638
 8464TIP3   OH246882   3.189   3.735  11.673  0.1621 -0.5250  0.4486
 8464TIP3    H146883   3.253   3.727  11.744 -0.2959  0.4292  0.9818
 8464TIP3    H246884   3.148   3.819  11.688 -1.0726 -1.0385 -0.0220
 8465TIP3   OH246885   5.219   0.553   1.662  0.2673  0.3972 -0.5845
 8465TIP3    H146886   5.277   0.578   1.733  0.7249 -0.0740 -0.7929
 8465TIP3    H246887   5.188   0.465   1.686  3.1046 -1.2406 -2.6304
 8466TIP3   OH246888   3.430   0.279   2.559  0.1633  0.1911 -0.1764
 8466TIP3    H146889   3.394   0.207   2.507  0.8712  0.7881 -1.5188
 8466TIP3    H246890   3.475   0.334   2.496  0.8390  1.0749  1.0491
 8467TIP3   OH246891   5.953   4.625  16.884  0.4328 -0.4763 -0.2903
 8467TIP3    H146892   6.020   4.690  16.862  0.2474 -0.3610 -0.5161
 8467TIP3    H246893   5.895   4.671  16.945 -1.3037  0.5045 -2.6143
 8468TIP3   OH246894   5.912   2.591  13.181 -0.5509 -0.3695 -0.1635
 8468TIP3    H146895   5.951   2.647  13.249 -1.5932 -0.1657  0.2692
 8468TIP3    H246896   5.984   2.574  13.120 -0.1710  1.3073 -0.2169
 8469TIP3   OH246897   3.255   1.183  11.921 -0.6759  0.0709  0.3622
 8469TIP3    H146898   3.337   1.134  11.922  0.3170  1.6564 -1.0540
 8469TIP3    H246899   3.281   1.274  11.939 -2.3793  0.2564  2.1140
 8470TIP3   OH246900   1.509   6.501   2.249 -0.1936 -0.6567 -0.4828
 8470TIP3    H146901   1.434   6.542   2.207  0.3129  0.5427 -0.2466
 8470TIP3    H246902   1.513   6.542   2.336  2.1991  1.1815 -1.3813
 8471TIP3   OH246903   1.831   1.578  12.373 -0.3815 -0.6644  0.0108
 8471TIP3    H146904   1.814   1.518  12.300 -2.6816  0.1133 -0.1089
 8471TIP3    H246905   1.921   1.607  12.359 -0.2577 -1.7571 -1.6265
 8472TIP3   OH246906   4.415   3.757   2.167 -0.1670  0.3037  0.2949
 8472TIP3    H146907   4.357   3.828   2.141 -0.9931 -1.3183 -2.6136
 8472TIP3    H246908   4.481   3.753   2.097  0.2423 -1.3475  0.7460
 8473TIP3   OH246909   6.245   2.232  12.767  0.7569  0.3651  0.3851
 8473TIP3    H146910   6.299   2.157  12.792 -0.9801 -2.0401 -2.6293
 8473TIP3    H246911   6.155   2.204  12.785  0.0225  1.3730 -1.5094
 8474TIP3   OH246912   0.916   3.282  12.946  0.3178 -0.4729 -0.4788
 8474TIP3    H146913   0.901   3.369  12.910 -0.8747 -0.1006  0.8799
 8474TIP3    H246914   0.886   3.222  12.878 -3.3054  0.2378  0.3895
 8475TIP3   OH246915   0.427   0.752   0.016  0.4993  0.1358  0.4629
 8475TIP3    H146916   0.504   0.808   0.020 -0.3270  1.2993  0.3129
 8475TIP3    H246917   0.422   0.723  -0.075  0.2738  0.7394  0.2865
 8476TIP3   OH246918   4.014   3.329  11.924 -0.2805  0.1042 -0.4314
 8476TIP3    H146919   4.044   3.240  11.942 -1.2823  0.2563  2.0502
 8476TIP3    H246920   3.931   3.318  11.877 -1.1392 -0.2823  1.1544
 8477TIP3   OH246921   4.826   4.442   4.810  0.1918 -0.1130  0.0232
 8477TIP3    H146922   4.809   4.388   4.733 -1.2067 -0.0043  0.2472
 8477TIP3    H246923   4.781   4.525   4.791  0.0471 -0.0030  0.8448
 8478TIP3   OH246924   2.571   5.946   0.698  0.2558 -0.7851 -0.1668
 8478TIP3    H146925   2.573   6.029   0.746 -0.1227 -1.3720  0.8760
 8478TIP3    H246926   2.648   5.950   0.641 -0.6314  0.9448 -1.2694
 8479TIP3   OH246927   3.249   5.521  16.172 -0.0225  0.8251  0.1725
 8479TIP3    H146928   3.341   5.511  16.149 -0.3541 -1.9173 -0.1587
 8479TIP3    H246929   3.206   5.545  16.090  0.4181  2.3588  0.3813
 8480TIP3   OH246930   2.380   2.289  12.157 -0.3754  0.4538  0.0375
 8480TIP3    H146931   2.342   2.201  12.148 -1.3351  0.7372  1.2811
 8480TIP3    H246932   2.319   2.336  12.213  0.7238  1.5693  0.3146
 8481TIP3   OH246933   5.954   1.179  12.478  0.6882  0.3177  0.0266
 8481TIP3    H146934   6.036   1.150  12.439  0.3276  1.0876 -1.3312
 8481TIP3    H246935   5.899   1.202  12.404 -0.1175  1.5288  0.9710
 8482TIP3   OH246936   1.706   1.895   2.980 -0.0228  0.4178 -0.1877
 8482TIP3    H146937   1.666   1.818   3.019  0.1097  0.0804 -0.7088
 8482TIP3    H246938   1.679   1.967   3.036  2.2329 -0.3644  2.0390
 8483TIP3   OH246939   0.609   1.667   3.708 -0.2991 -0.2537  0.3798
 8483TIP3    H146940   0.548   1.645   3.778 -1.7319  0.7851 -0.4975
 8483TIP3    H246941   0.596   1.598   3.642 -1.6071  0.7409 -0.4382
 8484TIP3   OH246942   4.426   1.003   1.805  0.3703 -0.1306  0.2079
 8484TIP3    H146943   4.427   0.914   1.769 -1.4672 -0.1924  0.2376
 8484TIP3    H246944   4.350   1.004   1.862 -0.2053  1.7591 -0.5585
 8485TIP3   OH246945   5.241   2.772   3.940 -0.2141  0.0601  0.0199
 8485TIP3    H146946   5.277   2.683   3.946 -0.1077  0.0867 -0.2136
 8485TIP3    H246947   5.147   2.760   3.953  0.1957  0.3536  3.6868
 8486TIP3   OH246948   0.483   2.762   5.469 -0.2046  0.1449  0.2738
 8486TIP3    H146949   0.459   2.767   5.562 -0.9991 -3.1113  0.3172
 8486TIP3    H246950   0.408   2.799   5.423 -1.9165 -2.5386  0.7850
 8487TIP3   OH246951   5.970   2.066  17.282  0.5626  0.2940 -0.3205
 8487TIP3    H146952   5.990   2.050  17.190  1.2634 -0.4470 -0.0496
 8487TIP3    H246953   5.976   2.161  17.291 -2.3590  0.6511 -1.6651
 8488TIP3   OH246954   5.512   6.516   3.006  0.0704 -0.1115 -0.0957
 8488TIP3    H146955   5.541   6.608   2.998 -1.6703  0.3725 -1.0143
 8488TIP3    H246956   5.525   6.495   3.098  1.2344  0.7991 -0.0269
 8489TIP3   OH246957   3.857   5.294  17.200  0.0686  0.2803  0.3464
 8489TIP3    H146958   3.825   5.210  17.167  0.8451 -0.2973  1.0548
 8489TIP3    H246959   3.779   5.340  17.231 -0.5818  0.5096 -1.5489
 8490TIP3   OH246960   0.863   5.310  15.301  0.0339  0.4250  0.5920
 8490TIP3    H146961   0.922   5.345  15.235 -0.5742  3.2134  1.4232
 8490TIP3    H246962   0.916   5.249  15.352  2.0954  2.5334  1.0493
 8491TIP3   OH246963   2.340   1.804  13.990 -1.0850  0.0541  0.1310
 8491TIP3    H146964   2.317   1.716  13.961 -1.2158 -0.1311  0.7972
 8491TIP3    H246965   2.404   1.790  14.060 -2.8685  0.4083  1.8785
 8492TIP3   OH246966   2.107   2.626   1.968 -0.1305 -0.0083 -0.5085
 8492TIP3    H146967   2.043   2.560   1.994 -1.2246  0.9892 -0.6252
 8492TIP3    H246968   2.059   2.709   1.971  1.4517  0.9045  0.5086
 8493TIP3   OH246969   0.690   3.695  11.575  0.2645 -0.6859  0.0751
 8493TIP3    H146970   0.689   3.790  11.587  1.9880 -0.6635  0.2287
 8493TIP3    H246971   0.734   3.683  11.490  3.2103 -1.4433  1.6386
 8494TIP3   OH246972   1.053   3.095  14.146 -0.1176 -0.0973  0.4816
 8494TIP3    H146973   1.062   3.160  14.215 -0.2991  0.2880  0.1393
 8494TIP3    H246974   1.070   3.011  14.190 -1.6812  0.0072  1.3095
 8495TIP3   OH246975   5.609   5.096  12.944 -0.0003  0.0753 -0.0598
 8495TIP3    H146976   5.687   5.067  12.993  0.5993  1.4059 -0.2009
 8495TIP3    H246977   5.643   5.160  12.881 -1.1080  0.0973 -0.6394
 8496TIP3   OH246978   6.482   2.391  12.395  0.1251  0.2335  0.5930
 8496TIP3    H146979   6.536   2.340  12.456 -1.1434 -0.0006  1.5217
 8496TIP3    H246980   6.398   2.399  12.438 -0.2993  1.4285 -0.4422
 8497TIP3   OH246981   6.778   1.738  13.382 -0.1126  0.1434  0.7334
 8497TIP3    H146982   6.865   1.773  13.368 -0.1747 -0.4740 -1.4427
 8497TIP3    H246983   6.720   1.814  13.374 -0.0708 -0.0416 -1.8390
 8498TIP3   OH246984   4.896   4.209  13.818  0.0744  0.1004  0.0371
 8498TIP3    H146985   4.819   4.184  13.767 -0.6108 -1.1128  1.6283
 8498TIP3    H246986   4.969   4.167  13.774 -0.3591  0.0428 -0.6305
 8499TIP3   OH246987   4.496   4.246  13.939 -0.1396 -0.0486  0.0765
 8499TIP3    H146988   4.570   4.195  13.973  1.3068  1.4244 -0.7932
 8499TIP3    H246989   4.433   4.248  14.012  1.4489  0.1892  1.4786
 8500TIP3   OH246990   3.388   1.334   0.612  0.1710  0.0492  0.3142
 8500TIP3    H146991   3.319   1.333   0.546  1.1460 -0.7741 -0.7082
 8500TIP3    H246992   3.469   1.344   0.561  0.7051  2.8336  1.5873
 8501TIP3   OH246993   6.676   1.099  13.997 -0.3032  0.3542  0.0895
 8501TIP3    H146994   6.624   1.095  14.077 -0.6379 -1.2966 -0.1924
 8501TIP3    H246995   6.710   1.010  13.987  2.9154  1.4649  0.4890
 8502TIP3   OH246996   4.440   0.254   6.221 -0.1461 -0.3831 -0.7324
 8502TIP3    H146997   4.475   0.165   6.233 -1.8590 -1.4572 -3.3041
 8502TIP3    H246998   4.505   0.311   6.263  1.3596 -2.7742  0.3113
 8503TIP3   OH246999   3.757   3.304   0.706 -0.0562 -0.3935 -0.1974
 8503TIP3    H147000   3.801   3.367   0.649 -2.0421 -0.7158 -2.1502
 8503TIP3    H247001   3.797   3.318   0.792  0.1086  2.9986 -0.7458
 8504TIP3   OH247002   2.500   2.334  11.845  0.1987  0.2031 -0.4621
 8504TIP3    H147003   2.571   2.380  11.891  0.2956 -0.5674  0.1571
 8504TIP3    H247004   2.465   2.399  11.784  0.7942  0.8889 -0.0752
 8505TIP3   OH247005   1.652   2.701   1.504  0.0503 -0.2009 -0.4695
 8505TIP3    H147006   1.743   2.679   1.523  0.0536  0.1006 -0.1093
 8505TIP3    H247007   1.637   2.782   1.553 -1.2439 -1.7473  1.8106
 8506TIP3   OH247008   5.370   0.127  11.266 -0.3357  0.1077 -0.0496
 8506TIP3    H147009   5.339   0.042  11.298 -1.6768  0.4945 -0.3018
 8506TIP3    H247010   5.444   0.106  11.210 -1.0422 -0.9521 -0.5972
 8507TIP3   OH247011   4.592   4.696  13.358 -0.1439 -0.0509  0.3468
 8507TIP3    H147012   4.566   4.647  13.436 -2.5854 -0.3543 -0.6160
 8507TIP3    H247013   4.593   4.787  13.386 -0.8099 -0.1804  0.7890
 8508TIP3   OH247014   1.961   4.912   2.226 -0.2731  0.6273 -0.2836
 8508TIP3    H147015   1.906   4.980   2.188  0.6080  0.7503 -1.3477
 8508TIP3    H247016   1.996   4.864   2.151  1.7437  1.0920  0.3380
 8509TIP3   OH247017   1.807   6.566  16.657  0.5071 -0.2579 -0.1137
 8509TIP3    H147018   1.767   6.498  16.603 -2.4640 -1.5607  3.4978
 8509TIP3    H247019   1.866   6.519  16.715  0.5257  0.5793  0.5488
 8510TIP3   OH247020   4.775   3.697   2.189  0.0565 -0.1194  0.5039
 8510TIP3    H147021   4.714   3.623   2.190 -1.9083  1.3562 -2.3266
 8510TIP3    H247022   4.850   3.666   2.139 -2.1319  0.6929 -3.4861
 8511TIP3   OH247023   6.336   2.725  13.473 -0.6552 -0.0961 -0.4157
 8511TIP3    H147024   6.327   2.819  13.489 -0.3527  0.0200 -0.9465
 8511TIP3    H247025   6.430   2.711  13.463 -0.7367 -0.3920 -0.7565
 8512TIP3   OH247026   0.396   1.031  16.998  0.3604  0.6200 -0.0231
 8512TIP3    H147027   0.378   1.076  16.916  1.9922 -0.1580 -0.8171
 8512TIP3    H247028   0.360   0.943  16.986  0.8443  0.4196 -0.0053
 8513TIP3   OH247029   0.490   5.360  16.023 -0.4278 -0.3959  0.2669
 8513TIP3    H147030   0.516   5.350  16.115 -0.8714  1.8243  0.6724
 8513TIP3    H247031   0.568   5.337  15.973  0.9560  1.7806  1.3312
 8514TIP3   OH247032   2.735   6.418  14.523 -0.0418 -0.5406  0.0037
 8514TIP3    H147033   2.648   6.385  14.500  0.0535 -0.7031 -0.1235
 8514TIP3    H247034   2.740   6.407  14.618 -0.8425  1.1065  0.2654
 8515TIP3   OH247035   3.858   1.710   4.258  0.3234 -0.4146  0.2234
 8515TIP3    H147036   3.951   1.696   4.235  0.4000  3.6316 -2.3033
 8515TIP3    H247037   3.860   1.771   4.331 -0.2940  2.6054 -2.1552
 8516TIP3   OH247038   1.517   6.730   6.599  0.2689  0.1861 -0.5145
 8516TIP3    H147039   1.526   6.649   6.649 -0.9559  0.8117  0.7569
 8516TIP3    H247040   1.607   6.753   6.575  0.8039 -0.5967  0.6646
 8517TIP3   OH247041   0.899   4.622  12.899  0.5021 -0.7209  0.2985
 8517TIP3    H147042   0.861   4.706  12.926 -0.1307 -0.8784 -0.0837
 8517TIP3    H247043   0.991   4.628  12.925  0.1547 -0.4525  1.5318
 8518TIP3   OH247044   6.601   1.317   0.439  0.3096 -0.2450  0.5264
 8518TIP3    H147045   6.548   1.264   0.499  0.4949 -0.0570  0.8535
 8518TIP3    H247046   6.680   1.338   0.489 -0.9711  2.6837  1.4096
 8519TIP3   OH247047   0.784   3.647   6.064  0.2173 -0.0284 -0.0219
 8519TIP3    H147048   0.810   3.593   5.990 -0.7936 -0.1371 -0.3094
 8519TIP3    H247049   0.784   3.588   6.139  0.6596 -0.0579 -0.0473
 8520TIP3   OH247050   0.757   1.306  12.151  1.0292  0.2442 -0.4426
 8520TIP3    H147051   0.668   1.276  12.164  0.7527  1.0472 -0.4672
 8520TIP3    H247052   0.811   1.227  12.159  0.3219 -0.2329 -0.4157
 8521TIP3   OH247053   1.548   3.381  16.039 -0.3442  0.2709  0.3648
 8521TIP3    H147054   1.626   3.327  16.049 -0.2732  0.3933  0.4777
 8521TIP3    H247055   1.582   3.467  16.013 -0.4665  0.2191  0.0295
 8522TIP3   OH247056   2.780   3.123   3.608  0.3263 -0.4823  0.0693
 8522TIP3    H147057   2.777   3.046   3.665  2.2587 -0.7770 -0.1674
 8522TIP3    H247058   2.835   3.095   3.534 -0.3048  0.6058 -0.8299
 8523TIP3   OH247059   1.269   0.503   5.441 -0.2569  0.8572  0.2860
 8523TIP3    H147060   1.247   0.593   5.417  0.3990  1.4045  1.6774
 8523TIP3    H247061   1.280   0.505   5.536  1.3452 -0.3455  0.1564
 8524TIP3   OH247062   2.016   3.892  13.273 -0.0013 -0.4542 -0.0537
 8524TIP3    H147063   2.030   3.965  13.213  0.3633  0.6764  1.3799
 8524TIP3    H247064   1.960   3.832  13.225 -0.1906  0.7048 -1.3122
 8525TIP3   OH247065   6.723   3.501  12.406  0.8707  0.1351  0.0987
 8525TIP3    H147066   6.674   3.538  12.332  0.9561  0.3042  0.1263
 8525TIP3    H247067   6.678   3.418  12.425  0.7126  0.1967 -0.0009
 8526TIP3   OH247068   6.730   5.159  11.357  0.0373 -0.7281 -0.0647
 8526TIP3    H147069   6.821   5.145  11.330 -0.1354  0.7884 -1.4931
 8526TIP3    H247070   6.733   5.156  11.453  1.5214 -1.0919 -0.1078
 8527TIP3   OH247071   0.529   2.509  15.448 -0.1009 -0.0851 -0.2118
 8527TIP3    H147072   0.554   2.457  15.524 -0.6152 -0.7793 -0.5145
 8527TIP3    H247073   0.611   2.542  15.413  0.0998  0.8592  1.0746
 8528TIP3   OH247074   3.222   6.258   3.549 -0.4002  0.5991  0.0998
 8528TIP3    H147075   3.300   6.304   3.582 -0.4411  0.7841 -0.0644
 8528TIP3    H247076   3.247   6.166   3.551 -0.3670  0.6161  0.5596
 8529TIP3   OH247077   2.580   1.066  14.805 -0.3672 -0.2179 -0.8846
 8529TIP3    H147078   2.509   1.052  14.867  0.4083 -1.7271 -0.3197
 8529TIP3    H247079   2.557   1.010  14.730  1.5222 -2.7956  0.3867
 8530TIP3   OH247080   4.138   2.445  11.349 -0.4490  0.4402 -0.4656
 8530TIP3    H147081   4.200   2.508  11.387 -1.0555  1.2671 -0.8329
 8530TIP3    H247082   4.176   2.422  11.265  1.1026 -1.6999  0.7785
 8531TIP3   OH247083   0.799   4.302  12.193 -0.0858  0.1429 -0.5724
 8531TIP3    H147084   0.885   4.325  12.159 -0.5223  0.1141 -1.7236
 8531TIP3    H247085   0.792   4.207  12.179  0.1769 -0.0631  0.6382
 8532TIP3   OH247086   5.826   4.899  14.803 -0.4893 -0.0334 -0.1168
 8532TIP3    H147087   5.784   4.881  14.888 -2.8183 -0.1896 -1.2561
 8532TIP3    H247088   5.903   4.843  14.802 -0.4570 -0.0601  1.8791
 8533TIP3   OH247089   2.902   2.061   3.958 -0.3376  0.5833  0.1858
 8533TIP3    H147090   2.929   2.147   3.990  0.9444  0.7815 -1.3488
 8533TIP3    H247091   2.899   2.006   4.036 -0.8536  1.9276  1.1326
 8534TIP3   OH247092   2.996   6.594   2.504  0.2622  0.1192  0.6621
 8534TIP3    H147093   3.047   6.523   2.542  0.6851  0.8018  1.3908
 8534TIP3    H247094   3.018   6.670   2.558 -0.7694  0.6302  0.3622
 8535TIP3   OH247095   4.209   6.614   5.461  0.1582  0.1822 -0.5792
 8535TIP3    H147096   4.202   6.608   5.556  0.2914 -1.8514 -0.6894
 8535TIP3    H247097   4.242   6.529   5.433 -1.2782  0.2417 -2.5931
 8536TIP3   OH247098   4.481   0.231  12.571  0.0009 -0.0860  0.2380
 8536TIP3    H147099   4.555   0.288  12.551  0.4181 -0.5880  0.3517
 8536TIP3    H247100   4.496   0.153  12.517  0.1722 -0.6814  1.1396
 8537TIP3   OH247101   2.447   0.169   1.116  0.1132  0.2854 -0.0026
 8537TIP3    H147102   2.462   0.213   1.032  1.5554 -1.3646 -0.6504
 8537TIP3    H247103   2.533   0.168   1.158 -0.7113  1.6137  1.7769
 8538TIP3   OH247104   3.016   0.973  10.974  0.0472 -0.4747  0.5163
 8538TIP3    H147105   2.928   0.947  10.946  0.6891 -2.0970 -0.0393
 8538TIP3    H247106   3.075   0.925  10.915  1.2952  1.3705  0.2191
 8539TIP3   OH247107   6.634   6.658  10.934  0.7037  0.9539  0.7607
 8539TIP3    H147108   6.630   6.594  11.005 -0.5582  1.6662  1.3461
 8539TIP3    H247109   6.613   6.742  10.975 -1.0415  1.2263 -0.6121
 8540TIP3   OH247110   1.715   4.722  11.491  0.4365  0.2405  0.1604
 8540TIP3    H147111   1.786   4.668  11.527 -0.8345 -0.5081  1.5799
 8540TIP3    H247112   1.640   4.664  11.486 -0.4906  1.4261  0.0533
 8541TIP3   OH247113   6.079   4.328  15.323 -0.6869  0.6223  0.5261
 8541TIP3    H147114   6.137   4.256  15.298 -2.0804 -0.3924  0.1326
 8541TIP3    H247115   6.108   4.353  15.411  0.6020  0.4110  0.1680
 8542TIP3   OH247116   4.363   3.759   3.278 -0.0300 -0.4395  0.0047
 8542TIP3    H147117   4.429   3.691   3.262 -0.0153 -0.3405 -0.3673
 8542TIP3    H247118   4.364   3.772   3.373  1.3910  0.4592 -0.1018
 8543TIP3   OH247119   6.647   3.204   5.420 -0.5325 -0.8538 -0.0418
 8543TIP3    H147120   6.580   3.227   5.355 -0.8871  0.3573  0.7373
 8543TIP3    H247121   6.723   3.177   5.368 -0.6714  0.5098 -0.9706
 8544TIP3   OH247122   2.580   0.515  14.390 -0.5399  0.1991  1.0297
 8544TIP3    H147123   2.623   0.488  14.309 -1.8645 -1.0657  0.7263
 8544TIP3    H247124   2.650   0.553  14.443  0.6270 -0.3375 -0.1071
 8545TIP3   OH247125   5.400   0.572  14.462 -0.1926  0.4366  0.4605
 8545TIP3    H147126   5.429   0.481  14.470 -0.3140  0.3486 -0.1025
 8545TIP3    H247127   5.305   0.567  14.459 -0.1611  0.4981 -0.6605
 8546TIP3   OH247128   4.769   4.476   2.125  0.4386  0.3680  0.2311
 8546TIP3    H147129   4.706   4.538   2.160 -2.5675 -1.3511 -1.9327
 8546TIP3    H247130   4.811   4.522   2.052  0.8381  1.0763  0.8991
 8547TIP3   OH247131   5.765   5.425   2.063 -0.8456  0.5650  0.0130
 8547TIP3    H147132   5.750   5.512   2.026 -0.5378  0.7426  0.2980
 8547TIP3    H247133   5.856   5.405   2.041 -0.8029  0.4754  0.2696
 8548TIP3   OH247134   5.033   4.241  10.357  0.0303 -0.1884 -0.7011
 8548TIP3    H147135   5.128   4.249  10.360 -0.0958  1.3676 -0.1922
 8548TIP3    H247136   5.002   4.298  10.427 -1.2565 -1.3223 -0.3334
 8549TIP3   OH247137   0.798   5.893   5.947 -0.2229  0.7460 -0.4187
 8549TIP3    H147138   0.863   5.857   5.887  0.7909  2.4110 -0.3322
 8549TIP3    H247139   0.819   5.853   6.031 -1.1249 -0.9450 -0.9826
 8550TIP3   OH247140   3.404   2.825  10.587  0.1447 -0.4758  0.1791
 8550TIP3    H147141   3.341   2.784  10.646  0.3462 -0.9413  0.0752
 8550TIP3    H247142   3.380   2.918  10.586 -0.9591 -0.7644 -0.4002
 8551TIP3   OH247143   3.439   3.935  16.778 -0.4274 -0.0556 -0.2140
 8551TIP3    H147144   3.387   3.897  16.848 -0.9111  1.0099  0.0159
 8551TIP3    H247145   3.529   3.910  16.798 -0.3340  1.7489  1.8120
 8552TIP3   OH247146   0.161   5.172  11.287 -0.0184 -0.6451  0.2960
 8552TIP3    H147147   0.256   5.168  11.274  0.1002 -3.0879  1.6303
 8552TIP3    H247148   0.137   5.261  11.261  2.5715 -0.1041 -0.4075
 8553TIP3   OH247149   4.794   2.998  15.731 -0.2061  0.3410  0.0781
 8553TIP3    H147150   4.806   2.961  15.818  0.9488  0.7307  0.1025
 8553TIP3    H247151   4.706   3.034  15.731 -1.1346 -1.8879  0.2494
 8554TIP3   OH247152   4.002   5.118   0.736  0.1643 -0.1532 -0.2566
 8554TIP3    H147153   3.990   5.182   0.806 -1.1754 -0.7285  0.0584
 8554TIP3    H247154   3.913   5.095   0.710  0.6504 -1.6255 -0.6197
 8555TIP3   OH247155   6.566   6.165  11.674  0.2861  0.2269 -0.2987
 8555TIP3    H147156   6.613   6.192  11.753  0.7554  0.1923 -0.5599
 8555TIP3    H247157   6.635   6.135  11.615  0.0716  1.5061 -1.2256
 8556TIP3   OH247158   4.250   1.992  12.537 -0.2434  0.2754  0.8577
 8556TIP3    H147159   4.324   1.932  12.538 -0.2413  0.2761  0.6876
 8556TIP3    H247160   4.250   2.032  12.624  1.5719  2.2442 -0.0003
 8557TIP3   OH247161   2.883   3.437  16.638 -0.1724 -0.1664  0.5650
 8557TIP3    H147162   2.840   3.354  16.657 -0.5285  0.4312  2.4808
 8557TIP3    H247163   2.812   3.502  16.641  0.4846  0.5255  1.5936
 8558TIP3   OH247164   6.028   3.980  11.960  0.0701 -0.2118  0.1807
 8558TIP3    H147165   6.122   3.975  11.979  0.5093  0.8516 -1.6108
 8558TIP3    H247166   6.020   3.951  11.870 -1.3854 -0.6221  0.4266
 8559TIP3   OH247167   6.198   4.836   1.108  0.5757  0.6143 -0.0888
 8559TIP3    H147168   6.268   4.900   1.097  1.2817 -0.2574 -0.8354
 8559TIP3    H247169   6.237   4.754   1.077 -0.0093 -0.3519  1.6898
 8560TIP3   OH247170   6.435   3.391   2.066 -0.4460  0.0897  0.2567
 8560TIP3    H147171   6.355   3.407   2.116 -2.7116  2.0946 -3.7887
 8560TIP3    H247172   6.426   3.300   2.036 -1.7753  0.6578 -1.1137
 8561TIP3   OH247173   5.317   3.822  13.078  0.4572  0.4459 -0.2098
 8561TIP3    H147174   5.338   3.758  13.009  1.6162 -0.5269  1.0331
 8561TIP3    H247175   5.402   3.846  13.115 -0.1268  1.3357  0.5673
 8562TIP3   OH247176   2.696   0.915  15.766 -0.0200  0.0126 -0.3006
 8562TIP3    H147177   2.664   0.923  15.676 -0.7347 -0.9116 -0.1321
 8562TIP3    H247178   2.697   1.005  15.799 -1.9248  0.1459 -0.5058
 8563TIP3   OH247179   0.116   3.675   2.866  0.2693  0.0842  0.2608
 8563TIP3    H147180   0.061   3.634   2.800  1.5678 -0.8953 -0.2433
 8563TIP3    H247181   0.122   3.766   2.839 -0.2325 -0.0346 -0.2626
 8564TIP3   OH247182   1.017   4.982  15.696 -0.0804  0.2398  0.0617
 8564TIP3    H147183   1.058   4.958  15.613  0.3494  0.9973  0.0497
 8564TIP3    H247184   0.932   5.018  15.672 -0.2060 -0.1103 -0.0110
 8565TIP3   OH247185   5.454   3.633  16.730  0.0915  0.9803  0.2629
 8565TIP3    H147186   5.497   3.550  16.714  0.4906  1.1241  0.5827
 8565TIP3    H247187   5.419   3.625  16.820 -0.7946  0.7559 -0.0906
 8566TIP3   OH247188   2.448   5.926   3.714 -0.1492  0.8168  0.0588
 8566TIP3    H147189   2.525   5.979   3.694  1.4723 -1.6578 -0.3979
 8566TIP3    H247190   2.470   5.880   3.795 -0.4984 -1.0817 -0.8857
 8567TIP3   OH247191   6.132   4.985  14.650 -0.0622 -0.2538 -0.2380
 8567TIP3    H147192   6.111   4.897  14.682 -0.2793  0.1748  0.8000
 8567TIP3    H247193   6.137   5.039  14.728  0.0305  0.6757 -0.8744
 8568TIP3   OH247194   3.347   2.028  11.713 -0.5466 -0.8981  0.8095
 8568TIP3    H147195   3.263   2.020  11.667 -0.4671  1.0396  0.2468
 8568TIP3    H247196   3.398   1.953  11.683  0.3509  1.4596 -4.2045
 8569TIP3   OH247197   4.674   6.494   1.099 -0.0406 -0.2271  0.2521
 8569TIP3    H147198   4.703   6.526   1.184 -1.4960 -1.2292  1.1702
 8569TIP3    H247199   4.590   6.538   1.085  0.6769  0.7213 -1.1674
 8570TIP3   OH247200   4.606   2.995  12.583  0.2777  0.0608  0.8257
 8570TIP3    H147201   4.573   2.908  12.606  0.7083 -0.0282  1.1142
 8570TIP3    H247202   4.609   3.042  12.666  1.9964 -0.3149  0.9911
 8571TIP3   OH247203   1.192   4.865   3.376 -0.4957  0.0768  0.2912
 8571TIP3    H147204   1.137   4.833   3.447 -1.2658 -0.2201 -0.4347
 8571TIP3    H247205   1.141   4.848   3.296 -0.2528  1.6632 -0.2281
 8572TIP3   OH247206   0.982   5.847   5.266 -0.0789 -0.5271 -0.8693
 8572TIP3    H147207   1.074   5.833   5.242  0.1282 -0.2466 -0.2416
 8572TIP3    H247208   0.984   5.866   5.359 -0.3747  3.1940 -1.5492
 8573TIP3   OH247209   4.126   5.335  12.962  0.0265 -0.0246 -0.2625
 8573TIP3    H147210   4.180   5.380  13.027 -0.4831  0.6558 -0.3033
 8573TIP3    H247211   4.134   5.242  12.984 -1.2391  0.2913  1.6244
 8574TIP3   OH247212   0.015   0.111  11.207  0.2539  0.2800  0.4602
 8574TIP3    H147213   0.029   0.187  11.151 -0.6566  0.7503  0.8553
 8574TIP3    H247214  -0.027   0.146  11.286  1.7895 -0.3304  1.5831
 8575TIP3   OH247215   1.837   1.113   3.874  0.0328 -0.5225  0.3417
 8575TIP3    H147216   1.800   1.201   3.878 -1.2407 -1.1470  3.5664
 8575TIP3    H247217   1.900   1.110   3.946  2.1673 -1.4059 -1.4687
 8576TIP3   OH247218   6.669   6.154   3.134 -0.1952 -0.6849  0.4173
 8576TIP3    H147219   6.741   6.158   3.071 -2.4460  2.0032 -2.2103
 8576TIP3    H247220   6.604   6.096   3.092  0.2368 -2.8221  2.5915
 8577TIP3   OH247221   5.477   4.294   2.488 -0.0626 -0.7077 -0.6030
 8577TIP3    H147222   5.478   4.238   2.410  0.9794 -0.5333 -0.7203
 8577TIP3    H247223   5.422   4.247   2.551 -1.0821 -0.7458 -1.5129
 8578TIP3   OH247224   2.297   4.880   3.191 -0.1255 -0.0378  0.5255
 8578TIP3    H147225   2.222   4.831   3.157  1.4702 -1.3672 -1.1339
 8578TIP3    H247226   2.292   4.965   3.147  0.0364 -0.5589 -0.4980
 8579TIP3   OH247227   2.501   3.234   4.822  0.7029  0.1756  0.1669
 8579TIP3    H147228   2.562   3.307   4.811  0.0227  0.4203 -2.2433
 8579TIP3    H247229   2.427   3.271   4.870  1.4192  0.4502  1.0769
 8580TIP3   OH247230   3.992   1.837  16.746 -0.5469 -0.4871 -0.5017
 8580TIP3    H147231   4.087   1.829  16.755 -0.6502 -0.2169  0.7937
 8580TIP3    H247232   3.959   1.749  16.764 -0.6084 -0.3825 -0.1048
 8581TIP3   OH247233   1.845   2.715  14.321 -0.1100  0.0005  0.1152
 8581TIP3    H147234   1.750   2.709  14.315 -0.1023  0.1947 -0.2197
 8581TIP3    H247235   1.862   2.809  14.330  0.0095 -0.0898  0.8718
 8582TIP3   OH247236   1.119   4.347  14.117  0.2156  0.1182 -0.4982
 8582TIP3    H147237   1.129   4.441  14.099  0.4991  0.4427  1.3017
 8582TIP3    H247238   1.209   4.314  14.120  0.1075 -0.2992 -1.4719
 8583TIP3   OH247239   0.977   5.284  12.778 -0.7261 -0.1127 -0.4743
 8583TIP3    H147240   1.010   5.194  12.777  0.2205  0.2229  0.0480
 8583TIP3    H247241   0.901   5.281  12.836 -1.0700 -0.7038 -0.9559
 8584TIP3   OH247242   1.729   5.704  16.501  0.6192 -0.4950 -0.0328
 8584TIP3    H147243   1.679   5.627  16.474 -0.0165 -0.9221  2.2776
 8584TIP3    H247244   1.800   5.670  16.554 -0.1246  0.5357  1.6731
 8585TIP3   OH247245   1.436   6.382   4.889  0.4540 -0.0749  0.0633
 8585TIP3    H147246   1.430   6.459   4.833  1.4143 -1.2895 -1.7999
 8585TIP3    H247247   1.490   6.409   4.963 -2.4845  2.1372  1.4851
 8586TIP3   OH247248   4.030   6.598  13.211 -0.6166 -0.4344 -0.1933
 8586TIP3    H147249   4.031   6.595  13.115  0.1857 -3.0826 -0.1257
 8586TIP3    H247250   4.120   6.576  13.237 -0.3315  2.1501  1.1565
 8587TIP3   OH247251   6.393   0.915   1.792  0.4202 -0.2859 -0.3141
 8587TIP3    H147252   6.361   0.996   1.752 -0.7507  0.1110  1.3552
 8587TIP3    H247253   6.488   0.925   1.796  0.5956 -0.3754 -3.0158
 8588TIP3   OH247254   3.618   1.383   2.315 -0.4967  0.5484 -0.1203
 8588TIP3    H147255   3.549   1.421   2.369 -0.9623 -1.0244  0.4160
 8588TIP3    H247256   3.585   1.297   2.290  2.2400 -1.2917  2.2180
 8589TIP3   OH247257   2.277   0.936   4.390 -0.6070 -0.1539  0.1893
 8589TIP3    H147258   2.277   1.030   4.369 -3.1952 -0.0164  0.6174
 8589TIP3    H247259   2.247   0.893   4.310 -0.5056 -0.5101  0.3419
 8590TIP3   OH247260   6.106   5.630   4.693 -0.2780 -0.3060  0.0395
 8590TIP3    H147261   6.047   5.616   4.766 -0.0184  0.1185  0.3283
 8590TIP3    H247262   6.065   5.699   4.641  0.6161  0.9126  0.9406
 8591TIP3   OH247263   4.150   1.189   2.210 -0.4778  0.3068 -0.0825
 8591TIP3    H147264   4.111   1.191   2.297  1.5817 -1.8078  0.9758
 8591TIP3    H247265   4.096   1.248   2.157 -0.4013  3.4807  3.1792
 8592TIP3   OH247266   3.026   0.339   4.554 -0.0750  0.1993  0.1640
 8592TIP3    H147267   3.104   0.321   4.502  0.7425 -1.3678  1.8751
 8592TIP3    H247268   2.961   0.275   4.525  0.5153 -0.9470  1.3089
 8593TIP3   OH247269   5.568   5.626   3.982 -0.1293 -0.2792 -0.0295
 8593TIP3    H147270   5.545   5.707   3.936 -2.0016 -0.0056  1.3133
 8593TIP3    H247271   5.663   5.621   3.976 -0.0567  1.5617 -0.8945
 8594TIP3   OH247272   1.171   2.178   2.231 -0.0307 -0.6825 -0.5153
 8594TIP3    H147273   1.097   2.125   2.261  0.5761 -1.4294 -0.3233
 8594TIP3    H247274   1.136   2.267   2.227 -0.6596 -0.8697  0.5645
 8595TIP3   OH247275   6.621   4.482   0.565  0.5447  0.0101 -0.1450
 8595TIP3    H147276   6.605   4.575   0.582 -0.3984 -0.3747  1.1679
 8595TIP3    H247277   6.537   4.448   0.536  1.0265 -0.3299 -1.1733
 8596TIP3   OH247278   5.229   3.446   3.840 -0.5458 -0.7002 -0.2664
 8596TIP3    H147279   5.212   3.469   3.749 -0.5265  2.0891  0.3951
 8596TIP3    H247280   5.306   3.389   3.836 -0.5566 -0.6170 -2.0104
 8597TIP3   OH247281   5.683   4.111  13.896  0.1158 -0.0809 -0.0748
 8597TIP3    H147282   5.689   4.016  13.908 -0.0581 -0.3411 -1.8236
 8597TIP3    H247283   5.621   4.140  13.963  0.3922 -1.1624  0.6624
 8598TIP3   OH247284   2.379   2.484  16.500 -0.0650  0.2383  0.0230
 8598TIP3    H147285   2.414   2.493  16.589  1.7606  0.6863 -0.7311
 8598TIP3    H247286   2.322   2.407  16.505  0.0657  0.2250  1.5659
 8599TIP3   OH247287   0.271   3.750  16.365  1.0111 -0.5166  0.3788
 8599TIP3    H147288   0.263   3.715  16.454  1.6528 -0.6248  0.3961
 8599TIP3    H247289   0.302   3.840  16.378  1.6043 -0.6984  0.2495
 8600TIP3   OH247290   2.244   5.229   3.331 -0.0821 -0.3838  0.0425
 8600TIP3    H147291   2.177   5.174   3.292 -0.4287 -0.2190  0.3925
 8600TIP3    H247292   2.222   5.231   3.424 -0.1475  0.4356  0.0169
 8601TIP3   OH247293   5.364   5.806  17.081 -0.3997 -0.0217  0.0798
 8601TIP3    H147294   5.379   5.854  16.999  0.1090  1.0360  0.7835
 8601TIP3    H247295   5.443   5.822  17.133 -2.0918  2.0217  2.1034
 8602TIP3   OH247296   0.472   2.099   6.661  0.3739  0.1546  0.0916
 8602TIP3    H147297   0.487   2.116   6.568 -0.5028 -0.9051 -0.2555
 8602TIP3    H247298   0.389   2.141   6.680 -0.2395 -0.9876 -0.0028
 8603TIP3   OH247299   4.440   6.362  12.647  0.4936  0.4238 -0.4335
 8603TIP3    H147300   4.476   6.412  12.721 -2.1718  0.4077  0.9224
 8603TIP3    H247301   4.463   6.271  12.665 -0.5232  0.3647  0.6399
 8604TIP3   OH247302   6.458   6.259  13.434  1.0074 -0.3808  0.5494
 8604TIP3    H147303   6.533   6.265  13.374  2.1853  0.4307  2.0591
 8604TIP3    H247304   6.470   6.332  13.494 -0.1668 -1.1564  1.7490
 8605TIP3   OH247305   0.516   5.864  14.242  0.5649  0.0627 -0.3501
 8605TIP3    H147306   0.550   5.944  14.201  0.5700  0.2717  0.0566
 8605TIP3    H247307   0.555   5.864  14.330  0.6180 -0.4230 -0.3701
 8606TIP3   OH247308   0.854   2.551  11.022 -0.4637  0.0869 -0.5900
 8606TIP3    H147309   0.809   2.602  11.090 -0.0152  0.9213 -0.9140
 8606TIP3    H247310   0.933   2.602  11.002 -0.1944 -0.5516 -1.1849
 8607TIP3   OH247311   3.687   0.892  14.188 -0.4764 -0.8975  0.4395
 8607TIP3    H147312   3.638   0.919  14.266 -0.4953 -1.2155  0.5372
 8607TIP3    H247313   3.642   0.935  14.116  0.3206  0.4581  0.7276
 8608TIP3   OH247314   6.700   1.133  13.661  0.2777  0.1471  0.0500
 8608TIP3    H147315   6.639   1.135  13.735 -0.7907  2.4088 -0.8296
 8608TIP3    H247316   6.726   1.042  13.654 -1.4752 -0.5230  1.7165
 8609TIP3   OH247317   3.717   3.664  14.674 -0.8553 -0.1281 -0.1924
 8609TIP3    H147318   3.780   3.657  14.602  0.8534  0.0616  1.2551
 8609TIP3    H247319   3.721   3.580  14.718 -0.6067  0.3493  0.7110
 8610TIP3   OH247320   4.945   0.596  12.729 -0.0982 -0.0221 -0.2237
 8610TIP3    H147321   4.983   0.549  12.655  0.6236  1.4511 -0.7864
 8610TIP3    H247322   4.852   0.603  12.707 -0.2717 -1.4172 -0.0064
 8611TIP3   OH247323   1.273   2.262   2.510  0.2105 -0.3610 -0.1312
 8611TIP3    H147324   1.237   2.251   2.422  1.6828  0.2473 -0.8292
 8611TIP3    H247325   1.279   2.356   2.521 -0.7406 -0.4225  0.9596
 8612TIP3   OH247326   0.294   2.279  13.170  0.5423 -0.2396  0.5638
 8612TIP3    H147327   0.389   2.279  13.183  0.6234  1.0401  0.0091
 8612TIP3    H247328   0.265   2.364  13.204 -0.3955 -0.5767  0.6232
 8613TIP3   OH247329   5.532   2.952  16.929  0.9342 -0.2186 -0.2210
 8613TIP3    H147330   5.548   2.874  16.981 -0.0844 -0.3576 -0.1078
 8613TIP3    H247331   5.462   2.927  16.868  0.9084  0.4672 -0.4829
 8614TIP3   OH247332   1.075   6.621  12.268 -0.5285  0.0767 -0.3191
 8614TIP3    H147333   1.095   6.541  12.219  0.3852  1.4639 -2.2789
 8614TIP3    H247334   1.040   6.681  12.203 -1.8421  1.0717  1.2578
 8615TIP3   OH247335   6.604   2.592  15.371 -0.4392  0.1361 -0.1083
 8615TIP3    H147336   6.653   2.526  15.322  1.2158  1.4757 -0.3154
 8615TIP3    H247337   6.558   2.642  15.304  0.0859  0.5972 -0.1242
 8616TIP3   OH247338   1.926   5.143   0.597 -0.6529  0.6423  0.1028
 8616TIP3    H147339   1.890   5.144   0.508 -3.0686 -2.0380  0.9824
 8616TIP3    H247340   2.021   5.138   0.585 -0.9808 -0.2542 -2.3159
 8617TIP3   OH247341   2.412   1.811  15.713 -0.1540 -0.4147  0.3043
 8617TIP3    H147342   2.393   1.879  15.777 -0.9461  0.0676 -0.4307
 8617TIP3    H247343   2.442   1.859  15.635 -0.1672 -0.9381 -0.0272
 8618TIP3   OH247344   0.947   4.911   3.069  0.3111  0.6300  0.1392
 8618TIP3    H147345   0.974   4.988   3.119 -1.0376  0.2847  1.4221
 8618TIP3    H247346   0.939   4.841   3.134 -1.3106  0.1388 -0.5719
 8619TIP3   OH247347   6.232   3.959  16.153  0.5630  0.3718 -0.3094
 8619TIP3    H147348   6.253   3.870  16.127 -2.7316  0.3459 -3.0704
 8619TIP3    H247349   6.236   3.957  16.249  1.2294 -2.5142 -0.3523
 8620TIP3   OH247350   4.823   1.285   5.298  0.4688  0.3427 -0.2092
 8620TIP3    H147351   4.867   1.298   5.215  1.7773  1.6008  0.6622
 8620TIP3    H247352   4.868   1.211   5.339  1.7287  1.5729  0.6433
 8621TIP3   OH247353   0.728   1.153  14.733 -0.0173 -0.1542 -0.3507
 8621TIP3    H147354   0.690   1.067  14.712 -1.3280  0.3440 -0.0674
 8621TIP3    H247355   0.690   1.212  14.668  0.7206  0.2520 -0.4155
 8622TIP3   OH247356   3.421   5.184   3.481 -0.0815  0.1664  0.1418
 8622TIP3    H147357   3.492   5.150   3.535  0.5693  0.5462 -0.4661
 8622TIP3    H247358   3.367   5.235   3.542  0.8845  0.9492  0.3564
 8623TIP3   OH247359   4.730   4.844   4.342  0.1052 -0.2656 -0.6508
 8623TIP3    H147360   4.790   4.901   4.389 -0.8818 -0.0782  0.4133
 8623TIP3    H247361   4.785   4.796   4.280  1.5001 -0.7552  0.9158
 8624TIP3   OH247362   3.943   1.588   2.864 -0.3630 -0.5316  0.0993
 8624TIP3    H147363   3.951   1.627   2.951  0.0250 -0.1996 -0.0801
 8624TIP3    H247364   3.856   1.611   2.834  1.0611  3.1879 -1.4264
 8625TIP3   OH247365   2.878   1.879  13.617  0.0353 -0.3946  0.2332
 8625TIP3    H147366   2.826   1.799  13.611 -0.0959 -0.3003  0.0933
 8625TIP3    H247367   2.834   1.941  13.559  0.1585 -0.2335  0.3081
 8626TIP3   OH247368   3.336   2.544   5.967 -0.4157  0.0564  0.3805
 8626TIP3    H147369   3.341   2.619   6.026 -0.7474 -0.5034  1.1242
 8626TIP3    H247370   3.272   2.571   5.901  0.4012  0.9198 -0.0756
 8627TIP3   OH247371   4.153   0.236  15.256 -0.0764  0.5199 -0.2696
 8627TIP3    H147372   4.238   0.278  15.241 -0.0883  0.7149  0.1871
 8627TIP3    H247373   4.173   0.142  15.261  0.1804  0.6023  0.2899
 8628TIP3   OH247374   1.066   6.716   1.651 -0.4942  0.0141 -0.1165
 8628TIP3    H147375   1.096   6.702   1.740 -0.6332 -0.6279 -0.1694
 8628TIP3    H247376   0.970   6.712   1.656 -0.5448  0.9683 -0.1315
 8629TIP3   OH247377   3.342   6.001   4.017  0.0786  0.0421 -0.0283
 8629TIP3    H147378   3.365   5.992   4.110  1.6712 -2.6409 -0.6159
 8629TIP3    H247379   3.268   5.941   4.005  2.4347 -2.7208 -1.2855
 8630TIP3   OH247380   5.987   4.621   3.057  0.1565 -0.2060 -0.8530
 8630TIP3    H147381   5.925   4.581   3.118 -1.1575  1.3250 -1.1384
 8630TIP3    H247382   6.030   4.547   3.015 -0.0756 -1.2929  0.7592
 8631TIP3   OH247383   4.535   4.471  15.686 -0.3719  0.0780 -0.4969
 8631TIP3    H147384   4.554   4.412  15.613 -1.0123  0.4778 -0.9855
 8631TIP3    H247385   4.607   4.456  15.748 -1.1229 -2.0647 -0.0871
 8632TIP3   OH247386   4.581   2.645   2.973  0.1721  0.2245  0.0765
 8632TIP3    H147387   4.627   2.727   2.954 -0.1538  0.5437  0.6620
 8632TIP3    H247388   4.651   2.587   3.004  0.5046  0.0808 -0.9194
 8633TIP3   OH247389   1.563   6.642  14.655  0.2629 -0.3306 -0.0077
 8633TIP3    H147390   1.486   6.689  14.688  0.7224  0.3328  0.1406
 8633TIP3    H247391   1.628   6.711  14.642  0.9093 -0.9235  0.1028
 8634TIP3   OH247392   4.085   2.921  14.706 -0.3345 -0.1059 -0.3203
 8634TIP3    H147393   4.099   2.988  14.772  1.5708 -2.2607  1.5825
 8634TIP3    H247394   4.148   2.942  14.637  1.4103 -0.8286  1.0205
 8635TIP3   OH247395   2.153   6.735  16.525  0.7765 -0.2782 -0.2278
 8635TIP3    H147396   2.172   6.810  16.468 -0.8887  0.5296  0.2468
 8635TIP3    H247397   2.089   6.684  16.475  0.0582 -0.0862  0.4931
 8636TIP3   OH247398   0.785   3.302  10.688 -0.8857 -0.0330  0.0833
 8636TIP3    H147399   0.799   3.383  10.639 -0.7878 -0.1394 -0.0644
 8636TIP3    H247400   0.715   3.322  10.750 -2.4484 -0.5066 -1.4987
 8637TIP3   OH247401   0.089   1.593   1.625  0.2055  0.0860  0.6721
 8637TIP3    H147402   0.158   1.533   1.595 -0.0893  0.2725 -0.4129
 8637TIP3    H247403   0.023   1.537   1.664 -0.6344 -0.4381 -1.4311
 8638TIP3   OH247404   2.475   4.813  13.092  0.0698 -0.2808 -0.8312
 8638TIP3    H147405   2.544   4.877  13.111  0.9087 -1.4206  0.0285
 8638TIP3    H247406   2.397   4.851  13.131  0.5622  0.2325 -0.3238
 8639TIP3   OH247407   3.388   3.730   5.640  0.5800  0.1523  0.0830
 8639TIP3    H147408   3.374   3.715   5.733 -0.6512 -0.7436 -0.2352
 8639TIP3    H247409   3.452   3.664   5.613  0.2517 -0.1729  0.1030
 8640TIP3   OH247410   0.583   3.244   1.857  0.3311 -0.4207 -0.3843
 8640TIP3    H147411   0.531   3.206   1.786  0.3703 -1.5589  0.1848
 8640TIP3    H247412   0.520   3.259   1.928  0.5086 -0.4274 -0.2238
 8641TIP3   OH247413   1.929   4.385  15.983 -0.3002  0.6911  0.0449
 8641TIP3    H147414   1.988   4.415  15.913  0.7545 -0.5686  0.3890
 8641TIP3    H247415   1.888   4.466  16.014  2.5629  1.8722  1.0060
 8642TIP3   OH247416   5.934   2.944  17.205  0.6213 -0.6025 -0.2365
 8642TIP3    H147417   5.916   2.906  17.291  0.6733 -3.9071 -1.6028
 8642TIP3    H247418   5.867   3.011  17.194  0.7951  0.0842  2.4642
 8643TIP3   OH247419   2.328   3.057  11.655  0.0617  0.3617  0.5031
 8643TIP3    H147420   2.414   3.021  11.634 -0.2810  0.5077 -1.1859
 8643TIP3    H247421   2.345   3.148  11.676  0.2294  0.5831 -0.5700
 8644TIP3   OH247422   2.194   5.905   1.308  0.0820  0.6301  0.0288
 8644TIP3    H147423   2.278   5.919   1.352  0.9805 -1.1004 -1.0894
 8644TIP3    H247424   2.129   5.939   1.370  1.4312 -0.2006  1.9614
 8645TIP3   OH247425   1.038   6.675   5.541  0.7827 -0.1862 -0.2337
 8645TIP3    H147426   1.105   6.739   5.518  0.1058  1.4710  2.2822
 8645TIP3    H247427   1.057   6.652   5.632  0.6178 -3.1099 -0.8802
 8646TIP3   OH247428   2.371   6.340   2.542  0.0939  0.0048  0.0536
 8646TIP3    H147429   2.348   6.354   2.450  0.6315 -0.7311 -0.1981
 8646TIP3    H247430   2.448   6.283   2.539  0.5350  0.5375  0.9424
 8647TIP3   OH247431   5.083   3.252  11.812  0.8180  0.3283 -0.1962
 8647TIP3    H147432   5.047   3.163  11.803 -0.0823  0.5460  1.0047
 8647TIP3    H247433   5.015   3.308  11.774  0.6273  0.6222  0.5768
 8648TIP3   OH247434   2.381   4.873  15.807  0.5185  0.1634 -0.3560
 8648TIP3    H147435   2.322   4.803  15.779  1.5100 -0.1816 -1.6555
 8648TIP3    H247436   2.456   4.866  15.748  2.0518  0.3317  1.5199
 8649TIP3   OH247437   5.574   5.840   1.745 -0.4562 -0.3471  0.0857
 8649TIP3    H147438   5.507   5.898   1.782 -0.6674 -0.8777  0.5444
 8649TIP3    H247439   5.656   5.888   1.756 -0.6684 -0.0070  0.1880
 8650TIP3   OH247440   6.588   5.276   0.920  0.4230  0.1137 -0.1194
 8650TIP3    H147441   6.504   5.246   0.885  0.5815 -0.4306 -0.0306
 8650TIP3    H247442   6.579   5.268   1.015  0.0346  1.4948 -0.0254
 8651TIP3   OH247443   1.515   0.110   2.136  0.9762 -0.4175  0.4095
 8651TIP3    H147444   1.485   0.061   2.213 -2.1939  0.2935 -0.3066
 8651TIP3    H247445   1.510   0.202   2.162  1.3877 -0.2305 -0.1553
 8652TIP3   OH247446   2.042   6.545  10.928  0.4626 -0.2936 -0.1413
 8652TIP3    H147447   2.048   6.638  10.949  0.6283 -0.2992 -0.1696
 8652TIP3    H247448   1.948   6.525  10.936  0.7177 -0.6853  2.2036
 8653TIP3   OH247449   0.437   3.761  14.773 -0.5979  0.3058  0.2673
 8653TIP3    H147450   0.383   3.697  14.818 -0.9705  1.1737  1.0500
 8653TIP3    H247451   0.430   3.736  14.680 -2.8729  0.8113  0.2797
 8654TIP3   OH247452   2.089   1.217   2.842  0.1428 -0.3572  0.3515
 8654TIP3    H147453   2.040   1.204   2.923 -0.1619  1.0569  0.4034
 8654TIP3    H247454   2.045   1.162   2.778  0.5648 -1.7148  1.2037
 8655TIP3   OH247455   0.889   6.531  16.377  0.3026 -0.6910 -0.1696
 8655TIP3    H147456   0.847   6.465  16.432  1.2413 -0.1760  1.1904
 8655TIP3    H247457   0.981   6.502  16.372  0.3981 -0.2931 -0.8076
 8656TIP3   OH247458   2.576   5.619   2.469 -0.3546  0.5157  0.1609
 8656TIP3    H147459   2.648   5.609   2.407 -0.4199  1.8789 -0.1504
 8656TIP3    H247460   2.497   5.615   2.415 -0.3747  2.7818  0.0051
 8657TIP3   OH247461   3.230   0.993  13.263  0.1302 -0.5031  0.1794
 8657TIP3    H147462   3.257   1.019  13.351  1.3465 -0.8474 -0.0763
 8657TIP3    H247463   3.272   1.058  13.206  0.8659 -1.3566 -0.2679
 8658TIP3   OH247464   2.161   5.563  12.444 -0.4395  0.1136  0.7474
 8658TIP3    H147465   2.135   5.537  12.356 -3.7588  0.3036  1.6239
 8658TIP3    H247466   2.236   5.622  12.431 -1.5720  1.0071 -1.9957
 8659TIP3   OH247467   5.300   1.342   2.303 -0.0240  0.4391 -0.1573
 8659TIP3    H147468   5.265   1.322   2.217  1.5116 -0.0454 -0.6694
 8659TIP3    H247469   5.264   1.274   2.360  1.4209 -1.0272 -0.9944
 8660TIP3   OH247470   4.058   6.147  10.052  0.1061 -0.1701  0.1148
 8660TIP3    H147471   4.015   6.231  10.068 -1.1602 -0.5220 -1.3526
 8660TIP3    H247472   4.027   6.090  10.122 -1.7509 -0.3675 -0.8175
 8661TIP3   OH247473   1.633   0.994  17.212  0.2292  0.1598 -0.3622
 8661TIP3    H147474   1.666   0.905  17.202  0.9826  0.3977 -0.0621
 8661TIP3    H247475   1.679   1.044  17.145  0.9028  0.6048  0.4160
 8662TIP3   OH247476   3.962   4.146   0.983  0.1536 -0.1403  0.2502
 8662TIP3    H147477   3.968   4.089   1.059  3.0532 -1.8279 -1.1750
 8662TIP3    H247478   4.016   4.222   1.005  1.8088 -1.0922 -0.5048
 8663TIP3   OH247479   1.357   5.655  14.041 -0.3626 -0.0525 -0.0325
 8663TIP3    H147480   1.449   5.640  14.063 -0.8188  0.1501  2.0619
 8663TIP3    H247481   1.360   5.726  13.976  0.8189  2.2398  2.4029
 8664TIP3   OH247482   0.990   1.978  15.811 -0.4768  0.4912  0.4095
 8664TIP3    H147483   0.908   1.969  15.763 -1.1818  1.2472  1.4467
 8664TIP3    H247484   1.000   1.895  15.857 -0.4469  0.2442 -0.0417
 8665TIP3   OH247485   0.053   6.228   4.978 -0.0117  0.0385 -0.1680
 8665TIP3    H147486   0.117   6.298   4.970  0.9806 -0.7346  0.8166
 8665TIP3    H247487   0.099   6.158   5.025 -1.0430 -1.1897 -0.9497
 8666TIP3   OH247488   6.756   3.834  16.277 -0.0162  0.0054 -0.3859
 8666TIP3    H147489   6.683   3.820  16.337 -0.3351 -0.8890 -0.9607
 8666TIP3    H247490   6.835   3.826  16.331 -0.3325  0.3527  0.1215
 8667TIP3   OH247491   6.530   0.817  14.129  0.1376  0.1218 -0.0152
 8667TIP3    H147492   6.453   0.765  14.152 -0.3025 -0.3219 -2.3299
 8667TIP3    H247493   6.570   0.769  14.056  2.3302  0.6227  0.8297
 8668TIP3   OH247494   5.477   6.440   4.174 -0.1052  0.3062 -0.2212
 8668TIP3    H147495   5.435   6.354   4.161  0.9452 -0.1806 -0.4355
 8668TIP3    H247496   5.568   6.419   4.194 -0.0692  1.3448  0.7291
 8669TIP3   OH247497   0.523   4.338  15.907  0.3344 -0.4734  0.2701
 8669TIP3    H147498   0.450   4.339  15.845  0.9935 -0.9556 -0.5244
 8669TIP3    H247499   0.489   4.382  15.985 -0.7929 -0.6562 -0.1052
 8670TIP3   OH247500   6.459   3.084   5.137 -0.3169  0.1192  0.4393
 8670TIP3    H147501   6.476   3.167   5.182 -0.3515 -0.2743  1.1927
 8670TIP3    H247502   6.524   3.024   5.174  0.4985  0.1039 -0.9703
 8671TIP3   OH247503   5.549   6.236   5.115  0.2086  0.0726  0.2287
 8671TIP3    H147504   5.636   6.261   5.084 -0.8124  2.8765 -0.5251
 8671TIP3    H247505   5.543   6.273   5.203 -0.8273  1.3875 -0.3767
 8672TIP3   OH247506   0.054   2.956   5.832  0.6440  0.2961 -1.0612
 8672TIP3    H147507   0.008   2.980   5.912  1.7752 -0.8652 -0.0475
 8672TIP3    H247508   0.022   3.019   5.767 -1.8676 -0.0798 -0.2414
 8673TIP3   OH247509   1.458   3.258  17.127 -0.2771 -0.0585 -0.5145
 8673TIP3    H147510   1.398   3.203  17.178  1.0922 -2.0869 -1.0085
 8673TIP3    H247511   1.419   3.261  17.040 -2.7345  3.5918  0.6106
 8674TIP3   OH247512   3.589   6.406  17.101  0.2711  0.5254  0.6261
 8674TIP3    H147513   3.564   6.495  17.076  0.4084  0.0790 -1.2018
 8674TIP3    H247514   3.625   6.415  17.189  3.2306  2.8431 -0.7146
 8675TIP3   OH247515   5.964   2.277   0.321  0.1526  0.5567  0.1481
 8675TIP3    H147516   6.013   2.352   0.355  0.3312  0.7207 -0.4608
 8675TIP3    H247517   5.984   2.206   0.381  1.8201  0.4000 -0.5508
 8676TIP3   OH247518   1.590   3.658   2.709 -0.1895  0.3844  0.0212
 8676TIP3    H147519   1.598   3.729   2.773  1.7739 -0.8987  1.2451
 8676TIP3    H247520   1.552   3.585   2.758 -0.1408 -0.1280 -0.6880
 8677TIP3   OH247521   2.417   4.485   5.601  0.0892  0.4589 -0.6789
 8677TIP3    H147522   2.330   4.499   5.564  0.1973 -0.1683 -1.1805
 8677TIP3    H247523   2.416   4.532   5.684 -0.9521 -0.1129 -0.3644
 8678TIP3   OH247524   0.483   1.733   2.924  0.0345  0.4827 -0.0522
 8678TIP3    H147525   0.390   1.756   2.916 -0.1900  0.7846  2.9547
 8678TIP3    H247526   0.483   1.638   2.935 -0.0158  0.5974  1.0013
 8679TIP3   OH247527   2.204   6.063   3.356  0.3073  0.6906  0.2112
 8679TIP3    H147528   2.153   6.095   3.281  1.3794  0.1280 -0.7818
 8679TIP3    H247529   2.293   6.093   3.337  0.4019  1.4696  1.8095
 8680TIP3   OH247530   2.178   0.495  11.934 -0.6081 -0.2759 -0.1282
 8680TIP3    H147531   2.218   0.519  11.850  0.0862 -0.6243  0.1080
 8680TIP3    H247532   2.086   0.519  11.923 -0.7728 -1.3994 -1.4236
 8681TIP3   OH247533   5.997   0.852  11.573  0.0661  0.2500  0.1966
 8681TIP3    H147534   5.956   0.918  11.518 -0.7769 -0.7384 -0.3709
 8681TIP3    H247535   6.057   0.806  11.516  0.9538  0.7890  0.6908
 8682TIP3   OH247536   4.092   2.695   0.401 -0.6196 -0.2003 -0.6018
 8682TIP3    H147537   4.089   2.651   0.316 -0.6378 -0.7295 -0.3239
 8682TIP3    H247538   4.000   2.706   0.425 -0.6259  0.3552 -0.8556
 8683TIP3   OH247539   5.145   5.812  10.931  0.2793 -0.0221 -0.3157
 8683TIP3    H147540   5.161   5.898  10.890  0.1801 -0.2086 -0.7488
 8683TIP3    H247541   5.233   5.775  10.941  0.3972  0.5180  0.7317
 8684TIP3   OH247542   3.468   1.822  12.150  0.4342  0.8677  0.5329
 8684TIP3    H147543   3.509   1.767  12.082 -1.5666 -0.0370  0.0296
 8684TIP3    H247544   3.395   1.865  12.106  0.7725  2.4044  1.4446
 8685TIP3   OH247545   2.601   4.889  13.699 -0.5071 -0.4438  0.0587
 8685TIP3    H147546   2.661   4.838  13.753  0.8333 -0.3812 -1.3574
 8685TIP3    H247547   2.655   4.959  13.663 -1.6756  0.2316 -0.3884
 8686TIP3   OH247548   4.437   3.930  12.686  0.7521  0.2599 -0.1560
 8686TIP3    H147549   4.356   3.949  12.734  0.5135  0.4995 -0.6519
 8686TIP3    H247550   4.421   3.845  12.646  0.1509  1.0059 -1.5222
 8687TIP3   OH247551   3.151   2.964  11.353  0.6514  0.1808 -0.7765
 8687TIP3    H147552   3.210   2.982  11.279  0.1212  2.7220 -0.6299
 8687TIP3    H247553   3.093   3.040  11.355 -0.6953 -0.8838  0.9548
 8688TIP3   OH247554   5.070   0.046  14.817  0.0571 -0.1016 -0.4157
 8688TIP3    H147555   5.069   0.051  14.721 -0.5466  2.2583 -0.3088
 8688TIP3    H247556   5.153   0.088  14.841 -1.0345  1.7001  0.2057
 8689TIP3   OH247557   1.006   4.043   4.558 -0.2825 -0.1099  0.3146
 8689TIP3    H147558   0.990   3.949   4.572 -0.4338  0.2391  2.7353
 8689TIP3    H247559   0.931   4.086   4.599  1.2049  1.1549  1.7734
 8690TIP3   OH247560   0.214   3.376  10.831 -0.6472  0.0985  0.5498
 8690TIP3    H147561   0.227   3.371  10.736  0.9212 -0.9688  0.7822
 8690TIP3    H247562   0.293   3.420  10.863  1.4713 -4.3320  1.8317
 8691TIP3   OH247563   4.629   3.900  10.293 -0.1211  0.0488  0.0704
 8691TIP3    H147564   4.668   3.826  10.248 -1.5053 -0.1386 -0.8412
 8691TIP3    H247565   4.691   3.972  10.279  0.7241 -0.6725  0.1009
 8692TIP3   OH247566   0.507   4.442  15.390 -0.2570  0.0321  0.2141
 8692TIP3    H147567   0.480   4.461  15.300 -3.1286 -0.2998  0.9382
 8692TIP3    H247568   0.454   4.366  15.415  1.6415 -0.8294  1.6714
 8693TIP3   OH247569   1.892   6.060  10.782 -0.1053  0.2277 -0.4287
 8693TIP3    H147570   1.962   6.107  10.734 -0.5423  0.7243 -0.5878
 8693TIP3    H247571   1.904   5.969  10.758  2.5909 -0.1821  2.1656
 8694TIP3   OH247572   3.999   5.988   5.411 -0.4862  0.1240 -0.2340
 8694TIP3    H147573   4.022   6.043   5.486  1.4137  0.6770 -1.1868
 8694TIP3    H247574   3.965   5.907   5.449  0.4443  0.4129  1.2178
 8695TIP3   OH247575   5.517   2.403  13.382  0.2845  0.0461 -0.0496
 8695TIP3    H147576   5.497   2.311  13.365  2.0281  0.1108 -2.7960
 8695TIP3    H247577   5.465   2.426  13.459 -1.5874 -2.7265 -0.4403
 8696TIP3   OH247578   6.135   4.475   5.499  0.5198 -0.7025  0.0373
 8696TIP3    H147579   6.151   4.417   5.424  1.8323  0.0837 -0.3151
 8696TIP3    H247580   6.219   4.518   5.514  0.4638 -1.3807  2.4379
 8697TIP3   OH247581   2.276   0.346  10.514  0.5444  0.3883  0.1238
 8697TIP3    H147582   2.371   0.357  10.526  0.9822 -0.3518 -2.2873
 8697TIP3    H247583   2.252   0.277  10.575  1.5647  0.6082  0.7900
 8698TIP3   OH247584   1.235   5.877   6.362  0.0049 -0.2674 -0.1315
 8698TIP3    H147585   1.190   5.807   6.314 -1.2314  2.2306 -2.7365
 8698TIP3    H247586   1.174   5.902   6.431  0.1270 -1.1990  0.3238
 8699TIP3   OH247587   4.174   1.392   5.775  0.2765 -0.3950 -0.1273
 8699TIP3    H147588   4.173   1.358   5.864 -0.2636 -1.4812 -0.5436
 8699TIP3    H247589   4.247   1.347   5.733  0.2821 -0.1767 -0.3520
 8700TIP3   OH247590   6.449   1.975  13.275  0.3297  0.1369 -0.3463
 8700TIP3    H147591   6.475   1.983  13.367  1.0875  1.3496 -0.6657
 8700TIP3    H247592   6.413   2.061  13.253  0.7803  0.0602 -1.3856
 8701TIP3   OH247593   5.154   0.757  15.473  0.3185  0.0279  0.7159
 8701TIP3    H147594   5.182   0.772  15.383 -2.8267  0.4075 -0.2534
 8701TIP3    H247595   5.074   0.809  15.483  0.2823 -0.4540  3.5524
 8702TIP3   OH247596   0.850   2.649   1.823  0.6114 -0.2425  0.1167
 8702TIP3    H147597   0.931   2.603   1.799 -0.3202 -0.7686 -2.1785
 8702TIP3    H247598   0.863   2.673   1.915  2.8147 -1.4899  0.1887
 8703TIP3   OH247599   1.331   6.077   1.157  0.7527  0.4342 -0.2258
 8703TIP3    H147600   1.405   6.017   1.158  0.2946 -0.1581 -1.6312
 8703TIP3    H247601   1.275   6.047   1.086 -0.9215  0.8026  0.8874
 8704TIP3   OH247602   2.955   0.125   3.795 -0.6227  0.5235 -0.3304
 8704TIP3    H147603   2.936   0.215   3.766 -2.0133 -0.0847 -1.3727
 8704TIP3    H247604   2.869   0.083   3.798  0.2923 -1.5773 -2.5434
 8705TIP3   OH247605   5.112   5.774   5.803 -0.1566  0.2623 -0.5547
 8705TIP3    H147606   5.202   5.758   5.775 -0.5427 -0.5774 -1.3199
 8705TIP3    H247607   5.092   5.862   5.770 -0.6674 -0.7691 -3.0926
 8706TIP3   OH247608   1.669   3.222   0.144  0.5594 -0.9276  0.1637
 8706TIP3    H147609   1.628   3.267   0.219 -3.5107 -1.4004 -1.6561
 8706TIP3    H247610   1.646   3.130   0.156  2.0658 -1.3812 -0.3521
 8707TIP3   OH247611   5.684   3.779  16.650 -0.0075 -0.1919  0.1691
 8707TIP3    H147612   5.594   3.761  16.675 -0.8281  0.9678 -1.8685
 8707TIP3    H247613   5.689   3.874  16.641  0.1365 -0.5101 -4.2164
 8708TIP3   OH247614   3.104   4.022   6.001 -0.0703  0.7468 -0.3168
 8708TIP3    H147615   3.193   4.055   5.999  0.1996 -0.0199 -1.4599
 8708TIP3    H247616   3.111   3.931   5.970 -0.9550  0.0102  1.5308
 8709TIP3   OH247617   5.920   3.512   2.960  0.1396 -0.0402 -0.6289
 8709TIP3    H147618   5.842   3.473   2.919 -0.8367  0.5637  0.6419
 8709TIP3    H247619   5.939   3.589   2.907 -2.3650  1.9311  1.2061
 8710TIP3   OH247620   4.863   3.737   5.698 -0.2362 -0.3883 -0.8694
 8710TIP3    H147621   4.942   3.792   5.704  0.2421 -1.2589  1.3278
 8710TIP3    H247622   4.793   3.791   5.733  0.1033 -0.9157  0.6475
 8711TIP3   OH247623   6.660   2.017   6.323 -0.3117 -0.0984 -0.4499
 8711TIP3    H147624   6.611   1.946   6.283  1.6309 -1.4357 -0.4939
 8711TIP3    H247625   6.605   2.046   6.396 -1.4573 -1.1362 -0.8862
 8712TIP3   OH247626   4.220   5.684  14.896  0.2151  0.5165  0.1159
 8712TIP3    H147627   4.243   5.773  14.868  1.5170  1.0098  2.6458
 8712TIP3    H247628   4.181   5.695  14.982 -0.7463 -1.2747 -0.0649
 8713TIP3   OH247629   0.580   3.381  14.695  0.5546  0.2696 -0.5581
 8713TIP3    H147630   0.568   3.424  14.780 -1.2510  0.7637 -1.0415
 8713TIP3    H247631   0.675   3.367  14.689  0.9478  2.2085  0.5787
 8714TIP3   OH247632   2.422   3.114   4.278 -0.8086 -0.1451  0.1945
 8714TIP3    H147633   2.442   3.199   4.317 -0.7527 -0.2719  0.4425
 8714TIP3    H247634   2.367   3.070   4.343 -1.0646 -0.1906 -0.0519
 8715TIP3   OH247635   2.044   0.752  10.888 -0.4381 -0.2210 -0.0419
 8715TIP3    H147636   1.991   0.724  10.813 -1.3476  1.2079  0.0458
 8715TIP3    H247637   2.128   0.706  10.877 -0.3310  0.4527 -2.2897
 8716TIP3   OH247638   5.967   6.352   6.553 -0.7648 -0.1081  1.0097
 8716TIP3    H147639   5.943   6.427   6.498 -0.0091 -0.8385 -0.3437
 8716TIP3    H247640   5.980   6.389   6.640 -1.6076  1.1342  0.6104
 8717TIP3   OH247641   3.439   5.498   0.429  0.1465  0.2010 -0.0198
 8717TIP3    H147642   3.483   5.549   0.361  1.3346  0.9390  1.2723
 8717TIP3    H247643   3.423   5.413   0.389  1.9462  0.2266 -0.8196
 8718TIP3   OH247644   1.526   1.640   2.173  0.2139 -0.0125 -0.1183
 8718TIP3    H147645   1.455   1.582   2.148  1.3858 -0.2324 -3.0703
 8718TIP3    H247646   1.581   1.587   2.231  0.9157 -1.6926 -2.2662
 8719TIP3   OH247647   4.593   0.015  16.471  0.7846  0.9038 -0.0556
 8719TIP3    H147648   4.515  -0.031  16.441  0.9875 -0.1871  1.0248
 8719TIP3    H247649   4.664  -0.021  16.417  0.8847  0.1884  0.5364
 8720TIP3   OH247650   1.823   0.855   3.029  0.5095 -0.5256 -0.3494
 8720TIP3    H147651   1.767   0.874   2.954 -0.4585  0.3100  0.5720
 8720TIP3    H247652   1.784   0.778   3.069 -0.6926  0.7314  0.9612
 8721TIP3   OH247653   2.535   1.878  10.710  0.4809  0.0790 -0.0760
 8721TIP3    H147654   2.480   1.822  10.765  0.0605 -0.1428 -0.7132
 8721TIP3    H247655   2.595   1.921  10.772  0.1166 -0.2782  0.5348
 8722TIP3   OH247656   0.850   2.838   6.536  0.1578 -0.7854 -0.0412
 8722TIP3    H147657   0.823   2.926   6.562  0.8753 -0.4788 -0.3101
 8722TIP3    H247658   0.787   2.780   6.577  0.5684 -0.2375  1.3796
 8723TIP3   OH247659   0.085   6.529   1.431 -0.6478  0.0691 -0.0124
 8723TIP3    H147660   0.012   6.552   1.374 -0.1034 -0.2750 -0.8689
 8723TIP3    H247661   0.128   6.456   1.386  1.4591  1.6292 -0.6104
 8724TIP3   OH247662   2.874   4.025  13.834 -0.2833 -0.2022 -0.4185
 8724TIP3    H147663   2.861   4.115  13.802  0.5156 -0.0144 -0.2257
 8724TIP3    H247664   2.802   3.975  13.795 -1.7485  0.8707  0.8567
 8725TIP3   OH247665   0.800   1.319  16.689  0.1102  0.0436 -0.2334
 8725TIP3    H147666   0.806   1.403  16.642 -0.1568  0.2729  0.1365
 8725TIP3    H247667   0.718   1.325  16.737 -0.9136 -1.2567 -1.7723
 8726TIP3   OH247668   0.233   3.276  15.774  0.3165 -0.1739 -0.0143
 8726TIP3    H147669   0.273   3.261  15.688  0.5002  0.6369 -0.0722
 8726TIP3    H247670   0.223   3.188  15.811 -2.0265 -0.7447 -1.8582
 8727TIP3   OH247671   3.711   1.357  16.341 -0.4558 -0.1748  0.9907
 8727TIP3    H147672   3.719   1.447  16.373  0.1699 -0.1773  0.8340
 8727TIP3    H247673   3.783   1.346  16.279 -1.1377 -0.4581  0.2348
 8728TIP3   OH247674   5.189   1.669  13.242 -0.5918  0.1088  0.0005
 8728TIP3    H147675   5.174   1.670  13.147 -1.0084  1.1045  0.0620
 8728TIP3    H247676   5.108   1.706  13.279 -0.4184 -0.2438  0.7375
 8729TIP3   OH247677   2.746   0.043  11.328 -0.1783  0.4011  0.6974
 8729TIP3    H147678   2.683  -0.026  11.309 -0.8950  1.1717  0.3046
 8729TIP3    H247679   2.785   0.065  11.243 -1.2790  1.7774  0.5379
 8730TIP3   OH247680   3.566   2.420  13.523 -0.0342 -0.3829 -0.5025
 8730TIP3    H147681   3.587   2.378  13.439 -0.7716  0.6111 -1.2100
 8730TIP3    H247682   3.565   2.514  13.502 -0.9679 -0.1787  0.4469
 8731TIP3   OH247683   4.335   3.450   0.908 -0.6728 -0.2224 -0.2850
 8731TIP3    H147684   4.281   3.411   0.840 -0.4435 -0.9739 -0.0382
 8731TIP3    H247685   4.353   3.378   0.969  1.0118 -0.0989 -0.6141
 8732TIP3   OH247686   4.423   4.268  15.014  0.1922  0.5037  0.0832
 8732TIP3    H147687   4.346   4.300  15.060 -0.9183 -1.2882 -0.4572
 8732TIP3    H247688   4.458   4.200  15.072  1.0311  0.9007  0.0514
 8733TIP3   OH247689   6.317   1.707   1.263 -0.2828  0.9170 -0.3863
 8733TIP3    H147690   6.236   1.755   1.281 -0.6779  0.7922 -1.7206
 8733TIP3    H247691   6.289   1.615   1.258  0.3012  0.6539  1.1940
 8734TIP3   OH247692   2.081   4.085   2.971  0.4762 -0.4028  0.1206
 8734TIP3    H147693   2.054   4.172   2.943  0.8371 -0.6076 -0.8760
 8734TIP3    H247694   2.107   4.097   3.062  2.5365  0.9800 -0.6055
 8735TIP3   OH247695   0.453   0.945   5.175  0.1790 -0.5338 -0.0873
 8735TIP3    H147696   0.382   0.925   5.115 -0.9108 -0.1264  1.0394
 8735TIP3    H247697   0.425   0.906   5.258  1.4973 -0.7882  0.2547
 8736TIP3   OH247698   3.951   1.177   1.882 -0.4401 -0.1168  0.5302
 8736TIP3    H147699   3.917   1.182   1.793 -0.9092 -0.9557  0.6502
 8736TIP3    H247700   3.878   1.141   1.933  0.2933 -0.9845  0.9792
 8737TIP3   OH247701   3.192   2.152   2.285 -0.2805  0.9283 -0.8680
 8737TIP3    H147702   3.184   2.128   2.377  0.8530  0.6083 -0.8443
 8737TIP3    H247703   3.141   2.233   2.277 -0.2998  1.0179  0.0652
 8738TIP3   OH247704   6.139   6.607  16.578  0.3948  0.0672 -0.0172
 8738TIP3    H147705   6.128   6.537  16.514  0.3050 -2.1176  2.2873
 8738TIP3    H247706   6.052   6.617  16.617  0.9436 -0.1790  1.2920
 8739TIP3   OH247707   1.706   4.354  15.192 -0.0520  0.1344 -0.2794
 8739TIP3    H147708   1.754   4.415  15.248 -2.5179  0.9631  0.9987
 8739TIP3    H247709   1.616   4.387  15.191 -0.6861 -1.4894 -2.4485
 8740TIP3   OH247710   3.693   3.539  14.220 -0.0649 -0.7943  0.3240
 8740TIP3    H147711   3.635   3.489  14.162 -0.3766 -0.2619  0.1668
 8740TIP3    H247712   3.739   3.599  14.161 -1.5071  0.8189  0.7955
 8741TIP3   OH247713   5.650   1.617  15.973 -0.2859  0.2148  0.2641
 8741TIP3    H147714   5.635   1.572  15.890  1.1371  0.3929 -0.1070
 8741TIP3    H247715   5.701   1.554  16.025 -2.2742 -0.4033  1.4994
 8742TIP3   OH247716   1.474   4.191  13.006  0.2653 -0.3687  0.4189
 8742TIP3    H147717   1.557   4.235  12.987  0.0530 -0.4345 -0.6861
 8742TIP3    H247718   1.458   4.137  12.929 -1.0866  0.0518  0.4039
 8743TIP3   OH247719   0.881   5.630   1.790 -0.0864  0.4845  0.2314
 8743TIP3    H147720   0.911   5.618   1.700 -0.2425 -0.2082  0.2677
 8743TIP3    H247721   0.947   5.687   1.830  0.5436 -0.0510 -0.0288
 8744TIP3   OH247722   2.045   4.088   4.239 -0.1660 -0.9971 -0.6497
 8744TIP3    H147723   1.968   4.112   4.290 -0.4123 -2.8717 -0.1020
 8744TIP3    H247724   2.010   4.041   4.164  0.2731  0.7398 -1.9827
 8745TIP3   OH247725   0.449   2.207   4.188 -0.0683 -0.5302 -0.0479
 8745TIP3    H147726   0.417   2.117   4.194 -0.2204 -0.4049  1.1293
 8745TIP3    H247727   0.378   2.255   4.145 -0.6709 -0.6574  0.7755
 8746TIP3   OH247728   2.891   2.754  13.048  0.1104 -0.1674 -0.3695
 8746TIP3    H147729   2.929   2.793  13.127 -2.4482  0.0477  0.8198
 8746TIP3    H247730   2.918   2.662  13.052 -1.1128 -0.4935  1.5490
 8747TIP3   OH247731   2.384   2.580  15.439  1.1610  0.3999  0.1480
 8747TIP3    H147732   2.441   2.528  15.383  0.5466  0.0252 -0.1326
 8747TIP3    H247733   2.405   2.671  15.417  2.2173  0.2831  0.6208
 8748TIP3   OH247734   0.312   0.406   4.134  0.3223 -0.3955 -0.0290
 8748TIP3    H147735   0.383   0.452   4.089  0.9280  1.3002  2.5712
 8748TIP3    H247736   0.243   0.471   4.143 -0.0669 -0.9272  0.8448
 8749TIP3   OH247737   3.193   4.447  13.684  0.0353  0.1458  0.8372
 8749TIP3    H147738   3.205   4.518  13.620  0.9719 -0.2702  0.5378
 8749TIP3    H247739   3.105   4.415  13.669 -0.7197  1.8140  1.5482
 8750TIP3   OH247740   1.842   1.185  16.308 -1.1623  0.3757  0.1794
 8750TIP3    H147741   1.815   1.257  16.365  0.5719 -0.6034  2.2987
 8750TIP3    H247742   1.915   1.219  16.257 -1.2040  0.5139  0.2137
 8751TIP3   OH247743   0.105   2.194  12.105  0.5037 -0.2859  0.3496
 8751TIP3    H147744   0.185   2.236  12.074 -0.4271  1.2025 -0.1217
 8751TIP3    H247745   0.093   2.227  12.195  0.7115 -0.9247  0.6114
 8752TIP3   OH247746   3.818   4.894   4.513  0.6224 -0.3033  0.5416
 8752TIP3    H147747   3.812   4.937   4.428  1.6288  0.2273  0.7359
 8752TIP3    H247748   3.849   4.962   4.573  0.9275 -0.9444  1.1213
 8753TIP3   OH247749   5.153   4.664  15.047  0.4864 -0.0291  0.1318
 8753TIP3    H147750   5.214   4.593  15.065 -0.9546 -1.3397 -0.0107
 8753TIP3    H247751   5.079   4.622  15.004 -0.4451  1.5490  0.1285
 8754TIP3   OH247752   6.004   5.605   5.268 -0.0433 -0.0582 -0.5346
 8754TIP3    H147753   5.971   5.689   5.299 -0.6185 -0.9012  1.2173
 8754TIP3    H247754   5.962   5.540   5.325  0.7656 -1.4957 -1.5399
 8755TIP3   OH247755   5.963   3.356  13.688  0.1046  0.1780  0.3504
 8755TIP3    H147756   5.909   3.288  13.648 -1.1167  1.2567  0.1394
 8755TIP3    H247757   6.014   3.393  13.616 -1.6757  1.7296 -0.1591
 8756TIP3   OH247758   0.268   5.888   4.208 -0.0129 -0.1206 -0.1687
 8756TIP3    H147759   0.304   5.810   4.251 -0.4625 -0.0628  0.3137
 8756TIP3    H247760   0.232   5.940   4.279 -0.0320  0.3625 -0.5315
 8757TIP3   OH247761   5.628   4.182   6.575  0.2837  0.1058  0.7593
 8757TIP3    H147762   5.657   4.272   6.586 -1.3831  1.0413 -1.9478
 8757TIP3    H247763   5.539   4.180   6.612 -0.8431  0.3822 -1.8313
 8758TIP3   OH247764   6.554   6.606  15.085 -0.1205 -0.6615 -0.6465
 8758TIP3    H147765   6.614   6.650  15.025  1.6084 -0.2578  1.2907
 8758TIP3    H247766   6.610   6.568  15.152 -1.9650 -1.1366  0.6944
 8759TIP3   OH247767   6.025   1.644   4.637 -0.2664  0.4617 -0.9050
 8759TIP3    H147768   5.965   1.651   4.711  0.7504 -0.6253  0.0471
 8759TIP3    H247769   6.031   1.550   4.619  1.6790  0.4759 -0.5012
 8760TIP3   OH247770   0.310   0.397  16.013  0.1130  0.1207  0.6892
 8760TIP3    H147771   0.375   0.350  16.065  1.7631  0.9983 -0.5265
 8760TIP3    H247772   0.324   0.489  16.035 -1.0492  0.2764  0.7817
 8761TIP3   OH247773   3.823   3.454  14.788 -0.5304 -0.5499  0.5566
 8761TIP3    H147774   3.821   3.359  14.781  0.1930 -0.5124 -0.1663
 8761TIP3    H247775   3.913   3.478  14.769 -0.9917  0.3839 -0.5023
 8762TIP3   OH247776   3.006   1.813  14.444  0.4214  0.1196 -0.2081
 8762TIP3    H147777   3.024   1.732  14.398 -2.1229 -2.0402  2.4190
 8762TIP3    H247778   3.092   1.853  14.457  1.4823 -0.8168 -3.7550
 8763TIP3   OH247779   5.515   0.471  13.105 -0.1289 -0.1736 -0.1422
 8763TIP3    H147780   5.548   0.522  13.031 -1.7593  0.8065 -0.2149
 8763TIP3    H247781   5.550   0.383  13.091  3.3401  1.0223  0.3600
 8764TIP3   OH247782   4.967   0.133  10.619  0.1222  0.1357 -0.2086
 8764TIP3    H147783   5.001   0.086  10.694 -0.5281 -0.8287 -0.5084
 8764TIP3    H247784   4.898   0.190  10.656 -1.3646 -1.5680 -0.2841
 8765TIP3   OH247785   6.399   5.995  16.743 -0.3003  0.3273  0.1379
 8765TIP3    H147786   6.464   6.028  16.680  0.4189  1.4154  1.4218
 8765TIP3    H247787   6.424   5.904  16.758 -1.4052 -0.4244 -2.3148
 8766TIP3   OH247788   3.096   0.209   2.075 -0.3175  0.3980 -0.4488
 8766TIP3    H147789   3.087   0.118   2.104  0.7981  0.0370 -1.1951
 8766TIP3    H247790   3.008   0.235   2.048 -1.0390  0.1648  1.5408
 8767TIP3   OH247791   4.926   3.436  14.739 -0.0320  0.3182 -0.0436
 8767TIP3    H147792   4.984   3.470  14.807  1.2740 -0.7087 -0.6067
 8767TIP3    H247793   4.985   3.416  14.666 -0.9178 -1.8656 -0.2089
 8768TIP3   OH247794   1.013   0.292  14.698  0.2153 -0.0059  0.2556
 8768TIP3    H147795   0.942   0.322  14.640 -0.6574 -2.6208 -0.0883
 8768TIP3    H247796   0.968   0.262  14.777  1.1034  0.0022  0.7632
 8769TIP3   OH247797   5.697   0.545   4.540 -0.1725 -0.1643  0.8898
 8769TIP3    H147798   5.723   0.519   4.452  1.9576  0.2594  1.3872
 8769TIP3    H247799   5.661   0.464   4.578 -1.3755 -0.2779 -0.4365
 8770TIP3   OH247800   3.350   5.397  12.406 -0.3137 -0.5426  0.3946
 8770TIP3    H147801   3.295   5.388  12.328  0.2673 -0.4290 -0.0340
 8770TIP3    H247802   3.436   5.421  12.372 -0.5119  1.4102  1.1924
 8771TIP3   OH247803   2.847   4.634  11.807 -0.5599 -0.1764 -0.3866
 8771TIP3    H147804   2.874   4.551  11.770  0.1554  0.3878 -1.1442
 8771TIP3    H247805   2.800   4.611  11.888  0.0979 -1.2749 -0.3208
 8772TIP3   OH247806   6.752   5.111  13.022  0.0717 -0.2791 -0.2104
 8772TIP3    H147807   6.780   5.030  12.979  0.6712  0.6168 -1.5290
 8772TIP3    H247808   6.831   5.164  13.027 -0.7298  1.0337 -1.2093
 8773TIP3   OH247809   4.042   5.280  14.077 -0.4141 -0.6339  0.4735
 8773TIP3    H147810   3.964   5.228  14.096 -0.5022 -0.8210 -0.3719
 8773TIP3    H247811   4.115   5.223  14.101 -0.5234 -0.7690  0.4860
 8774TIP3   OH247812   1.672   4.936   3.219 -0.0816  0.5227  0.0656
 8774TIP3    H147813   1.763   4.917   3.196 -0.4661  0.9254 -1.8380
 8774TIP3    H247814   1.648   4.866   3.280  1.3075  0.0587  0.0994
 8775TIP3   OH247815   4.833   6.209   6.039 -0.7785  0.4092 -0.3723
 8775TIP3    H147816   4.752   6.165   6.014 -0.2574 -0.6042 -0.2751
 8775TIP3    H247817   4.861   6.166   6.120 -1.0377  1.8975  0.5290
 8776TIP3   OH247818   3.404   2.676   0.578 -0.6178  0.4569 -0.3039
 8776TIP3    H147819   3.479   2.696   0.633  0.4462 -1.9046 -0.8633
 8776TIP3    H247820   3.337   2.739   0.605  0.2735  0.1044  2.8566
 8777TIP3   OH247821   6.774   3.598   3.934 -0.2325 -0.5230 -0.6546
 8777TIP3    H147822   6.695   3.582   3.883  0.2059 -0.4747 -1.3702
 8777TIP3    H247823   6.751   3.668   3.994 -1.0308 -1.2094 -0.1460
 8778TIP3   OH247824   0.481   3.399   1.582 -0.1082 -0.5669  0.0599
 8778TIP3    H147825   0.506   3.417   1.491  0.5519 -1.2322  0.1073
 8778TIP3    H247826   0.526   3.466   1.633 -1.3925  0.5132 -0.2082
 8779TIP3   OH247827   5.276   4.339  15.407  0.3039 -0.2612  0.5770
 8779TIP3    H147828   5.302   4.368  15.494  0.5719  1.6677 -0.1378
 8779TIP3    H247829   5.219   4.408  15.374 -1.3490 -1.8661 -0.0517
 8780TIP3   OH247830   3.473   0.452   4.706 -0.1714  0.0743  0.5480
 8780TIP3    H147831   3.506   0.511   4.638  1.2603 -1.6082 -0.2655
 8780TIP3    H247832   3.426   0.509   4.767  0.0660  1.8591 -0.8983
 8781TIP3   OH247833   0.452   1.845  13.501  0.7327 -0.4117 -0.2737
 8781TIP3    H147834   0.528   1.795  13.531  0.5240 -0.4895  0.1192
 8781TIP3    H247835   0.379   1.784  13.508  0.4451  0.0042  0.3806
 8782TIP3   OH247836   1.812   4.552   3.305 -0.6233  0.0392 -0.1226
 8782TIP3    H147837   1.770   4.499   3.373 -0.9141  0.0865 -0.2666
 8782TIP3    H247838   1.850   4.487   3.245 -0.0748 -0.0028  0.2631
 8783TIP3   OH247839   5.409   0.132   0.382  0.3093 -0.3813 -0.2173
 8783TIP3    H147840   5.359   0.143   0.462 -0.8473 -0.9663 -0.8500
 8783TIP3    H247841   5.421   0.220   0.348  1.2657 -0.0849  0.8728
 8784TIP3   OH247842   5.503   1.631   1.768 -0.0017 -0.6052  0.7712
 8784TIP3    H147843   5.447   1.708   1.773  0.5945 -0.0993 -0.1516
 8784TIP3    H247844   5.579   1.653   1.821  0.4176 -0.3409  0.0632
 8785TIP3   OH247845   4.248   4.950   3.847  0.0590  0.4391 -0.0062
 8785TIP3    H147846   4.305   4.940   3.923 -0.6969 -0.9607  0.3963
 8785TIP3    H247847   4.297   4.910   3.775 -0.0130  0.0860  0.1397
 8786TIP3   OH247848   0.272   5.774   1.666  0.3573  0.1770 -0.3905
 8786TIP3    H147849   0.265   5.847   1.605 -0.4364  0.9664  0.6310
 8786TIP3    H247850   0.230   5.805   1.746  0.3707 -1.2521  0.1908
 8787TIP3   OH247851   6.734   3.995   6.331  0.3542  0.5002  0.4709
 8787TIP3    H147852   6.789   3.942   6.389 -0.1603  0.9753  1.4031
 8787TIP3    H247853   6.709   4.071   6.384 -0.2328  0.8727 -0.3274
 8788TIP3   OH247854   4.446   4.490   2.167  0.2721  0.0484 -0.1957
 8788TIP3    H147855   4.371   4.502   2.226 -0.7087  0.3002 -1.4710
 8788TIP3    H247856   4.470   4.578   2.140  0.3973 -0.0950 -0.5547
 8789TIP3   OH247857   3.527   0.920   2.933  0.2727 -0.4953  0.4149
 8789TIP3    H147858   3.603   0.975   2.950 -0.6119  0.5552  1.0667
 8789TIP3    H247859   3.459   0.954   2.991 -0.6123 -1.5975  0.0540
 8790TIP3   OH247860   0.850   2.535  13.697 -0.4513 -0.2602 -0.0116
 8790TIP3    H147861   0.792   2.500  13.764  1.2879 -0.9915  1.1349
 8790TIP3    H247862   0.872   2.623  13.728 -0.3612 -0.2540 -0.0925
 8791TIP3   OH247863   1.364   2.922  16.712 -0.4574 -0.1871  0.1105
 8791TIP3    H147864   1.403   2.840  16.742  0.6721  0.3003 -0.0337
 8791TIP3    H247865   1.331   2.902  16.624 -2.2343 -1.1279  0.9622
 8792TIP3   OH247866   6.650   6.391   5.017 -0.1796  0.2679 -0.3482
 8792TIP3    H147867   6.694   6.441   5.086  0.7270 -1.5515  0.4186
 8792TIP3    H247868   6.720   6.339   4.977 -1.3597 -1.5504 -0.0971
 8793TIP3   OH247869   2.545   4.966  15.514 -0.2877  0.1614  0.4675
 8793TIP3    H147870   2.589   4.912  15.580 -0.5307 -0.0735  0.4418
 8793TIP3    H247871   2.612   4.981  15.447 -0.8384 -2.0550 -0.6635
 8794TIP3   OH247872   4.339   2.703   6.078  0.4665 -0.0571 -0.0374
 8794TIP3    H147873   4.255   2.687   6.035  1.6481 -0.7579 -2.1296
 8794TIP3    H247874   4.366   2.617   6.110  0.7194  0.0332 -0.0056
 8795TIP3   OH247875   6.594   5.176  11.712  0.1282 -1.5928 -0.0309
 8795TIP3    H147876   6.568   5.250  11.658 -0.5540 -1.2100  0.8133
 8795TIP3    H247877   6.592   5.101  11.653  1.4091 -0.8509 -1.0418
 8796TIP3   OH247878   2.430   4.087   4.430 -0.3166 -0.2521 -0.2720
 8796TIP3    H147879   2.518   4.099   4.465 -1.4208  3.0123  1.6494
 8796TIP3    H247880   2.372   4.103   4.505 -2.6073 -0.8644 -1.8322
 8797TIP3   OH247881   3.330   3.504  13.220  0.2912 -0.0507 -0.2363
 8797TIP3    H147882   3.236   3.484  13.215  0.3566 -0.1709 -1.1039
 8797TIP3    H247883   3.334   3.589  13.263 -0.3228  0.7908 -1.8167
 8798TIP3   OH247884   2.596   6.602  11.205 -0.2025  0.5813  0.0842
 8798TIP3    H147885   2.685   6.567  11.202 -0.7742 -0.8545 -3.2788
 8798TIP3    H247886   2.544   6.533  11.246 -0.8060 -1.4923 -3.8663
 8799TIP3   OH247887   4.984   2.775  15.896  0.4206 -0.8389  0.3000
 8799TIP3    H147888   4.985   2.780  15.801 -0.3026  0.2931  0.3391
 8799TIP3    H247889   5.019   2.688  15.916  0.3965 -1.1572 -0.9952
 8800TIP3   OH247890   2.791   1.370   1.870  0.1061 -0.5063 -0.1554
 8800TIP3    H147891   2.744   1.451   1.849 -0.4289 -1.0402 -1.0565
 8800TIP3    H247892   2.865   1.368   1.810 -0.3453 -1.0844 -0.7047
 8801TIP3   OH247893   0.089   1.154   4.474  0.1720 -0.2729 -0.6091
 8801TIP3    H147894   0.049   1.241   4.466  0.0068 -0.3556 -0.6877
 8801TIP3    H247895   0.110   1.129   4.384 -0.3876 -0.5985 -0.6510
 8802TIP3   OH247896   2.642   4.498  16.284 -0.4484  0.2770  0.3503
 8802TIP3    H147897   2.552   4.504  16.316 -1.0290 -0.4084 -1.1207
 8802TIP3    H247898   2.668   4.589  16.270 -1.0071  0.4679  0.5265
 8803TIP3   OH247899   5.637   2.182   1.028  0.3299 -0.0100 -0.1646
 8803TIP3    H147900   5.596   2.184   0.942  1.1456  1.1998 -0.5475
 8803TIP3    H247901   5.730   2.170   1.010  0.3806 -0.8418  0.6009
 8804TIP3   OH247902   6.552   3.942   2.105  0.6071 -0.2097 -0.1126
 8804TIP3    H147903   6.554   3.849   2.127 -3.7511 -0.4345 -0.3869
 8804TIP3    H247904   6.508   3.946   2.020 -1.7158  2.2535  1.1372
 8805TIP3   OH247905   4.063   0.229  17.098  0.0379 -0.3086 -0.2735
 8805TIP3    H147906   4.099   0.228  17.009 -1.9753  0.7571 -1.1239
 8805TIP3    H247907   4.003   0.154  17.101 -0.9517  0.4707 -0.2802
 8806TIP3   OH247908   0.199   2.471   5.002  0.1289 -0.0662  0.2596
 8806TIP3    H147909   0.172   2.515   5.083  1.0430 -0.9934  1.0844
 8806TIP3    H247910   0.185   2.378   5.019  0.7757 -0.2996 -0.4694
 8807TIP3   OH247911   5.875   0.141  15.300 -0.5217 -0.1953  0.1343
 8807TIP3    H147912   5.785   0.169  15.282 -1.1203 -2.1290  0.0155
 8807TIP3    H247913   5.879   0.051  15.267  2.1501  0.6304 -2.0182
 8808TIP3   OH247914   3.999   4.424  14.839  0.2935  0.1260  0.2815
 8808TIP3    H147915   4.025   4.344  14.885 -1.1437 -0.6148 -0.1467
 8808TIP3    H247916   4.081   4.462  14.809  0.8900 -2.3639 -1.4306
 8809TIP3   OH247917   3.464   0.543  14.141  0.1006  0.2275 -0.4333
 8809TIP3    H147918   3.404   0.562  14.069 -0.8288  1.0041  0.5377
 8809TIP3    H247919   3.473   0.448  14.141  0.4050  0.2462 -1.8149
 8810TIP3   OH247920   2.184   3.000  13.441 -0.3966 -0.1726  0.2191
 8810TIP3    H147921   2.184   3.086  13.485  1.2246  0.0775 -0.2292
 8810TIP3    H247922   2.199   2.938  13.512  1.3691  0.1665  0.1775
 8811TIP3   OH247923   5.405   6.685  15.136  0.5172  0.0983  0.3766
 8811TIP3    H147924   5.360   6.748  15.193  0.5159 -1.7392  2.4768
 8811TIP3    H247925   5.341   6.661  15.070 -0.0841  0.8971  0.6691
 8812TIP3   OH247926   2.385   4.786   1.310  0.6648  0.1419  0.0428
 8812TIP3    H147927   2.307   4.810   1.260  0.9299  0.7713 -0.0667
 8812TIP3    H247928   2.458   4.796   1.249  1.0221  1.1895  0.6263
 8813TIP3   OH247929   2.444   1.900  12.495 -0.0199  0.2346  0.5732
 8813TIP3    H147930   2.361   1.936  12.463  0.8424  0.8123 -1.0889
 8813TIP3    H247931   2.508   1.930  12.432  1.3037 -1.1260  1.2514
 8814TIP3   OH247932   0.243   5.900  14.641 -0.1824 -0.2282  0.3751
 8814TIP3    H147933   0.276   5.978  14.595  0.5209  0.7659  2.4982
 8814TIP3    H247934   0.222   5.838  14.571  0.7563  1.2775 -1.2852
 8815TIP3   OH247935   2.839   0.672   2.638 -0.4648 -0.6133  0.0745
 8815TIP3    H147936   2.842   0.576   2.646 -0.4121 -0.4819  1.8619
 8815TIP3    H247937   2.923   0.696   2.600 -0.2796 -1.2360  0.0880
 8816TIP3   OH247938   5.950   2.212  12.763  0.7180  0.1103  0.0829
 8816TIP3    H147939   5.916   2.235  12.850  0.0593  0.5543 -0.2842
 8816TIP3    H247940   5.958   2.295  12.718  0.7387 -0.1509 -0.3939
 8817TIP3   OH247941   6.458   3.707   4.620 -0.0709 -0.6599 -0.2839
 8817TIP3    H147942   6.516   3.762   4.568 -0.6417 -0.7460 -1.0196
 8817TIP3    H247943   6.509   3.628   4.638 -0.0931 -0.8916 -1.2424
 8818TIP3   OH247944   4.120   0.893   3.725 -0.1915 -0.8773 -0.6294
 8818TIP3    H147945   4.133   0.800   3.743  0.2153 -0.4613  1.3463
 8818TIP3    H247946   4.208   0.930   3.723 -0.4791  0.0255  1.9106
 8819TIP3   OH247947   0.143   6.321  11.190  1.2479 -0.1249 -0.5338
 8819TIP3    H147948   0.131   6.333  11.096  2.6260  3.5801 -0.3129
 8819TIP3    H247949   0.054   6.323  11.226  0.7172 -1.5245 -1.7440
 8820TIP3   OH247950   1.595   1.746  15.579  0.5696 -0.1102  0.4622
 8820TIP3    H147951   1.664   1.717  15.639  0.6058  0.6799  0.8092
 8820TIP3    H247952   1.637   1.814  15.526 -0.5830  2.1027  2.2863
 8821TIP3   OH247953   4.543   3.590  13.321  0.0912 -0.2723  1.0095
 8821TIP3    H147954   4.450   3.579  13.302 -0.2006 -0.0150  2.2274
 8821TIP3    H247955   4.568   3.669  13.273 -0.6014  0.3113  1.5945
 8822TIP3   OH247956   5.801   3.559  16.206  0.3517 -0.4800 -0.1640
 8822TIP3    H147957   5.836   3.629  16.150 -1.3279  0.4237 -0.1273
 8822TIP3    H247958   5.714   3.541  16.171  0.3042 -1.7316  0.5669
 8823TIP3   OH247959   4.912   4.156   3.798  0.1085 -0.3355  0.3779
 8823TIP3    H147960   4.879   4.219   3.734  1.4418  0.7039  0.6872
 8823TIP3    H247961   4.989   4.199   3.836  0.7184 -1.9366  0.9731
 8824TIP3   OH247962   4.397   4.835   3.604 -1.0576  0.3034  0.2966
 8824TIP3    H147963   4.328   4.891   3.568  0.3757  4.1295  3.1516
 8824TIP3    H247964   4.466   4.835   3.537 -1.3646  1.4238 -0.0214
 8825TIP3   OH247965   0.151   6.404   4.610  0.4043 -0.1536  0.8911
 8825TIP3    H147966   0.134   6.423   4.518  2.0760 -0.4121  0.5052
 8825TIP3    H247967   0.086   6.455   4.658 -1.2140 -0.9237 -0.4688
 8826TIP3   OH247968   1.877   1.557  14.377 -0.5986  0.0745 -0.1719
 8826TIP3    H147969   1.819   1.583  14.449 -1.4377 -1.1631 -0.3676
 8826TIP3    H247970   1.963   1.588  14.403 -0.1028 -3.8097  3.3327
 8827TIP3   OH247971   3.975   3.428  15.979 -0.1669  0.5066 -0.5295
 8827TIP3    H147972   3.884   3.408  15.955 -0.3727  1.5170 -0.6158
 8827TIP3    H247973   3.975   3.432  16.074 -1.0271  4.1016 -0.6080
 8828TIP3   OH247974   3.137   5.916   4.370 -0.3081  0.2319 -0.1294
 8828TIP3    H147975   3.156   6.009   4.385 -0.2805  0.2780 -0.4332
 8828TIP3    H247976   3.041   5.912   4.366 -0.3028  0.2806 -0.3172
 8829TIP3   OH247977   5.885   0.879   1.174 -0.1002  0.8539  0.1198
 8829TIP3    H147978   5.915   0.812   1.113  1.0690  1.5648 -0.1241
 8829TIP3    H247979   5.876   0.833   1.258 -0.4331  0.1533 -0.2961
 8830TIP3   OH247980   3.164   0.295  13.485 -0.2087  0.2686 -0.1138
 8830TIP3    H147981   3.207   0.216  13.520  0.0997  0.5424  0.1267
 8830TIP3    H247982   3.235   0.346  13.447 -0.5961 -0.2023 -1.4966
 8831TIP3   OH247983   4.376   3.812   3.533  0.1869  0.4221 -0.1259
 8831TIP3    H147984   4.466   3.835   3.558 -0.4505  1.1198  1.6742
 8831TIP3    H247985   4.329   3.896   3.535 -0.5926 -0.0037 -0.6056
 8832TIP3   OH247986   2.139   1.319   4.742 -0.1847 -0.3859 -0.1543
 8832TIP3    H147987   2.127   1.228   4.713  1.7319 -0.5799 -0.3640
 8832TIP3    H247988   2.059   1.338   4.791 -0.6653 -2.1533 -0.1935
 8833TIP3   OH247989   4.974   4.228  15.437 -0.3216 -0.0296  0.1164
 8833TIP3    H147990   5.063   4.247  15.467 -0.5728  0.1404  0.7652
 8833TIP3    H247991   4.919   4.253  15.510 -0.8047 -1.4898  0.2720
 8834TIP3   OH247992   2.144   1.490   3.181 -0.1869 -0.1590  0.5944
 8834TIP3    H147993   2.124   1.398   3.196 -1.0353 -0.1027 -0.1291
 8834TIP3    H247994   2.231   1.503   3.219  0.7221 -1.6967 -0.9001
 8835TIP3   OH247995   5.087   1.555   2.508  0.6301  0.1486 -0.4102
 8835TIP3    H147996   5.067   1.528   2.597  0.3621 -2.7726 -1.2816
 8835TIP3    H247997   5.182   1.569   2.507  0.5671  0.6279  0.4234
 8836TIP3   OH247998   3.278   2.468   2.477  0.0130 -0.3531  0.4294
 8836TIP3    H147999   3.239   2.472   2.564  1.4402  1.6782  0.9970
 8836TIP3    H248000   3.371   2.451   2.493 -0.0144 -1.8189 -0.7834
 8837TIP3   OH248001   3.340   4.593   5.553  0.0809 -0.4063 -0.1155
 8837TIP3    H148002   3.415   4.604   5.611  1.3197  0.1476 -1.7575
 8837TIP3    H248003   3.355   4.508   5.511 -0.1635 -0.2565 -0.5107
 8838TIP3   OH248004   4.568   6.523  12.457 -0.1673  0.4903 -0.3546
 8838TIP3    H148005   4.512   6.459  12.501  0.3221 -0.0603 -0.5280
 8838TIP3    H248006   4.610   6.571  12.528 -0.8491  0.9032 -0.2239
 8839TIP3   OH248007   6.045   2.020   3.206  0.1491 -0.1404 -0.3823
 8839TIP3    H148008   6.105   2.091   3.228  1.0040 -1.3650  1.3225
 8839TIP3    H248009   5.962   2.064   3.188  0.8213  1.3476  0.0827
 8840TIP3   OH248010   4.456   3.856   4.937  0.6098  0.7970  0.1411
 8840TIP3    H148011   4.542   3.897   4.946  0.1728  1.3172  2.2579
 8840TIP3    H248012   4.473   3.762   4.938  1.3017  0.9040 -1.1850
 8841TIP3   OH248013   5.603   1.078  12.993  0.3325 -0.2463  0.0199
 8841TIP3    H148014   5.655   1.144  12.948  1.2950 -0.3681  0.9372
 8841TIP3    H248015   5.577   1.119  13.075 -1.3482 -0.0557 -0.5845
 8842TIP3   OH248016   4.732   0.412   5.728  0.0314  0.4296 -0.1577
 8842TIP3    H148017   4.822   0.410   5.694 -0.6167 -0.8130 -1.8475
 8842TIP3    H248018   4.740   0.383   5.818  1.0966 -1.6479 -0.8912
 8843TIP3   OH248019   0.897   1.556  16.841  0.3205 -0.4502 -0.1185
 8843TIP3    H148020   0.909   1.589  16.752  0.3326 -0.5760 -0.1601
 8843TIP3    H248021   0.862   1.468  16.830 -1.3930  0.2022  0.0099
 8844TIP3   OH248022   6.140   4.834   1.386  0.0013  0.6936  0.3376
 8844TIP3    H148023   6.069   4.897   1.399 -2.5141 -1.3346 -2.6954
 8844TIP3    H248024   6.138   4.815   1.292  2.1927 -2.1598  0.7974
 8845TIP3   OH248025   3.820   2.634   3.128 -0.1450 -0.9344  0.4840
 8845TIP3    H148026   3.797   2.718   3.166  1.0667 -0.3012 -0.1746
 8845TIP3    H248027   3.828   2.575   3.202  1.0493  0.0157  1.1253
 8846TIP3   OH248028   5.749   6.352  15.140 -0.0344  0.1551  0.1854
 8846TIP3    H148029   5.735   6.400  15.222 -2.5344  1.6006 -1.0437
 8846TIP3    H248030   5.670   6.300  15.128 -0.4030  1.1730 -2.1096
 8847TIP3   OH248031   5.232   3.806   1.942 -0.0973 -0.3669 -0.1124
 8847TIP3    H148032   5.261   3.862   1.870 -1.8623 -0.7494 -1.1578
 8847TIP3    H248033   5.312   3.781   1.988  1.0496 -0.1232 -1.9570
 8848TIP3   OH248034   6.005   3.417   2.108 -0.5753 -0.5798  0.1592
 8848TIP3    H148035   5.964   3.331   2.097 -2.0116 -0.4583  3.7470
 8848TIP3    H248036   5.951   3.476   2.056 -0.5033 -1.5792 -1.0815
 8849TIP3   OH248037   0.239   2.373   2.520 -0.0695  0.0952 -0.0910
 8849TIP3    H148038   0.265   2.281   2.522 -1.5357 -0.3735 -1.5147
 8849TIP3    H248039   0.149   2.374   2.551  0.1340  1.1441  0.5025
 8850TIP3   OH248040   6.226   6.063  14.863 -0.0562 -0.2727 -0.6207
 8850TIP3    H148041   6.133   6.051  14.884 -0.4767  0.9041 -1.7336
 8850TIP3    H248042   6.228   6.140  14.807  1.7033  0.2840  0.1557
 8851TIP3   OH248043   0.853   2.490   1.305  0.4119 -0.9818  0.0323
 8851TIP3    H148044   0.911   2.470   1.231  0.7548 -1.1212  0.3392
 8851TIP3    H248045   0.838   2.584   1.298 -1.2550 -1.3292 -1.4528
 8852TIP3   OH248046   1.754   4.551  12.353 -0.1885 -0.2209  0.1334
 8852TIP3    H148047   1.803   4.590  12.280 -1.3122 -1.2149 -1.1591
 8852TIP3    H248048   1.807   4.572  12.430  1.0529  0.7900 -0.9578
 8853TIP3   OH248049   1.195   6.031   3.804 -0.9705 -0.6105 -0.5560
 8853TIP3    H148050   1.280   6.020   3.760 -0.1984 -0.4024  0.8385
 8853TIP3    H248051   1.136   5.973   3.757  0.1657 -1.4364 -1.0077
 8854TIP3   OH248052   6.082   0.125   5.097 -0.0585 -0.4705  0.1945
 8854TIP3    H148053   6.033   0.080   5.028  0.6547 -2.9912  1.2612
 8854TIP3    H248054   6.042   0.095   5.179 -0.2001  1.6441  0.9258
 8855TIP3   OH248055   4.004   2.004  13.405 -0.0063  0.0105 -0.1740
 8855TIP3    H148056   3.938   2.039  13.465  0.2260 -0.7311  0.5260
 8855TIP3    H248057   3.960   1.998  13.321 -0.7887 -0.3281  0.2588
 8856TIP3   OH248058   6.585   3.490   1.121  0.0072 -0.5492  0.0024
 8856TIP3    H148059   6.645   3.478   1.195  0.5893  0.5904 -0.2913
 8856TIP3    H248060   6.525   3.559   1.150 -0.2513 -0.6498 -0.2924
 8857TIP3   OH248061   6.478   1.104  14.171  0.7461  0.2518  0.3911
 8857TIP3    H148062   6.502   1.011  14.174  0.3173  0.1736  1.9891
 8857TIP3    H248063   6.384   1.104  14.157  0.9055  0.4630 -0.6708
 8858TIP3   OH248064   2.584   3.362   3.436  0.7941 -1.1157  0.1889
 8858TIP3    H148065   2.564   3.454   3.420 -0.8542 -1.2595  1.3503
 8858TIP3    H248066   2.679   3.360   3.450  0.9475  0.2826 -0.5594
 8859TIP3   OH248067   2.941   5.171  12.077  0.0951 -0.4327 -0.4640
 8859TIP3    H148068   2.884   5.218  12.015  0.3895 -0.6817 -0.9252
 8859TIP3    H248069   2.907   5.081  12.076  0.9511 -0.7544 -1.2938
 8860TIP3   OH248070   2.699   2.175  12.476  0.2304 -0.4739  0.3484
 8860TIP3    H148071   2.757   2.198  12.549 -1.0050  0.8884  0.9258
 8860TIP3    H248072   2.612   2.202  12.505 -0.1707  0.8252 -1.9697
 8861TIP3   OH248073   0.206   3.943  16.056 -0.0894  0.1356  0.0054
 8861TIP3    H148074   0.288   3.894  16.050 -0.5515 -0.5925 -0.3734
 8861TIP3    H248075   0.139   3.881  16.030 -0.7734  0.7171  0.3751
 8862TIP3   OH248076   0.889   3.078  15.661 -1.1000 -0.6375  0.3128
 8862TIP3    H148077   0.914   3.013  15.726 -0.0364 -0.3520  0.2007
 8862TIP3    H248078   0.866   3.027  15.583 -0.6665 -0.8968  0.3556
 8863TIP3   OH248079   5.957   0.002   1.032 -0.4058 -0.4603  0.2104
 8863TIP3    H148080   5.887  -0.062   1.044 -0.1455 -0.7223  0.3273
 8863TIP3    H248081   5.911   0.086   1.026 -0.9143 -0.8565 -2.0011
 8864TIP3   OH248082   3.798   1.482   5.240 -0.2250 -0.3708 -0.3688
 8864TIP3    H148083   3.884   1.523   5.230  0.3110 -1.6274 -1.1162
 8864TIP3    H248084   3.797   1.451   5.330  0.2090 -0.5486 -0.4207
 8865TIP3   OH248085   2.254   4.145  14.086  0.1298  0.2056 -0.7399
 8865TIP3    H148086   2.207   4.190  14.016  1.2093  2.5026 -0.0294
 8865TIP3    H248087   2.295   4.215  14.136 -0.6291 -1.3890  2.2221
 8866TIP3   OH248088   4.608   2.314   0.992 -0.4006 -0.2257  0.6074
 8866TIP3    H148089   4.556   2.394   0.989 -0.1016 -0.0270  0.6865
 8866TIP3    H248090   4.554   2.252   1.042  0.3446  0.6551  2.5752
 8867TIP3   OH248091   6.519   6.482  13.591  0.4452 -0.3157 -0.7768
 8867TIP3    H148092   6.581   6.535  13.643  2.0835 -1.1956 -1.7985
 8867TIP3    H248093   6.457   6.448  13.655  1.8366 -0.5347  0.4811
 8868TIP3   OH248094   4.364   3.236  13.065  0.0173  0.6068  0.0761
 8868TIP3    H148095   4.424   3.311  13.071  1.6364 -0.7610  1.7707
 8868TIP3    H248096   4.279   3.272  13.090  0.4906  2.1741 -0.4560
 8869TIP3   OH248097   3.702   2.433  12.169  0.5716  0.4726  0.3956
 8869TIP3    H148098   3.737   2.473  12.250 -1.1828  0.5056  1.1533
 8869TIP3    H248099   3.627   2.382  12.198  1.0734 -1.0644 -0.9817
 8870TIP3   OH248100   5.176   6.035   1.662  0.2307 -0.1555  0.4775
 8870TIP3    H148101   5.272   6.036   1.666  0.2445 -0.0084  0.1382
 8870TIP3    H248102   5.149   6.011   1.750  0.5406  1.3810  0.9969
 8871TIP3   OH248103   2.395   4.917   0.266  0.0851  0.2010  0.6606
 8871TIP3    H148104   2.408   4.841   0.209 -1.8734  0.5591 -0.3384
 8871TIP3    H248105   2.340   4.884   0.337 -0.3271  0.5553  0.5078
 8872TIP3   OH248106   6.062   0.181   1.813  0.0610 -0.3791  0.1682
 8872TIP3    H148107   6.054   0.149   1.903 -0.6444 -0.3746  0.1026
 8872TIP3    H248108   6.070   0.276   1.821 -0.4219 -0.3413  0.1996
 8873TIP3   OH248109   2.258   0.481  14.657  0.0807  0.0993 -0.0263
 8873TIP3    H148110   2.295   0.552  14.605 -0.6705 -1.6991 -3.0962
 8873TIP3    H248111   2.163   0.496  14.653 -0.1300 -1.4827 -1.3427
 8874TIP3   OH248112   0.709   0.092   3.941 -0.4947  0.1751  0.1053
 8874TIP3    H148113   0.766   0.019   3.917 -0.2043 -0.2334  1.9680
 8874TIP3    H248114   0.620   0.057   3.931 -0.3620 -0.2894  0.5016
 8875TIP3   OH248115   5.759   1.269  16.382 -0.5075  0.2903  1.1289
 8875TIP3    H148116   5.829   1.274  16.318 -0.1446  3.3526  1.6853
 8875TIP3    H248117   5.684   1.236  16.333 -0.5581  3.6537 -1.1964
 8876TIP3   OH248118   3.429   3.159   6.057  0.4106  0.9885 -0.3191
 8876TIP3    H148119   3.497   3.100   6.088  0.2242  0.7198 -0.4200
 8876TIP3    H248120   3.351   3.135   6.106  0.2100  0.8129 -0.7210
 8877TIP3   OH248121   5.781   1.921   4.045  0.4319 -0.8506  0.1562
 8877TIP3    H148122   5.789   1.831   4.078  0.0696 -0.9343  0.0161
 8877TIP3    H248123   5.697   1.922   3.999 -0.1238 -0.1300  1.1608
 8878TIP3   OH248124   4.676   4.667   4.781 -0.6794  0.3863 -0.0291
 8878TIP3    H148125   4.678   4.760   4.758 -0.9486 -0.1666 -2.3527
 8878TIP3    H248126   4.685   4.666   4.877 -1.8308  2.8413  0.1352
 8879TIP3   OH248127   0.242   5.589  11.599 -0.3755 -0.3049 -1.0240
 8879TIP3    H148128   0.290   5.514  11.565 -0.1265 -1.1473  1.1082
 8879TIP3    H248129   0.302   5.663  11.590  0.3492 -0.8653 -0.7794
 8880TIP3   OH248130   3.020   5.272   1.720 -0.2498 -0.2478  0.4908
 8880TIP3    H148131   3.033   5.365   1.701  0.3319 -0.2806  0.7305
 8880TIP3    H248132   2.958   5.243   1.653 -0.2142  0.2425  0.2389
 8881TIP3   OH248133   1.092   6.741  16.511  0.1152  0.8680 -0.0680
 8881TIP3    H148134   1.126   6.651  16.508  0.1694  0.9120 -0.9745
 8881TIP3    H248135   1.008   6.734  16.555  0.6568  0.5449  0.9232
 8882TIP3   OH248136   3.826   0.920  17.246 -0.4928  0.1358  0.0258
 8882TIP3    H148137   3.780   0.954  17.169 -2.6304 -0.8353  0.8578
 8882TIP3    H248138   3.874   0.996  17.280 -2.7160  1.5904  0.0317
 8883TIP3   OH248139   1.199   5.867  12.740  0.3900 -0.2055  0.5135
 8883TIP3    H148140   1.147   5.800  12.784 -1.1225  0.5539 -0.1113
 8883TIP3    H248141   1.181   5.948  12.788  1.4160 -0.0253  0.6224
 8884TIP3   OH248142   0.751   6.675   6.721  0.3478 -0.5026 -0.2072
 8884TIP3    H148143   0.708   6.715   6.645  0.4927 -1.1715 -0.6405
 8884TIP3    H248144   0.680   6.631   6.768 -0.0033  1.1202  0.8436
 8885TIP3   OH248145   1.780   3.563   1.015 -0.6396  0.7022  0.0415
 8885TIP3    H148146   1.687   3.554   1.036 -0.7116 -0.2850 -0.6714
 8885TIP3    H248147   1.825   3.527   1.092 -0.8571  0.6771  0.1581
 8886TIP3   OH248148   5.961   0.681   3.371 -0.0665 -0.3677  0.6776
 8886TIP3    H148149   5.884   0.717   3.327 -1.4568  0.5671  3.7320
 8886TIP3    H248150   5.955   0.587   3.358 -0.7198 -0.1578 -0.6244
 8887TIP3   OH248151   2.913   1.497   2.241  0.2779 -0.2469  0.0400
 8887TIP3    H148152   2.916   1.590   2.218 -0.1290  0.0272  1.0510
 8887TIP3    H248153   2.960   1.453   2.171  1.3509  0.8251  0.0822
 8888TIP3   OH248154   3.076   4.600   4.015  0.3346 -0.3683  0.4783
 8888TIP3    H148155   3.091   4.687   3.979  1.5181 -0.7895 -0.0898
 8888TIP3    H248156   3.118   4.540   3.953 -1.0004 -1.3942  0.5393
 8889TIP3   OH248157   0.400   1.467  15.240 -0.2975 -0.2247 -0.2951
 8889TIP3    H148158   0.358   1.436  15.320  0.3123 -0.0216  0.1117
 8889TIP3    H248159   0.462   1.534  15.270 -1.8377  1.6490 -1.2001
 8890TIP3   OH248160   6.583   2.841  11.846 -0.1300  0.2141  0.3058
 8890TIP3    H148161   6.637   2.832  11.767 -0.5314  0.4036  0.0058
 8890TIP3    H248162   6.538   2.757  11.854  0.4600 -0.0606  0.7430
 8891TIP3   OH248163   1.190   4.462   0.131  0.2508 -0.3076 -0.0217
 8891TIP3    H148164   1.235   4.384   0.098 -1.0211 -1.0723  0.0309
 8891TIP3    H248165   1.144   4.497   0.055 -0.8553 -0.7880  0.4196
 8892TIP3   OH248166   4.860   3.811  13.411 -0.0892  0.5456 -0.0374
 8892TIP3    H148167   4.887   3.759  13.486 -0.1715  0.1132 -0.3050
 8892TIP3    H248168   4.917   3.781  13.340 -1.4851 -0.6225 -0.6964
 8893TIP3   OH248169   2.020   5.738   2.257 -0.2909 -0.1904 -0.1753
 8893TIP3    H148170   2.041   5.784   2.176  0.7336  0.3458  0.3873
 8893TIP3    H248171   1.962   5.798   2.304 -1.1044 -0.6152 -0.6209
 8894TIP3   OH248172   0.367   0.713  11.237 -0.3269 -0.4836 -0.1170
 8894TIP3    H148173   0.356   0.736  11.329  1.0339 -0.1801 -0.0238
 8894TIP3    H248174   0.303   0.643  11.222 -0.5476 -0.5418  1.0602
 8895TIP3   OH248175   1.741   3.995  12.445  0.3044 -0.4279  0.0828
 8895TIP3    H148176   1.693   4.072  12.413  0.5568  0.0348  0.8157
 8895TIP3    H248177   1.714   3.924  12.386 -0.1892  0.1432 -0.3859
 8896TIP3   OH248178   6.752   6.175  14.662  0.1047 -0.5576  0.4180
 8896TIP3    H148179   6.740   6.161  14.756  0.3606  1.2899  0.7471
 8896TIP3    H248180   6.843   6.204  14.653  0.4670 -1.9342 -0.5607
 8897TIP3   OH248181   2.124   6.172   6.314 -0.4396 -0.1271 -0.0242
 8897TIP3    H148182   2.194   6.132   6.366 -0.2497  1.7265  1.1954
 8897TIP3    H248183   2.169   6.205   6.236 -0.4522 -1.4461 -0.6134
 8898TIP3   OH248184   3.012   2.403  15.208 -0.1023  0.3738  0.0043
 8898TIP3    H148185   3.081   2.337  15.196 -0.1317  0.4277 -0.4474
 8898TIP3    H248186   3.058   2.480  15.241 -0.2305 -0.2543  1.7000
 8899TIP3   OH248187   1.304   0.077  11.278 -0.3821 -1.0014  0.0585
 8899TIP3    H148188   1.221   0.039  11.308 -0.3141 -1.7924 -0.7429
 8899TIP3    H248189   1.326   0.028  11.199 -0.4267  0.9197 -1.1532
 8900TIP3   OH248190   0.222   3.907   4.629 -0.0891  0.2312  0.1227
 8900TIP3    H148191   0.187   3.966   4.695 -1.5541 -0.6780  0.1900
 8900TIP3    H248192   0.166   3.829   4.634 -0.6843  0.4097 -2.6443
 8901TIP3   OH248193   2.965   6.399  12.165 -0.3507 -0.2982  0.2270
 8901TIP3    H148194   2.948   6.397  12.259 -0.9865  2.7864  0.2279
 8901TIP3    H248195   3.060   6.410  12.158 -0.4069  0.4726  0.5560
 8902TIP3   OH248196   0.019   4.218   0.610  0.6279  0.2206 -0.2375
 8902TIP3    H148197   0.008   4.173   0.693 -1.3653 -0.0585 -0.6412
 8902TIP3    H248198   0.042   4.308   0.634 -0.0987  0.1817  0.6072
 8903TIP3   OH248199   6.071   2.168   2.557  0.1856  0.5457  0.2537
 8903TIP3    H148200   5.983   2.207   2.550 -0.5900 -0.0949  4.5768
 8903TIP3    H248201   6.112   2.216   2.628  2.0574 -1.4401  0.5557
 8904TIP3   OH248202   6.549   6.362   3.263  0.5856 -0.1944  0.8315
 8904TIP3    H148203   6.585   6.287   3.216 -0.8205 -0.6816  0.4871
 8904TIP3    H248204   6.519   6.421   3.194  0.9193  0.2978  1.1084
 8905TIP3   OH248205   0.072   1.786   3.250  0.1761  0.5471 -0.1437
 8905TIP3    H148206   0.135   1.856   3.232  0.6569  0.2953  0.4948
 8905TIP3    H248207   0.099   1.752   3.336 -1.1635  0.7899  0.3846
 8906TIP3   OH248208   2.678   1.028  17.009  0.0857  0.2898 -0.3975
 8906TIP3    H148209   2.708   0.958  16.951 -1.0337 -0.5283 -0.0185
 8906TIP3    H248210   2.759   1.066  17.044  0.7060 -1.6573  0.3659
 8907TIP3   OH248211   2.835   6.772  15.962  0.4329  0.3148 -0.5728
 8907TIP3    H148212   2.854   6.713  15.889 -2.4151 -0.0312 -1.0786
 8907TIP3    H248213   2.821   6.714  16.037  0.8017  0.5279 -0.3365
 8908TIP3   OH248214   1.875   3.170  13.146 -0.1031  0.1608  0.0803
 8908TIP3    H148215   1.912   3.092  13.186  0.6225  0.8974  0.8629
 8908TIP3    H248216   1.930   3.186  13.069 -1.1865 -0.9601 -0.9587
 8909TIP3   OH248217   6.469   5.471   3.407  0.7109 -0.4075 -0.3854
 8909TIP3    H148218   6.468   5.551   3.354  0.3852  1.3174  2.1603
 8909TIP3    H248219   6.385   5.429   3.388  0.9199 -0.2049 -1.8073
 8910TIP3   OH248220   2.492   0.519   0.440  0.1515  0.1255  0.3554
 8910TIP3    H148221   2.470   0.514   0.347 -0.1338  1.2303  0.3610
 8910TIP3    H248222   2.580   0.480   0.446  1.1177  2.0563 -0.7318
 8911TIP3   OH248223   2.515   1.724  14.194 -0.1558  0.0355 -0.7529
 8911TIP3    H148224   2.561   1.643  14.218  1.9390  1.3331 -0.2068
 8911TIP3    H248225   2.472   1.753  14.274 -0.3948 -0.2154 -0.7916
 8912TIP3   OH248226   4.543   4.835   4.552 -0.2718  0.1534  0.2153
 8912TIP3    H148227   4.554   4.903   4.619  0.8654  1.1797 -0.9981
 8912TIP3    H248228   4.604   4.859   4.483  0.3693 -2.2878 -0.1064
 8913TIP3   OH248229   2.659   3.417  12.857  0.0802  0.0434 -0.2164
 8913TIP3    H148230   2.733   3.362  12.884 -1.2172 -1.1419  0.9721
 8913TIP3    H248231   2.595   3.408  12.928 -1.6852  0.1189 -1.7632
 8914TIP3   OH248232   3.000   5.969   0.687  0.0864 -0.2199  0.1295
 8914TIP3    H148233   2.970   6.023   0.613  1.6398 -0.2496 -0.5417
 8914TIP3    H248234   2.977   5.880   0.663 -0.6278 -0.0875  0.3047
 8915TIP3   OH248235   4.646   3.137   3.846 -0.0040  0.5418 -0.4750
 8915TIP3    H148236   4.581   3.125   3.916  1.0093 -0.0641  0.3828
 8915TIP3    H248237   4.643   3.231   3.827 -1.6883  0.3965 -1.0023
 8916TIP3   OH248238   0.577   2.603   4.665 -0.1649  0.4958  0.1163
 8916TIP3    H148239   0.634   2.595   4.588  0.1759 -1.6175  0.5573
 8916TIP3    H248240   0.518   2.528   4.658 -0.7689  0.8505  1.3902
 8917TIP3   OH248241   2.011   3.631   2.304  0.6929 -0.5800  0.4985
 8917TIP3    H148242   1.948   3.650   2.373 -0.2675 -0.2112 -0.4666
 8917TIP3    H248243   1.978   3.552   2.262  1.7085 -1.2690  0.9561
 8918TIP3   OH248244   2.380   0.715   2.362  0.5350 -0.1752  0.2749
 8918TIP3    H148245   2.465   0.738   2.399  0.9665  0.8120 -1.2582
 8918TIP3    H248246   2.320   0.782   2.395  0.9754  0.8691 -1.0037
 8919TIP3   OH248247   2.270   0.556   3.536  0.6072 -0.4031  0.0508
 8919TIP3    H148248   2.334   0.564   3.607  0.8309 -2.8631  0.1888
 8919TIP3    H248249   2.201   0.619   3.557  1.4402  0.0005  1.6108
 8920TIP3   OH248250   4.436   4.978  15.064  0.4709 -0.1735 -0.0784
 8920TIP3    H148251   4.381   5.009  14.992 -1.2958  0.1795  1.3738
 8920TIP3    H248252   4.516   5.030  15.058 -0.9372  2.0698  0.0909
 8921TIP3   OH248253   5.565   3.210   1.537 -0.2185 -0.3957  0.3580
 8921TIP3    H148254   5.607   3.235   1.619  0.1559  0.8741 -0.2036
 8921TIP3    H248255   5.482   3.258   1.537 -0.0343 -0.0671 -0.1788
 8922TIP3   OH248256   2.053   4.172   3.621 -0.4060 -0.6519 -0.0476
 8922TIP3    H148257   2.131   4.142   3.574 -0.3480 -0.1480 -0.2791
 8922TIP3    H248258   1.990   4.193   3.552  0.2230  1.5810  0.0233
 8923TIP3   OH248259   6.510   5.819  12.616 -0.0092 -0.1489 -0.6795
 8923TIP3    H148260   6.577   5.754  12.594  0.7428  0.1132  0.8111
 8923TIP3    H248261   6.500   5.871  12.536  1.6412 -0.1188 -0.8847
 8924TIP3   OH248262   2.606   6.182   3.133  0.9072  0.4595  0.1515
 8924TIP3    H148263   2.691   6.148   3.161 -0.3093 -2.3874  0.5068
 8924TIP3    H248264   2.548   6.166   3.207 -0.5927 -0.2546 -1.1430
 8925TIP3   OH248265   6.666   0.278  16.253  0.4072  0.4405  0.3748
 8925TIP3    H148266   6.625   0.264  16.167  0.2209 -2.2163  0.8604
 8925TIP3    H248267   6.745   0.329  16.233  0.0714  0.3412 -1.3150
 8926TIP3   OH248268   5.426   0.164  13.078  0.7219 -0.6973  0.3563
 8926TIP3    H148269   5.439   0.080  13.121  1.9748 -0.6793  0.0239
 8926TIP3    H248270   5.376   0.143  12.999 -1.6516 -0.7202  1.8008
 8927TIP3   OH248271   6.567   5.501  17.211 -0.6178 -0.1658 -0.0113
 8927TIP3    H148272   6.502   5.570  17.199 -2.0030 -1.4597 -0.1338
 8927TIP3    H248273   6.609   5.520  17.295 -1.4865  0.4269  0.2873
 8928TIP3   OH248274   4.589   2.825  15.491  0.0305  0.0555  0.3890
 8928TIP3    H148275   4.496   2.809  15.480 -0.1247  0.6246  0.8682
 8928TIP3    H248276   4.599   2.920  15.488  0.7466 -0.0531 -0.8148
 8929TIP3   OH248277   3.953   2.115   2.808 -0.2159  0.5094  0.3772
 8929TIP3    H148278   3.987   2.155   2.728 -1.0757  1.8898  0.6852
 8929TIP3    H248279   4.031   2.088   2.856  0.3108 -0.3203 -0.9088
 8930TIP3   OH248280   6.672   5.931   1.121  0.2079  0.1373 -0.0407
 8930TIP3    H148281   6.754   5.890   1.149 -0.0243 -0.3714 -0.0882
 8930TIP3    H248282   6.604   5.871   1.152 -0.0582 -0.5458 -1.8152
 8931TIP3   OH248283   5.947   0.305  14.637 -0.1669 -0.1672 -0.0862
 8931TIP3    H148284   5.895   0.376  14.599 -3.2645 -2.6599 -0.6633
 8931TIP3    H248285   5.928   0.309  14.731 -2.3060 -1.7032 -0.4168
 8932TIP3   OH248286   5.590   3.942   4.824  0.1211  0.1883 -0.3159
 8932TIP3    H148287   5.623   3.971   4.739  2.1718  0.5889  0.5871
 8932TIP3    H248288   5.609   4.014   4.883  0.9618 -1.0793  0.9970
 8933TIP3   OH248289   0.801   2.896  15.456 -0.3876  0.0485 -0.6888
 8933TIP3    H148290   0.856   2.818  15.467 -1.3798 -0.3987  1.3179
 8933TIP3    H248291   0.769   2.891  15.367 -0.1337 -1.6436 -0.6961
 8934TIP3   OH248292   0.817   5.143  14.218 -0.7540 -0.2327 -0.2380
 8934TIP3    H148293   0.822   5.237  14.201 -0.1010 -0.2765 -0.3138
 8934TIP3    H248294   0.839   5.102  14.134 -2.7678 -0.4607 -0.6632
 8935TIP3   OH248295   6.105   1.891   2.669  0.4773  0.1710 -0.4560
 8935TIP3    H148296   6.111   1.982   2.641  1.9865 -0.0830 -1.0158
 8935TIP3    H248297   6.019   1.884   2.710  0.2037  1.7543 -0.7262
 8936TIP3   OH248298   6.523   6.500   1.642 -0.3395 -0.2151 -0.0577
 8936TIP3    H148299   6.439   6.461   1.665 -1.3246  1.0483 -1.3736
 8936TIP3    H248300   6.515   6.592   1.670  1.1207 -0.4219  1.0629
 8937TIP3   OH248301   2.202   6.655   3.387 -0.4840 -0.5989 -0.1919
 8937TIP3    H148302   2.202   6.570   3.430 -0.2971 -0.6924 -0.3783
 8937TIP3    H248303   2.295   6.676   3.374 -0.5390 -0.5492 -0.5092
 8938TIP3   OH248304   1.473   3.195  12.961  0.2516  0.0508  0.2817
 8938TIP3    H148305   1.515   3.164  12.881  0.8442 -0.0948  0.6470
 8938TIP3    H248306   1.399   3.248  12.930  1.2523  1.1016 -0.3803
 8939TIP3   OH248307   1.184   4.421   3.068 -0.2335 -0.1258 -0.4325
 8939TIP3    H148308   1.275   4.450   3.065 -0.2252 -0.1076 -0.0195
 8939TIP3    H248309   1.182   4.342   3.015 -0.1463  0.3326 -1.1213
 8940TIP3   OH248310   1.727   4.247   2.004  0.5382 -0.2423  0.7943
 8940TIP3    H148311   1.715   4.308   2.077 -1.9532 -0.5286  0.6639
 8940TIP3    H248312   1.781   4.176   2.041  1.1125  0.6651  1.7259
 8941TIP3   OH248313   6.273   6.224  15.656 -0.0693  0.0588  0.0343
 8941TIP3    H148314   6.293   6.300  15.710 -0.9530  0.8850 -0.7859
 8941TIP3    H248315   6.178   6.216  15.659  0.0593 -1.5006  0.7447
 8942TIP3   OH248316   2.339   4.016   2.935 -0.4335 -0.0716 -0.0543
 8942TIP3    H148317   2.336   3.965   2.854  0.4231 -2.6841  1.4875
 8942TIP3    H248318   2.264   4.075   2.930 -0.1895  0.0585 -2.8889
 8943TIP3   OH248319   6.361   6.557  16.956 -0.1846 -0.1433  0.1600
 8943TIP3    H148320   6.330   6.645  16.978  0.5241  0.0095  0.5820
 8943TIP3    H248321   6.287   6.500  16.976  0.0269  0.1338  1.8180
 8944TIP3   OH248322   6.312   1.116   4.846 -0.3420  0.0012 -0.1099
 8944TIP3    H148323   6.400   1.144   4.871 -0.5957  0.3987  0.3335
 8944TIP3    H248324   6.287   1.175   4.775 -0.4045  0.1240  0.0171
 8945TIP3   OH248325   6.267   0.846  16.194  0.4304 -0.8345  0.2711
 8945TIP3    H148326   6.305   0.853  16.106  2.1855  0.4604  1.0895
 8945TIP3    H248327   6.209   0.921  16.201  0.0504 -1.1141  0.0971
 8946TIP3   OH248328   4.461   1.115   1.522 -0.2460 -0.6246  0.0179
 8946TIP3    H148329   4.505   1.033   1.542 -0.7102 -1.2256 -1.3819
 8946TIP3    H248330   4.404   1.095   1.448  0.7133  1.2952 -1.2880
 8947TIP3   OH248331   6.611   6.396  14.023 -0.0966 -0.4253  0.1227
 8947TIP3    H148332   6.647   6.356  14.102  1.0828 -2.2143 -1.2694
 8947TIP3    H248333   6.614   6.490  14.040  1.3246 -0.7325  1.7255
 8948TIP3   OH248334   4.893   0.829   5.231  0.4548 -0.2984 -0.1718
 8948TIP3    H148335   4.917   0.921   5.222  1.4442 -0.6172 -0.9107
 8948TIP3    H248336   4.878   0.817   5.325  0.7939  0.4999 -0.0118
 8949TIP3   OH248337   0.849   5.817   1.217 -0.2416 -0.2259  0.2487
 8949TIP3    H148338   0.869   5.737   1.265  0.4032  0.0736  0.4880
 8949TIP3    H248339   0.853   5.886   1.284  0.9386  0.2334 -0.2800
 8950TIP3   OH248340   6.088   0.604  14.071 -0.4413 -0.0413 -0.0668
 8950TIP3    H148341   6.152   0.650  14.017 -0.7638  0.1637 -0.2811
 8950TIP3    H248342   6.003   0.636  14.039 -0.6560 -0.5656 -0.0136
 8951TIP3   OH248343   1.085   3.073   3.282  0.6688 -0.1469 -0.2319
 8951TIP3    H148344   1.118   3.002   3.338 -2.8548  0.2648  2.5968
 8951TIP3    H248345   1.137   3.149   3.307  1.2189 -0.6729  0.2482
 8952TIP3   OH248346   4.987   1.140  16.850 -0.6408  0.6830  0.3685
 8952TIP3    H148347   5.074   1.137  16.811 -0.7469 -1.8626  0.1964
 8952TIP3    H248348   5.001   1.127  16.943 -0.7355  1.7109  0.5264
 8953TIP3   OH248349   1.159   2.271  13.904  0.1453  0.1572  0.5562
 8953TIP3    H148350   1.250   2.256  13.877  0.1676 -1.4905  1.5091
 8953TIP3    H248351   1.112   2.286  13.822  1.2118  0.6915  0.0332
 8954TIP3   OH248352   6.343   3.174  11.945 -0.1831  0.3946 -0.0201
 8954TIP3    H148353   6.404   3.244  11.919  1.1302 -1.1466 -1.2079
 8954TIP3    H248354   6.395   3.116  12.001 -0.9477 -0.1966  0.0826
 8955TIP3   OH248355   2.875   2.273  12.981 -0.1202 -0.2977  0.2522
 8955TIP3    H148356   2.856   2.237  13.068  0.3823 -0.4081  0.3191
 8955TIP3    H248357   2.869   2.198  12.922 -2.0323  0.0670 -0.0484
 8956TIP3   OH248358   1.897   3.467   5.310  0.1671 -0.0316 -0.1423
 8956TIP3    H148359   1.830   3.483   5.244  0.2705  0.1848 -0.1926
 8956TIP3    H248360   1.857   3.495   5.393  0.0091 -0.3737 -0.0996
 8957TIP3   OH248361   0.750   2.037  16.592 -0.2072 -0.0435  0.8554
 8957TIP3    H148362   0.842   2.037  16.563 -0.5078 -2.0104 -0.1554
 8957TIP3    H248363   0.751   1.992  16.676 -0.3827 -0.9287  0.3849
 8958TIP3   OH248364   2.104   4.688  15.402 -0.3140 -0.4286 -0.1971
 8958TIP3    H148365   2.181   4.720  15.449 -0.0460 -0.2601 -0.7503
 8958TIP3    H248366   2.037   4.680  15.470 -0.3303  1.1176 -0.0089
 8959TIP3   OH248367   5.842   3.502   4.821  0.0503 -0.4302  0.2697
 8959TIP3    H148368   5.857   3.596   4.833 -1.3462  0.3402 -3.3333
 8959TIP3    H248369   5.919   3.473   4.772 -0.5738 -0.6729 -0.5761
 8960TIP3   OH248370   0.538   0.047  10.868  0.5332  0.3867 -0.0169
 8960TIP3    H148371   0.455   0.083  10.900  0.4148  1.1968 -1.1967
 8960TIP3    H248372   0.516   0.008  10.783  1.2294  0.0047 -0.0280
 8961TIP3   OH248373   3.483   4.966  17.285 -0.0319 -0.0602  0.7053
 8961TIP3    H148374   3.487   5.008  17.199 -2.4563  1.0255  1.0649
 8961TIP3    H248375   3.392   4.939  17.294  0.4875 -1.3435  2.4089
 8962TIP3   OH248376   5.941   6.682  13.430 -0.1726 -0.2882 -0.4088
 8962TIP3    H148377   5.972   6.687  13.521 -0.9077 -2.4251  0.0003
 8962TIP3    H248378   6.018   6.655  13.380  0.1414  0.5157 -0.3650
 8963TIP3   OH248379   3.619   1.585  16.083 -0.6813 -0.4872 -0.4198
 8963TIP3    H148380   3.583   1.602  16.170  0.3638 -1.8465  0.3039
 8963TIP3    H248381   3.696   1.642  16.078  0.2371 -1.6498  0.2346
 8964TIP3   OH248382   0.397   5.441  13.403  0.7672  0.5418 -0.0497
 8964TIP3    H148383   0.327   5.400  13.352 -0.7949  1.1775  1.5059
 8964TIP3    H248384   0.379   5.535  13.396  0.7930  0.6477  1.3090
 8965TIP3   OH248385   0.853   6.633   4.490  0.0760 -0.1604 -0.0410
 8965TIP3    H148386   0.760   6.613   4.500 -0.2570 -0.1367 -2.7792
 8965TIP3    H248387   0.898   6.552   4.516 -0.9156 -1.6242 -2.6818
 8966TIP3   OH248388   6.779   4.566  12.517 -0.3926  0.0472 -0.3337
 8966TIP3    H148389   6.781   4.486  12.570  1.4299 -1.1578 -2.1546
 8966TIP3    H248390   6.871   4.592  12.510 -0.5695  0.0381 -3.0916
 8967TIP3   OH248391   2.219   3.588   1.096  0.2791 -0.2137 -0.2608
 8967TIP3    H148392   2.293   3.642   1.065  0.1609  0.9445  1.4333
 8967TIP3    H248393   2.227   3.589   1.191 -2.5031  0.7174 -0.0137
 8968TIP3   OH248394   2.617   4.161  16.619  0.5748 -0.6755  0.6127
 8968TIP3    H148395   2.542   4.102  16.609 -1.1405  1.6012 -0.3308
 8968TIP3    H248396   2.580   4.241  16.656  2.4289  0.7175 -0.4737
 8969TIP3   OH248397   2.334   4.211   6.465  0.0345 -0.1289  0.9749
 8969TIP3    H148398   2.407   4.150   6.481 -0.4721 -0.9094  0.3555
 8969TIP3    H248399   2.372   4.280   6.412  1.0701  1.0654  3.2013
 8970TIP3   OH248400   2.188   4.739  11.493  0.3400 -0.3712  0.5123
 8970TIP3    H148401   2.242   4.764  11.418  1.7351  0.6436  1.8181
 8970TIP3    H248402   2.134   4.817  11.510  1.6150  0.2456  1.9081
 8971TIP3   OH248403   2.885   4.847  11.187  0.2986 -0.3655  0.3076
 8971TIP3    H148404   2.896   4.756  11.159  0.6470 -0.3772  0.4704
 8971TIP3    H248405   2.864   4.842  11.280 -3.0779 -0.4242 -0.4036
 8972TIP3   OH248406   4.405   6.772   0.788 -0.3979  0.1630 -0.5881
 8972TIP3    H148407   4.373   6.811   0.707  1.6086 -0.6121 -1.7802
 8972TIP3    H248408   4.496   6.802   0.795 -0.9770  1.4848  2.2039
 8973TIP3   OH248409   4.985   4.413  12.614 -0.2351 -0.3655 -0.0534
 8973TIP3    H148410   5.022   4.335  12.654 -0.7588 -1.6110 -1.9526
 8973TIP3    H248411   4.896   4.417  12.646 -0.9143 -1.8243 -1.6659
 8974TIP3   OH248412   3.908   6.722   6.252  0.0626 -0.0721  0.2579
 8974TIP3    H148413   3.863   6.735   6.168  0.3817 -1.1156 -0.0848
 8974TIP3    H248414   3.977   6.659   6.232  0.4001 -0.0153  1.2229
 8975TIP3   OH248415   4.960   4.543  14.878  0.4351  0.2622 -1.2860
 8975TIP3    H148416   4.996   4.500  14.800  1.1167 -2.5769  0.5198
 8975TIP3    H248417   4.895   4.481  14.910  1.2789  0.6685  1.2637
 8976TIP3   OH248418   5.293   4.192  14.015 -0.1982  0.1864 -0.0948
 8976TIP3    H148419   5.330   4.236  14.091 -1.3294 -1.3305  1.3419
 8976TIP3    H248420   5.236   4.258  13.974 -1.1659  0.3574  1.5111
 8977TIP3   OH248421   3.135   1.141  11.162  0.2086 -0.3786  0.2565
 8977TIP3    H148422   3.097   1.140  11.250  2.3401 -1.0630  1.2054
 8977TIP3    H248423   3.076   1.086  11.110 -1.1729  0.1827  1.1743
 8978TIP3   OH248424   0.571   0.959   2.166  0.7187 -0.3836 -0.5723
 8978TIP3    H148425   0.618   1.018   2.226 -0.5911 -0.7986  0.9066
 8978TIP3    H248426   0.640   0.907   2.125  1.5991 -0.6642  1.2108
 8979TIP3   OH248427   3.877   4.058  15.978 -0.3578 -0.0918  0.3848
 8979TIP3    H148428   3.961   4.043  15.935 -0.0354  1.2873  0.5241
 8979TIP3    H248429   3.849   3.971  16.007  0.5033 -0.7116 -0.6043
 8980TIP3   OH248430   2.895   5.410   3.827 -0.0005  0.4253  0.1768
 8980TIP3    H148431   2.801   5.391   3.830 -0.0331  0.6744  0.7856
 8980TIP3    H248432   2.929   5.373   3.909  0.3013  1.0298  0.3235
 8981TIP3   OH248433   3.714   0.848  14.498  0.1056 -0.7937  0.5110
 8981TIP3    H148434   3.689   0.763  14.463 -1.6473  0.6985 -1.9755
 8981TIP3    H248435   3.631   0.893  14.516  0.9805  1.3546 -0.6253
 8982TIP3   OH248436   0.558   4.663  14.875  0.4864 -0.4564 -0.6172
 8982TIP3    H148437   0.483   4.662  14.816 -0.0655 -2.0424  0.0945
 8982TIP3    H248438   0.585   4.572  14.882  1.4413 -0.1028  0.4469
 8983TIP3   OH248439   1.359   3.140  14.894  0.5447  0.6620  0.3398
 8983TIP3    H148440   1.351   3.073  14.827  0.3277 -1.5910  2.5385
 8983TIP3    H248441   1.269   3.164  14.915  0.6208  1.6224 -0.4045
 8984TIP3   OH248442   5.834   5.642   3.960  0.2173  0.0231  0.2162
 8984TIP3    H148443   5.929   5.640   3.973  0.2678  0.0916 -0.1542
 8984TIP3    H248444   5.819   5.714   3.899  0.0682 -1.0473 -1.0147
 8985TIP3   OH248445   1.207   1.864  14.267  0.5108  0.3395  0.1885
 8985TIP3    H148446   1.166   1.908  14.192  2.5746  1.8133 -0.1307
 8985TIP3    H248447   1.269   1.802  14.227  0.9489  0.4692  0.6581
 8986TIP3   OH248448   0.836   5.994  14.408 -0.2530 -0.1787  0.3279
 8986TIP3    H148449   0.770   6.038  14.462  0.7403  1.5697  0.1343
 8986TIP3    H248450   0.872   5.926  14.464  0.5567  1.4229  1.7919
 8987TIP3   OH248451   1.947   3.975  13.786  0.1128  0.5238 -0.2604
 8987TIP3    H148452   1.960   3.969  13.692 -1.0891 -1.3216 -0.3321
 8987TIP3    H248453   1.977   3.891  13.820 -1.6592  0.2659  0.7263
 8988TIP3   OH248454   1.595   6.698  12.884 -0.2772 -0.6239 -0.1899
 8988TIP3    H148455   1.621   6.679  12.794 -0.4521  0.1554 -0.4116
 8988TIP3    H248456   1.501   6.714  12.879 -0.0626  0.6966 -0.0824
 8989TIP3   OH248457   1.708   4.084  13.872 -0.4014  0.1849 -0.0783
 8989TIP3    H148458   1.785   4.054  13.823 -1.1591 -1.7980 -0.1001
 8989TIP3    H248459   1.676   4.005  13.915 -0.9174  1.5329  2.0225
 8990TIP3   OH248460   0.447   3.777   1.287  0.2057 -0.5386  0.0584
 8990TIP3    H148461   0.398   3.710   1.336 -0.8827 -1.7666 -2.6124
 8990TIP3    H248462   0.488   3.729   1.215  1.3906  1.2898 -0.5160
 8991TIP3   OH248463   5.962   6.063  13.276  0.3802  0.2152  0.4944
 8991TIP3    H148464   6.027   6.132  13.266  0.0291  0.7698  1.9933
 8991TIP3    H248465   5.971   6.034  13.367  1.2681 -2.4559 -0.3875
 8992TIP3   OH248466   4.247   0.212   4.208  1.5924 -0.1042  0.4599
 8992TIP3    H148467   4.251   0.129   4.255 -0.3274 -0.7421 -0.4572
 8992TIP3    H248468   4.164   0.252   4.236  1.3348  0.3710 -0.9155
 8993TIP3   OH248469   2.497   3.081  16.969  0.7608  0.3157  0.0971
 8993TIP3    H148470   2.531   2.996  16.941 -1.1534 -0.1554 -0.8579
 8993TIP3    H248471   2.463   3.065  17.057  0.8187  0.2050  0.1002
 8994TIP3   OH248472   1.483   0.179   1.248  0.6630  0.2823 -0.0354
 8994TIP3    H148473   1.462   0.202   1.338  0.2394 -0.8561  0.1660
 8994TIP3    H248474   1.407   0.209   1.197 -0.0485 -0.9574  0.2725
 8995TIP3   OH248475   5.312   5.035  15.574  0.7137 -0.1039 -0.4415
 8995TIP3    H148476   5.279   5.019  15.662 -1.2625  1.2842 -0.8725
 8995TIP3    H248477   5.339   5.127  15.575  0.1782  0.0812 -1.3938
 8996TIP3   OH248478   4.694   1.247  13.453  0.2616 -0.3265 -0.1267
 8996TIP3    H148479   4.764   1.241  13.388  0.4584 -0.3676  0.0877
 8996TIP3    H248480   4.613   1.250  13.401  0.2493 -3.0292 -0.3319
 8997TIP3   OH248481   1.132   5.186   0.952 -0.1459 -0.4914  0.0872
 8997TIP3    H148482   1.188   5.226   0.885  0.9167 -0.7096  0.8301
 8997TIP3    H248483   1.192   5.162   1.023 -1.3611  0.5243  1.5063
 8998TIP3   OH248484   3.890   5.964   0.685 -0.5753  1.0829  0.1698
 8998TIP3    H148485   3.901   5.881   0.731  0.9056  1.5556  0.6983
 8998TIP3    H248486   3.822   6.010   0.734 -0.6325  0.6347  0.5157
 8999TIP3   OH248487   5.190   6.392  12.775  0.1592  0.1684  0.2705
 8999TIP3    H148488   5.118   6.453  12.756  0.6100  0.7048  0.2680
 8999TIP3    H248489   5.240   6.389  12.693  0.0630 -0.3073  0.2312
 9000TIP3   OH248490   6.139   5.156   1.321  0.4754 -0.5265  0.5212
 9000TIP3    H148491   6.063   5.104   1.344 -0.7296  0.8273 -0.3100
 9000TIP3    H248492   6.187   5.166   1.403 -0.4836 -1.0129  1.1455
 9001TIP3   OH248493   5.908   4.659   2.470 -0.0461  0.3045 -0.1176
 9001TIP3    H148494   5.924   4.565   2.464 -1.5952 -0.0465  0.9417
 9001TIP3    H248495   5.929   4.692   2.382 -0.7091 -1.2282 -0.8742
 9002TIP3   OH248496   2.138   2.139  15.299  0.0838 -0.0272  0.6551
 9002TIP3    H148497   2.052   2.152  15.339 -0.6495 -3.0913  0.1912
 9002TIP3    H248498   2.126   2.165  15.208  0.4751  2.3024  1.2181
 9003TIP3   OH248499   3.961   4.726  13.657  0.3615  0.4017  0.1912
 9003TIP3    H148500   3.969   4.633  13.674  1.6139  0.7760  1.7237
 9003TIP3    H248501   3.919   4.731  13.571  0.5506 -1.5592 -0.0345
 9004TIP3   OH248502   3.335   3.715   0.200 -1.1611  0.2474 -0.2096
 9004TIP3    H148503   3.261   3.709   0.139 -0.4675  0.7137 -1.1161
 9004TIP3    H248504   3.401   3.765   0.152 -0.1372 -0.4296  0.4769
 9005TIP3   OH248505   3.910   3.797  11.835 -0.7399 -0.0128  0.1656
 9005TIP3    H148506   3.949   3.874  11.794  1.2042 -0.6413  0.8041
 9005TIP3    H248507   3.974   3.727  11.820 -2.2268 -1.3801  0.0772
 9006TIP3   OH248508   3.798   6.131  12.411 -0.6858 -0.4217 -0.2572
 9006TIP3    H148509   3.887   6.102  12.433 -1.2009 -1.4740  0.5162
 9006TIP3    H248510   3.804   6.164  12.322  0.8818  1.2668  0.4299
 9007TIP3   OH248511   4.267   5.257   3.591  0.0308 -0.2355  0.2163
 9007TIP3    H148512   4.173   5.262   3.606  0.2731  0.6053  1.6067
 9007TIP3    H248513   4.305   5.261   3.679  1.4787  2.3668 -0.4860
 9008TIP3   OH248514   3.698   2.619  12.906  0.4842 -0.3163  0.2269
 9008TIP3    H148515   3.768   2.575  12.955  1.3994 -0.7466 -1.4425
 9008TIP3    H248516   3.734   2.632  12.819 -0.9552  0.8903 -0.2097
 9009TIP3   OH248517   2.546   6.519  16.804  0.1228  0.3269  0.1050
 9009TIP3    H148518   2.564   6.508  16.897  1.4609 -0.2500 -0.2162
 9009TIP3    H248519   2.487   6.594  16.800 -1.4523 -0.7790  1.5623
 9010TIP3   OH248520   6.557   3.042   3.164  0.2639 -0.4107  0.1176
 9010TIP3    H148521   6.573   3.072   3.253 -1.3581 -0.9231  0.5950
 9010TIP3    H248522   6.542   2.948   3.172 -0.3861 -0.3762 -0.6242
 9011TIP3   OH248523   5.512   2.058   5.550  0.4313  0.4518  0.1853
 9011TIP3    H148524   5.522   2.134   5.492  1.3457 -0.4071 -0.8224
 9011TIP3    H248525   5.590   2.059   5.605  0.2094  0.5133  0.4993
 9012TIP3   OH248526   2.307   4.294  13.101 -0.2758 -0.2317  1.0746
 9012TIP3    H148527   2.285   4.312  13.009 -0.3552  0.0377  1.1439
 9012TIP3    H248528   2.369   4.363  13.124 -1.0405  0.3077  1.5255
 9013TIP3   OH248529   3.760   5.709   3.780  0.7932 -0.1740  0.4618
 9013TIP3    H148530   3.766   5.737   3.689  1.4847  0.5537  0.7245
 9013TIP3    H248531   3.773   5.789   3.831  0.1079 -0.5256  1.1967
 9014TIP3   OH248532   5.770   3.327   3.827 -0.6445 -0.6889 -0.6657
 9014TIP3    H148533   5.810   3.387   3.765  2.4474 -1.7220  0.2572
 9014TIP3    H248534   5.824   3.332   3.906 -2.2234 -2.2533  0.5884
 9015TIP3   OH248535   2.127   4.904  16.640 -0.1033 -0.0195  0.7874
 9015TIP3    H148536   2.156   4.816  16.664 -0.5943 -0.5974 -0.6692
 9015TIP3    H248537   2.159   4.960  16.711 -0.1898 -1.4349  1.9704
 9016TIP3   OH248538   1.833   4.123   4.021  0.1715  0.4646 -0.2020
 9016TIP3    H148539   1.738   4.116   4.035  0.1958  1.0716  0.2922
 9016TIP3    H248540   1.853   4.054   3.957 -0.5968  0.3142 -0.2861
 9017TIP3   OH248541   2.140   4.020   1.206 -0.5243  0.2558 -0.5491
 9017TIP3    H148542   2.074   3.972   1.156  1.9156 -1.8559 -1.8360
 9017TIP3    H248543   2.204   3.954   1.232  1.6891  2.4181 -0.2943
 9018TIP3   OH248544   1.926   1.948   5.828  0.0304  0.1136  0.3226
 9018TIP3    H148545   1.952   2.010   5.760 -1.1958  1.2851  0.9027
 9018TIP3    H248546   1.994   1.881   5.826  0.3591  0.4758 -1.6043
 9019TIP3   OH248547   1.594   3.928   2.409  0.2242  0.2710 -0.1717
 9019TIP3    H148548   1.524   3.866   2.429  0.0822  0.3658 -0.3759
 9019TIP3    H248549   1.597   3.985   2.485  1.9158 -1.4082  1.0583
 9020TIP3   OH248550   1.902   4.398   0.461  0.1143 -0.3158 -0.0821
 9020TIP3    H148551   1.821   4.390   0.411  0.0106 -0.5277  0.1169
 9020TIP3    H248552   1.912   4.313   0.505 -1.2252  0.7803  2.4384
 9021TIP3   OH248553   3.792   1.868   4.491 -0.4709 -0.0009  0.2326
 9021TIP3    H148554   3.700   1.852   4.513 -1.3997  2.1552 -1.8890
 9021TIP3    H248555   3.789   1.932   4.420  2.7333  1.2696  1.1505
 9022TIP3   OH248556   5.763   2.640   5.456 -0.0627  0.0362  0.4376
 9022TIP3    H148557   5.798   2.551   5.449  2.8299  1.2413 -1.9167
 9022TIP3    H248558   5.806   2.676   5.533  0.5545  0.1055  0.0683
 9023TIP3   OH248559   6.636   5.795  13.117 -0.0135 -0.0611 -0.1505
 9023TIP3    H148560   6.650   5.709  13.157 -1.2381  0.4651  1.4587
 9023TIP3    H248561   6.596   5.775  13.032 -0.6905 -1.0778  0.3918
 9024TIP3   OH248562   0.343   1.136  16.732  0.1443  0.0554 -0.1608
 9024TIP3    H148563   0.352   1.211  16.674  0.1708  0.2864  0.1378
 9024TIP3    H248564   0.269   1.086  16.697  2.5757 -1.9043 -2.6901
 9025TIP3   OH248565   0.513   2.854   0.786 -0.6656  0.3170  0.1815
 9025TIP3    H148566   0.484   2.764   0.797 -0.8334  0.0431 -2.3568
 9025TIP3    H248567   0.601   2.856   0.823 -1.0796 -0.6035  1.2417
 9026TIP3   OH248568   4.523   3.947  15.869  0.0366 -0.2157 -0.6648
 9026TIP3    H148569   4.485   4.022  15.914  2.0149  0.3396  0.1355
 9026TIP3    H248570   4.476   3.943  15.786 -1.5769  0.5800  0.1789
 9027TIP3   OH248571   1.828   2.647  12.612  0.0317 -0.6618 -0.2302
 9027TIP3    H148572   1.824   2.728  12.663 -2.2203 -0.3510 -0.8762
 9027TIP3    H248573   1.857   2.675  12.525 -1.8038 -0.3521 -0.7746
 9028TIP3   OH248574   5.577   0.996  16.485 -0.8729 -0.7062 -0.1981
 9028TIP3    H148575   5.639   0.924  16.493  0.2244 -0.2306 -3.7155
 9028TIP3    H248576   5.499   0.956  16.446 -0.3472 -0.0956 -1.9382
 9029TIP3   OH248577   0.441   0.336  15.765 -0.0695  0.3415  0.3133
 9029TIP3    H148578   0.428   0.377  15.851  1.3796  0.0454  0.6872
 9029TIP3    H248579   0.403   0.398  15.703 -1.8093  0.2146  1.2143
 9030TIP3   OH248580   2.900   3.706  14.775  0.1197  0.1020  0.2705
 9030TIP3    H148581   2.947   3.635  14.819  2.0166  1.1227 -0.0885
 9030TIP3    H248582   2.813   3.706  14.815 -0.3580 -3.2702 -0.6119
 9031TIP3   OH248583   3.475   2.332  15.456 -0.0183  0.5729 -0.6427
 9031TIP3    H148584   3.435   2.412  15.491  2.2118  1.3122  0.3169
 9031TIP3    H248585   3.401   2.281  15.423 -1.5735  2.6506 -0.5157
 9032TIP3   OH248586   5.670   5.773   5.256  0.3882 -0.7363  0.1720
 9032TIP3    H148587   5.661   5.678   5.260  0.1695 -0.7303 -0.2666
 9032TIP3    H248588   5.642   5.797   5.168 -0.2688 -0.1865  0.5276
 9033TIP3   OH248589   1.841   4.219  15.462  0.2456  0.6304  0.0142
 9033TIP3    H148590   1.837   4.286  15.395 -1.1419  2.1257  1.5596
 9033TIP3    H248591   1.764   4.164  15.446 -0.1286  1.0334  0.4293
 9034TIP3   OH248592   3.667   3.390   1.445 -0.2244 -0.3023 -0.0199
 9034TIP3    H148593   3.741   3.330   1.453  0.1678 -0.1135 -1.9134
 9034TIP3    H248594   3.707   3.476   1.431 -0.8045 -0.0005  0.1485
 9035TIP3   OH248595   2.026   2.989  14.007 -0.6899  0.4322 -0.2584
 9035TIP3    H148596   1.998   2.899  14.022 -0.4821  0.3239 -0.5217
 9035TIP3    H248597   1.951   3.042  14.032  0.4598  0.4004  3.5900
 9036TIP3   OH248598   3.936   0.826   3.332  0.1431  0.2951 -0.1023
 9036TIP3    H148599   3.974   0.817   3.245  0.3145 -0.8061  0.0841
 9036TIP3    H248600   3.841   0.832   3.316  0.2587  1.3776 -0.4423
 9037TIP3   OH248601   1.453   2.917  13.847  0.3295 -0.1721 -0.1045
 9037TIP3    H148602   1.509   2.954  13.779 -1.0203  0.0522 -1.0981
 9037TIP3    H248603   1.380   2.877  13.800 -0.7926  0.2791  1.2206
 9038TIP3   OH248604   4.830   1.595  16.719  1.1363 -0.2879 -0.1865
 9038TIP3    H148605   4.906   1.561  16.767 -0.7797 -2.0945  1.6821
 9038TIP3    H248606   4.811   1.679  16.761  0.2996 -1.2322  1.3825
 9039TIP3   OH248607   3.021   2.814  12.813  0.1915 -0.0980 -0.0336
 9039TIP3    H148608   2.984   2.807  12.901  0.8445  0.2537  0.2696
 9039TIP3    H248609   3.064   2.899  12.811  0.8851 -0.4508 -0.4285
 9040TIP3   OH248610   3.337   6.521   1.132 -0.3145  0.3150  0.3505
 9040TIP3    H148611   3.362   6.443   1.083 -1.6468  0.9818 -1.4437
 9040TIP3    H248612   3.245   6.534   1.110 -0.2604  2.0557  1.1074
 9041TIP3   OH248613   6.250   2.574   1.759 -0.5367 -0.1562  0.5763
 9041TIP3    H148614   6.261   2.646   1.696  1.7518 -2.0144 -1.2680
 9041TIP3    H248615   6.216   2.502   1.706  1.8333 -1.8845  1.3754
 9042TIP3   OH248616   0.255   4.822  16.389 -0.4504  0.1402 -0.0949
 9042TIP3    H148617   0.292   4.776  16.314  0.2056  1.5098 -0.6223
 9042TIP3    H248618   0.321   4.813  16.458 -0.2979  0.3500 -0.2163
 9043TIP3   OH248619   4.557   3.067  12.307  0.1890  0.6610 -0.3432
 9043TIP3    H148620   4.561   3.047  12.400  1.4373 -0.5583 -0.6393
 9043TIP3    H248621   4.493   3.005  12.272  1.0521 -0.1314 -0.5722
 9044TIP3   OH248622   3.327   6.292   1.323 -0.5350 -1.0332  0.2577
 9044TIP3    H148623   3.393   6.225   1.307 -0.9337 -0.9655 -1.8885
 9044TIP3    H248624   3.374   6.375   1.317 -0.3228 -1.0688  1.4012
 9045TIP3   OH248625   1.536   0.633   6.003  0.8019 -0.2974 -0.3088
 9045TIP3    H148626   1.492   0.700   5.952  1.0648  0.3338  0.2921
 9045TIP3    H248627   1.549   0.672   6.089  2.6672 -0.4295 -0.5110
 9046TIP3   OH248628   2.724   2.850   0.674 -0.3793 -0.2531  0.2340
 9046TIP3    H148629   2.782   2.780   0.645 -0.5418 -0.2622 -0.0729
 9046TIP3    H248630   2.715   2.836   0.769  1.7165  0.9440  0.6288
 9047TIP3   OH248631   3.105   0.175  11.445 -0.0628 -0.0366  0.1753
 9047TIP3    H148632   3.085   0.160  11.353 -0.4773 -0.0073  0.2587
 9047TIP3    H248633   3.154   0.258  11.446 -0.8512  0.4386  0.0692
 9048TIP3   OH248634   6.794   1.594   3.060  0.1974  0.2566  0.1602
 9048TIP3    H148635   6.813   1.528   3.126 -2.6932 -0.0960  0.6954
 9048TIP3    H248636   6.856   1.665   3.078  0.6340 -0.6004  2.1016
 9049TIP3   OH248637   3.306   1.671   1.797  0.0743  0.2846  0.0382
 9049TIP3    H148638   3.385   1.642   1.843 -0.0358 -0.2597 -0.1132
 9049TIP3    H248639   3.300   1.765   1.816  1.3176  0.5382 -0.7530
 9050TIP3   OH248640   1.755   1.332  10.816  0.0011  0.7776 -0.0777
 9050TIP3    H148641   1.763   1.354  10.723  1.2178  2.8407  0.4898
 9050TIP3    H248642   1.846   1.323  10.846 -0.3981 -0.8304  0.7067
 9051TIP3   OH248643   1.124   2.324   0.311  0.2985 -0.0090  0.1293
 9051TIP3    H148644   1.127   2.229   0.298  0.6281 -0.0371  0.4256
 9051TIP3    H248645   1.031   2.343   0.323  0.1779 -0.2281 -0.4199
 9052TIP3   OH248646   3.530   5.683  15.256  0.0840  0.9104 -0.2796
 9052TIP3    H148647   3.618   5.655  15.281 -0.5396 -1.7233 -0.9095
 9052TIP3    H248648   3.543   5.734  15.176  0.9890 -0.0610 -0.7622
 9053TIP3   OH248649   2.279   2.966  17.156 -0.1847 -0.1435  0.7490
 9053TIP3    H148650   2.192   3.000  17.180  0.3589  1.4340  0.5638
 9053TIP3    H248651   2.292   2.891  17.212 -1.9898 -0.8417  0.2740
 9054TIP3   OH248652   3.844   2.844   1.853  0.4500  0.1856  0.1192
 9054TIP3    H148653   3.902   2.838   1.929  1.0290 -1.5378 -0.4312
 9054TIP3    H248654   3.893   2.898   1.790  1.1376 -0.6247 -0.0488
 9055TIP3   OH248655   1.133   0.932  15.714 -0.4154 -0.0204  0.7104
 9055TIP3    H148656   1.151   0.993  15.642  0.8829 -1.0399  0.1579
 9055TIP3    H248657   1.199   0.953  15.779 -0.1385 -0.6637  0.6308
 9056TIP3   OH248658   6.337   4.542   2.858 -0.0629  0.1397 -0.1241
 9056TIP3    H148659   6.380   4.473   2.808  0.2312 -0.3668  0.8154
 9056TIP3    H248660   6.332   4.617   2.798 -0.7577 -0.8289 -1.2799
 9057TIP3   OH248661   4.919   6.016  13.282  0.4901  0.6924  0.2647
 9057TIP3    H148662   4.985   5.987  13.219  0.3448  0.3763  0.2535
 9057TIP3    H248663   4.893   5.936  13.328 -0.6327  0.6390 -0.4453
 9058TIP3   OH248664   3.852   3.263  15.078  0.3478 -0.2368 -0.4538
 9058TIP3    H148665   3.781   3.199  15.081 -0.2877  0.5271  1.4121
 9058TIP3    H248666   3.895   3.247  14.994 -1.1142 -1.6875 -0.9512
 9059TIP3   OH248667   0.434   2.380   6.936 -0.7385  0.0041  0.5521
 9059TIP3    H148668   0.428   2.301   6.882 -0.4902  0.2483  0.1599
 9059TIP3    H248669   0.368   2.368   7.004 -0.7106 -0.5352  0.4879
 9060TIP3   OH248670   1.009   6.630   0.026 -0.0626 -0.0931  0.0970
 9060TIP3    H148671   0.971   6.571   0.092  0.5647  0.7542  1.2336
 9060TIP3    H248672   1.103   6.624   0.040  0.0250  0.8263 -0.0864
 9061TIP3   OH248673   6.706   3.184   1.332  0.4424 -0.0044  0.0578
 9061TIP3    H148674   6.763   3.154   1.261  1.7219 -0.8611  1.4250
 9061TIP3    H248675   6.620   3.193   1.291  0.9517 -1.4452 -1.3684
 9062TIP3   OH248676   2.304   2.539   3.102 -0.2495  0.6222  0.5151
 9062TIP3    H148677   2.355   2.569   3.177  1.6379 -1.8181  0.2702
 9062TIP3    H248678   2.336   2.591   3.029  0.8360  0.1604  0.6508
 9063TIP3   OH248679   4.239   2.954   2.708  0.3419  0.2878 -0.0003
 9063TIP3    H148680   4.236   2.875   2.761 -0.6076 -0.6813 -1.4661
 9063TIP3    H248681   4.270   3.022   2.768 -0.1285 -0.9057  1.6216
 9064TIP3   OH248682   4.131   1.866  15.532 -0.5768  0.2057  0.0043
 9064TIP3    H148683   4.119   1.844  15.440 -0.5200  0.0542  0.0343
 9064TIP3    H248684   4.216   1.830  15.555 -1.9747 -2.6342  1.0014
 9065TIP3   OH248685   0.233   5.144  12.942 -0.2901 -0.5315  0.5501
 9065TIP3    H148686   0.257   5.075  12.880  1.0673 -1.7326  2.3330
 9065TIP3    H248687   0.290   5.128  13.017 -1.1360  1.5516  1.6531
 9066TIP3   OH248688   5.281   6.324  11.085 -0.7968  0.1216 -0.5640
 9066TIP3    H148689   5.327   6.404  11.058 -0.0321 -0.1131  0.0195
 9066TIP3    H248690   5.218   6.308  11.015 -0.2816  0.6955 -1.1679
 9067TIP3   OH248691   0.580   4.510   5.314  0.0423  0.5444  0.5463
 9067TIP3    H148692   0.658   4.488   5.364  0.1444 -1.8027 -0.5935
 9067TIP3    H248693   0.507   4.488   5.371  0.1671 -1.6296 -0.1105
 9068TIP3   OH248694   5.950   2.662  14.914  0.2007 -0.0943  0.1969
 9068TIP3    H148695   5.965   2.695  14.825  0.2835 -1.0116 -0.1377
 9068TIP3    H248696   5.978   2.734  14.971  1.9413 -0.1926 -0.4986
 9069TIP3   OH248697   1.610   3.472  17.171  0.0119  0.0953  0.1754
 9069TIP3    H148698   1.586   3.541  17.109 -0.0300  1.0300  1.2237
 9069TIP3    H248699   1.532   3.417  17.177  0.0727 -0.0965 -0.7248
 9070TIP3   OH248700   5.007   3.793  14.805 -0.3569  0.3166  0.3823
 9070TIP3    H148701   5.076   3.727  14.799  0.5330  1.2238  0.3705
 9070TIP3    H248702   4.929   3.745  14.833 -0.5539 -1.2983 -2.7186
 9071TIP3   OH248703   2.902   5.611   3.285  0.0672  0.0581  0.1366
 9071TIP3    H148704   2.908   5.589   3.377  2.1104 -0.6920 -0.1490
 9071TIP3    H248705   2.992   5.630   3.259 -0.4358 -0.0548 -1.7756
 9072TIP3   OH248706   0.350   5.911   0.859 -0.3707 -0.0338 -0.2921
 9072TIP3    H148707   0.359   5.916   0.954  2.6611  0.3394 -0.5457
 9072TIP3    H248708   0.393   5.828   0.836 -1.0196 -0.0765 -1.3339
 9073TIP3   OH248709   4.610   0.134  12.145 -0.5137  0.5478  0.0980
 9073TIP3    H148710   4.596   0.060  12.204 -0.5073  0.2713 -0.2444
 9073TIP3    H248711   4.628   0.094  12.060 -1.3001  0.9519 -0.2690
 9074TIP3   OH248712   0.799   4.708   1.909  0.4832 -0.7917 -0.2359
 9074TIP3    H148713   0.720   4.680   1.863  0.5099 -0.0566 -0.7397
 9074TIP3    H248714   0.862   4.725   1.840 -0.3610  3.1047 -0.1583
 9075TIP3   OH248715   0.672   1.858   1.992 -0.2221 -0.0274  0.0583
 9075TIP3    H148716   0.731   1.815   1.931  0.5148  0.5550  0.3507
 9075TIP3    H248717   0.730   1.901   2.055 -0.9530  0.6250  0.2928
 9076TIP3   OH248718   1.827   6.066  16.296 -0.0038 -0.0884 -0.0508
 9076TIP3    H148719   1.765   6.117  16.243  0.1253 -2.3938 -2.5375
 9076TIP3    H248720   1.904   6.122  16.305 -0.3939  0.7047 -1.5426
 9077TIP3   OH248721   6.387   3.948   1.024  0.1113  0.7030 -0.5692
 9077TIP3    H148722   6.412   4.004   0.950 -0.5065  1.5895 -0.1200
 9077TIP3    H248723   6.315   3.996   1.066  0.9514  0.5548  1.0425
 9078TIP3   OH248724   1.474   2.720   6.328  0.0148 -0.2231 -0.3064
 9078TIP3    H148725   1.504   2.798   6.373  2.0958 -0.7607 -0.7007
 9078TIP3    H248726   1.379   2.722   6.336  0.0807  2.0860  0.0897
 9079TIP3   OH248727   2.014   5.501   0.504  0.1826  0.5105 -0.0014
 9079TIP3    H148728   2.019   5.430   0.567 -1.6125  0.8106  0.5025
 9079TIP3    H248729   2.038   5.579   0.554 -0.4573  0.6311  0.1258
 9080TIP3   OH248730   1.365   3.906  13.017  0.5853  0.5924 -0.1437
 9080TIP3    H148731   1.271   3.896  13.035  0.3321  1.3462 -1.0076
 9080TIP3    H248732   1.386   3.994  13.045  0.3378  1.5347 -2.7421
 9081TIP3   OH248733   1.643   2.984  16.719  0.2579 -0.2615 -0.4371
 9081TIP3    H148734   1.553   2.951  16.710  0.2893 -0.8515  1.2286
 9081TIP3    H248735   1.651   3.005  16.812  0.4671  3.8275 -1.3024
 9082TIP3   OH248736   4.998   4.600   2.349 -0.0736 -0.4297 -0.4418
 9082TIP3    H148737   4.938   4.526   2.341  0.0960 -0.6567  0.3247
 9082TIP3    H248738   5.082   4.566   2.318  0.0602 -0.6387  0.1341
 9083TIP3   OH248739   1.362   4.565   4.758  0.3175 -0.0657 -0.1073
 9083TIP3    H148740   1.372   4.474   4.727  0.3834  0.4840 -1.7866
 9083TIP3    H248741   1.411   4.617   4.693  0.1049  1.1870  0.7263
 9084TIP3   OH248742   3.948   6.701  14.263  0.1971 -0.4358  0.1382
 9084TIP3    H148743   3.932   6.661  14.348  1.6127 -2.2938 -0.4392
 9084TIP3    H248744   3.968   6.628  14.205  0.4102  0.8981 -1.5221
 9085TIP3   OH248745   2.239   6.671  11.779  0.2126  0.1934 -0.0490
 9085TIP3    H148746   2.241   6.576  11.767 -2.0752 -0.0040  0.8982
 9085TIP3    H248747   2.190   6.704  11.704  0.4100  0.5579 -0.0202
 9086TIP3   OH248748   4.065   0.805   5.024 -0.1400  0.4465 -0.5001
 9086TIP3    H148749   4.064   0.795   5.119 -0.8023 -0.8683 -0.6318
 9086TIP3    H248750   4.153   0.837   5.004 -0.0874  0.9923  0.5695
 9087TIP3   OH248751   1.121   3.870  13.149 -0.3967  0.3374 -0.2118
 9087TIP3    H148752   1.047   3.927  13.124 -1.2695 -1.3395 -1.6220
 9087TIP3    H248753   1.090   3.824  13.227 -1.5459 -1.5509 -1.7178
 9088TIP3   OH248754   5.751   3.989   0.281  0.1353  0.2873 -0.0006
 9088TIP3    H148755   5.758   4.001   0.376  0.6312  0.1676 -0.0179
 9088TIP3    H248756   5.800   3.909   0.264 -0.6655 -0.1469 -0.2549
 9089TIP3   OH248757   5.921   5.406  14.574 -0.1477  0.1284  0.1171
 9089TIP3    H148758   5.826   5.402  14.583 -0.2370  1.3585 -0.1721
 9089TIP3    H248759   5.936   5.415  14.480  0.0796  3.5477  0.4198
 9090TIP3   OH248760   2.736   5.454  12.306  0.5858 -0.2228 -0.1567
 9090TIP3    H148761   2.698   5.368  12.286  0.5677 -0.7183  1.8666
 9090TIP3    H248762   2.787   5.476  12.229 -3.5102  0.3184 -2.8834
 9091TIP3   OH248763   6.680   0.746  12.238  0.4793 -0.1254  0.4655
 9091TIP3    H148764   6.702   0.728  12.147 -0.1278 -0.3223  0.3558
 9091TIP3    H248765   6.669   0.841  12.242  2.7113  0.1478  0.8336
 9092TIP3   OH248766   0.440   3.625   0.375  0.4524  0.2123  0.3855
 9092TIP3    H148767   0.399   3.575   0.304 -0.4021 -0.7046  1.5067
 9092TIP3    H248768   0.530   3.640   0.344 -0.2626  0.9297 -1.4251
 9093TIP3   OH248769   0.936   4.562  16.269  0.5670  0.2517 -0.0260
 9093TIP3    H148770   1.004   4.520  16.217 -0.5292 -1.5754 -0.0265
 9093TIP3    H248771   0.944   4.523  16.356 -0.8171 -0.4156 -0.1686
 9094TIP3   OH248772   6.676   2.728  16.188  0.3653  0.4499 -0.2478
 9094TIP3    H148773   6.671   2.817  16.154 -1.2887  1.1067  1.6241
 9094TIP3    H248774   6.767   2.718  16.216  1.2420  0.5891 -2.8824
 9095TIP3   OH248775   4.836   3.782   4.378 -0.4667 -0.4952  1.4424
 9095TIP3    H148776   4.896   3.779   4.452  1.0896 -1.0548  0.2107
 9095TIP3    H248777   4.784   3.861   4.392  0.7332  0.1466  2.4405
 9096TIP3   OH248778   4.562   3.446  12.962 -0.0889 -0.3151 -0.4313
 9096TIP3    H148779   4.639   3.390  12.953 -1.1440 -1.6541 -1.2481
 9096TIP3    H248780   4.575   3.515  12.896  0.1384 -0.8521 -0.9519
 9097TIP3   OH248781   1.256   5.812  16.948  0.0383 -0.4551 -0.2960
 9097TIP3    H148782   1.319   5.880  16.924 -0.4975  0.1935  0.1361
 9097TIP3    H248783   1.198   5.806  16.873 -0.5168  0.2687  0.0732
 9098TIP3   OH248784   3.884   6.815  15.844  0.1371 -0.0494 -0.4667
 9098TIP3    H148785   3.935   6.828  15.764 -0.2028 -1.7376 -0.9679
 9098TIP3    H248786   3.826   6.742  15.825 -0.9546  0.4431  0.8472
 9099TIP3   OH248787   5.625   3.451   4.971  0.0220 -0.5036  0.0740
 9099TIP3    H148788   5.539   3.452   4.929  0.0779  1.5295 -0.0625
 9099TIP3    H248789   5.687   3.470   4.899  0.8051 -3.9082 -0.2172
 9100TIP3   OH248790   5.847   4.999  13.051 -0.2241 -0.4731  0.1795
 9100TIP3    H148791   5.941   4.994  13.037  0.1013 -0.4623  2.2713
 9100TIP3    H248792   5.818   4.908  13.057 -0.2512 -0.4681  0.1211
 9101TIP3   OH248793   4.159   2.714  11.189  0.0017  0.8289  0.4632
 9101TIP3    H148794   4.172   2.628  11.147  0.5360  2.4987 -2.9397
 9101TIP3    H248795   4.070   2.710  11.224  0.2395 -1.3226  0.8905
 9102TIP3   OH248796   6.070   2.343   5.886 -0.0265  0.0243  0.3184
 9102TIP3    H148797   6.077   2.321   5.979 -0.0170 -2.3140 -0.1837
 9102TIP3    H248798   6.121   2.275   5.842 -1.6645 -0.0760 -1.5180
 9103TIP3   OH248799   0.772   3.249   5.725  0.2031 -0.2920  0.2637
 9103TIP3    H148800   0.863   3.253   5.757 -0.1681  1.1723  1.2100
 9103TIP3    H248801   0.773   3.180   5.659  1.6260 -1.4689  1.4828
 9104TIP3   OH248802   1.456   0.728  12.769 -0.3099  0.7277  0.0787
 9104TIP3    H148803   1.537   0.768  12.739  0.0042  1.0530  1.3328
 9104TIP3    H248804   1.389   0.795  12.756 -0.4182  0.3891 -1.1401
 9105TIP3   OH248805   0.108   2.535  15.892 -0.0734  0.2217 -0.3203
 9105TIP3    H148806   0.175   2.600  15.913 -0.2494  0.4931 -0.5932
 9105TIP3    H248807   0.031   2.587  15.868  0.2634 -0.0915 -2.0713
 9106TIP3   OH248808   6.247   0.354   0.511 -0.3185  0.3828 -0.3934
 9106TIP3    H148809   6.289   0.276   0.475  0.2836 -0.0515  1.2149
 9106TIP3    H248810   6.210   0.398   0.435 -0.2077 -1.1906 -1.3849
 9107TIP3   OH248811   5.689   4.589   0.521  0.8128 -0.7979 -0.0088
 9107TIP3    H148812   5.735   4.644   0.457  0.6913 -2.1996 -1.3653
 9107TIP3    H248813   5.635   4.649   0.572  1.9624  0.5214 -0.3326
 9108TIP3   OH248814   0.091   1.286   0.819  0.2449  0.2278  0.1854
 9108TIP3    H148815   0.175   1.264   0.778 -0.6903  0.4330 -1.8545
 9108TIP3    H248816   0.115   1.324   0.904  2.2883  1.9775 -1.1380
 9109TIP3   OH248817   2.926   4.074  16.245  0.2804 -0.5872  0.2257
 9109TIP3    H148818   2.995   4.042  16.302 -0.8657 -0.1997  1.8702
 9109TIP3    H248819   2.878   4.138  16.299 -1.5255 -1.0736 -0.7627
 9110TIP3   OH248820   2.577   6.312   1.823  0.1096  0.0867 -0.5006
 9110TIP3    H148821   2.529   6.300   1.742  0.3582 -0.0480 -0.6268
 9110TIP3    H248822   2.633   6.388   1.807  0.7166 -0.4083 -0.7125
 9111TIP3   OH248823   6.065   6.029  11.577 -0.1598 -0.1038  0.2500
 9111TIP3    H148824   5.995   6.093  11.587 -0.9278 -0.6925 -1.2088
 9111TIP3    H248825   6.144   6.075  11.607 -0.9949  0.9039  0.9282
 9112TIP3   OH248826   4.146   0.714  13.435 -0.0277 -0.7474 -0.3701
 9112TIP3    H148827   4.109   0.705  13.347 -0.1089 -0.9818 -0.3122
 9112TIP3    H248828   4.200   0.792  13.430 -1.1911  0.0842 -0.2257
 9113TIP3   OH248829   3.692   5.094  17.112 -0.0811  0.0919 -0.0022
 9113TIP3    H148830   3.690   5.008  17.070  0.2668  0.8496 -1.6148
 9113TIP3    H248831   3.618   5.140  17.075 -0.2169  0.5231  0.8047
 9114TIP3   OH248832   5.157   2.730   3.338  0.0008  0.2597 -0.2511
 9114TIP3    H148833   5.172   2.820   3.312 -0.5589  0.1111 -1.1001
 9114TIP3    H248834   5.159   2.731   3.434 -0.2218  1.2007 -0.2612
 9115TIP3   OH248835   3.986   1.230   1.166 -0.0896  0.1275  0.3788
 9115TIP3    H148836   4.001   1.176   1.088  0.0975  0.6657  0.0446
 9115TIP3    H248837   3.966   1.317   1.132 -1.2230  0.0771  0.8994
 9116TIP3   OH248838   4.513   3.519  14.198  0.1392  0.1507 -0.4408
 9116TIP3    H148839   4.596   3.567  14.200 -0.6152  1.4886 -0.0890
 9116TIP3    H248840   4.475   3.535  14.284 -0.3685 -0.6670 -0.5160
 9117TIP3   OH248841   3.775   5.172  16.582 -0.4826 -0.2616  0.1429
 9117TIP3    H148842   3.698   5.228  16.597  0.2841  0.3414  1.8638
 9117TIP3    H248843   3.795   5.135  16.667  1.2693 -0.2690 -0.2627
 9118TIP3   OH248844   5.099   5.744  14.214 -0.0760  0.2254  0.4015
 9118TIP3    H148845   5.006   5.764  14.213 -0.5872 -2.0065  0.0256
 9118TIP3    H248846   5.143   5.829  14.204 -2.1071  1.0270 -2.3032
 9119TIP3   OH248847   1.086   4.771   0.588  0.3774 -0.2655  0.0823
 9119TIP3    H148848   1.011   4.730   0.545  0.0396  0.4594 -0.0202
 9119TIP3    H248849   1.162   4.739   0.539  0.0528 -0.0831 -0.5458
 9120TIP3   OH248850   2.618   2.273   3.458  0.2666  0.0467  0.4147
 9120TIP3    H148851   2.668   2.257   3.538  0.3750  0.0530  0.3482
 9120TIP3    H248852   2.551   2.337   3.484  0.2660  0.0066  0.5139
 9121TIP3   OH248853   0.396   1.463  14.766 -0.7992  0.3700  0.1061
 9121TIP3    H148854   0.404   1.368  14.777  0.9298  0.1053 -2.9525
 9121TIP3    H248855   0.470   1.499  14.815 -0.9798  0.0974  0.5846
 9122TIP3   OH248856   5.885   5.883   5.720 -0.0174  0.0955  0.0860
 9122TIP3    H148857   5.908   5.790   5.712  0.6465  0.3692 -1.4243
 9122TIP3    H248858   5.965   5.925   5.752 -0.2458  0.1762  0.5461
 9123TIP3   OH248859   5.468   6.128  10.507 -0.2968  0.2360  0.0579
 9123TIP3    H148860   5.474   6.098  10.416  0.5399 -1.1033  0.5463
 9123TIP3    H248861   5.467   6.048  10.559 -2.8536  0.9254  1.1323
 9124TIP3   OH248862   4.869   1.627  11.369  0.5392 -0.0200  0.3850
 9124TIP3    H148863   4.850   1.694  11.435  2.2292 -0.0862  0.9531
 9124TIP3    H248864   4.809   1.556  11.390 -0.3247  0.7698  0.6248
 9125TIP3   OH248865   2.965   6.616  14.530 -0.1572  0.3094 -0.2961
 9125TIP3    H148866   2.939   6.684  14.592  1.9633  2.5885 -1.8563
 9125TIP3    H248867   2.887   6.561  14.521 -1.0771  0.9321  3.0046
 9126TIP3   OH248868   6.502   0.419  10.854 -0.3757  0.0530  0.3394
 9126TIP3    H148869   6.434   0.434  10.789 -1.2014 -0.6409  1.0395
 9126TIP3    H248870   6.477   0.475  10.928 -1.3865 -1.7956  1.4502
 9127TIP3   OH248871   3.381   5.884   6.597 -0.1945  0.1024  0.3246
 9127TIP3    H148872   3.381   5.789   6.601 -0.9771  0.0044 -1.5340
 9127TIP3    H248873   3.292   5.909   6.622  0.3541  0.4380  2.0459
 9128TIP3   OH248874   2.099   3.236  15.963 -0.5274  0.4359 -0.0030
 9128TIP3    H148875   2.047   3.156  15.965 -0.2776  0.2369 -1.1278
 9128TIP3    H248876   2.034   3.307  15.964 -0.7267  0.2654  2.1410
 9129TIP3   OH248877   0.277   6.777  12.767 -0.4850 -0.7895  0.1063
 9129TIP3    H148878   0.330   6.817  12.698 -1.5863  0.4623 -0.0392
 9129TIP3    H248879   0.274   6.844  12.836 -1.2740 -1.1177  0.4031
 9130TIP3   OH248880   3.563   5.112   0.585 -0.0787  0.2032 -0.2409
 9130TIP3    H148881   3.607   5.172   0.525  1.4093 -0.5820  0.0195
 9130TIP3    H248882   3.634   5.073   0.635 -1.0003 -1.8220 -0.4535
 9131TIP3   OH248883   1.854   3.007  13.613 -0.5704 -0.5207  0.3742
 9131TIP3    H148884   1.934   3.035  13.567 -0.6025 -0.7638  0.1683
 9131TIP3    H248885   1.783   3.026  13.552 -0.7717  0.6487  0.9737
 9132TIP3   OH248886   1.409   5.146   5.366 -0.3706  0.3292 -0.2268
 9132TIP3    H148887   1.315   5.126   5.372 -0.3517  0.6969  1.2858
 9132TIP3    H248888   1.417   5.235   5.398  0.5876  0.0792  0.2355
 9133TIP3   OH248889   6.205   4.604  11.174 -0.0419 -0.0370 -0.2557
 9133TIP3    H148890   6.268   4.676  11.169  1.8501 -1.5842  0.3181
 9133TIP3    H248891   6.226   4.549  11.099 -0.3166 -0.8792  0.2788
 9134TIP3   OH248892   6.380   5.941  13.970  0.0248  0.2760 -0.4519
 9134TIP3    H148893   6.293   5.961  13.937  0.4376  2.0423 -0.5408
 9134TIP3    H248894   6.431   5.918  13.893 -0.0244  0.5453 -0.5644
 9135TIP3   OH248895   6.195   2.795  15.681  0.0419 -0.0938  0.4007
 9135TIP3    H148896   6.211   2.730  15.749 -0.9368 -1.3591 -0.5605
 9135TIP3    H248897   6.281   2.815  15.646  0.3125 -1.1723  0.4363
 9136TIP3   OH248898   1.716   1.273   1.208  0.4343  0.1923 -0.2345
 9136TIP3    H148899   1.786   1.324   1.167  0.1494 -0.6575 -1.8182
 9136TIP3    H248900   1.662   1.243   1.134 -0.1969 -1.2156  0.7775
 9137TIP3   OH248901   5.451   1.674  15.413  0.4695  0.0288  0.0204
 9137TIP3    H148902   5.380   1.627  15.456  0.6272 -1.4623 -1.2837
 9137TIP3    H248903   5.513   1.605  15.387  3.3040  1.4538  2.7585
 9138TIP3   OH248904   6.011   5.283   6.035  0.2772  0.1216 -0.1163
 9138TIP3    H148905   6.062   5.218   6.084  0.0400  1.0039  1.3116
 9138TIP3    H248906   5.924   5.245   6.029 -0.3891  1.1490  2.4395
 9139TIP3   OH248907   3.017   2.445  12.434  0.5665  0.3396 -0.0804
 9139TIP3    H148908   2.930   2.482  12.417 -0.2436 -2.1635 -1.7409
 9139TIP3    H248909   3.012   2.409  12.523 -0.2761 -0.2270 -0.3523
 9140TIP3   OH248910   0.177   5.623   1.972 -0.5720  0.7087 -0.7340
 9140TIP3    H148911   0.102   5.564   1.984 -0.5557  1.1807  2.0496
 9140TIP3    H248912   0.142   5.710   1.989  0.2430  1.1134 -1.1268
 9141TIP3   OH248913   2.733   6.479   2.385 -0.0583 -0.0218 -0.4620
 9141TIP3    H148914   2.746   6.389   2.356 -1.8958 -0.5189  0.2243
 9141TIP3    H248915   2.818   6.505   2.421  0.2276 -1.7633  0.1435
 9142TIP3   OH248916   6.365   2.902   4.938 -0.2847  0.0149  0.2029
 9142TIP3    H148917   6.411   2.818   4.935  0.6674  0.5711 -1.1419
 9142TIP3    H248918   6.415   2.953   5.002 -0.4340 -0.1869  0.4834
 9143TIP3   OH248919   6.142   4.401  10.982  0.3102 -0.0677  0.6751
 9143TIP3    H148920   6.110   4.398  10.891  0.1079 -0.9388  0.7651
 9143TIP3    H248921   6.112   4.318  11.020  0.9137  0.0267  1.3637
 9144TIP3   OH248922   6.093   4.624   0.599 -0.5709  0.2080  0.4268
 9144TIP3    H148923   6.099   4.661   0.511  1.1909  1.5192  1.0800
 9144TIP3    H248924   6.037   4.547   0.589  0.2672 -0.1074 -1.9846
 9145TIP3   OH248925   1.756   2.721   5.600 -0.1069 -0.0308  0.1346
 9145TIP3    H148926   1.754   2.762   5.514  0.2171  1.1028  0.6590
 9145TIP3    H248927   1.667   2.734   5.635 -0.2433 -0.5046 -0.0316
 9146TIP3   OH248928   0.653   5.643   2.552  1.0182  0.3064  0.3005
 9146TIP3    H148929   0.720   5.604   2.496  1.9405  1.5366  0.5322
 9146TIP3    H248930   0.652   5.588   2.630  1.5676  0.1307  0.1868
 9147TIP3   OH248931   5.062   2.613  11.402 -0.6596  0.9618  0.5158
 9147TIP3    H148932   5.028   2.571  11.323 -1.4389 -0.7858  1.7596
 9147TIP3    H248933   5.103   2.694  11.370 -1.2767  0.4619 -1.6236
 9148TIP3   OH248934   4.991   1.776  15.985 -0.4418 -0.7588  0.1759
 9148TIP3    H148935   4.968   1.776  16.078 -0.0735  0.6727  0.2850
 9148TIP3    H248936   5.059   1.844  15.978 -2.6328  1.3145 -1.6706
 9149TIP3   OH248937   6.677   1.211  16.674 -0.3018 -0.7149 -0.4082
 9149TIP3    H148938   6.679   1.304  16.652 -2.0807 -0.7469 -0.8074
 9149TIP3    H248939   6.584   1.188  16.671  0.0108 -2.2428  0.7948
 9150TIP3   OH248940   1.575   2.235  16.850 -0.0456  0.2934  0.1802
 9150TIP3    H148941   1.666   2.264  16.854  0.0844 -0.1680  0.8613
 9150TIP3    H248942   1.529   2.303  16.801  0.8210  0.1158 -0.8975
 9151TIP3   OH248943   2.297   6.381  12.540 -0.0945 -0.1367  0.2498
 9151TIP3    H148944   2.221   6.439  12.540  0.4141  0.5360 -0.3556
 9151TIP3    H248945   2.278   6.316  12.473  0.6101  1.0276 -1.1063
 9152TIP3   OH248946   5.786   3.476  14.797  0.5667  0.0474  0.0531
 9152TIP3    H148947   5.741   3.554  14.765  1.9840  1.2405  0.9156
 9152TIP3    H248948   5.744   3.458  14.881  0.9610  0.5181  0.3521
 9153TIP3   OH248949   3.631   3.294  15.470  0.2352 -0.2345 -0.0939
 9153TIP3    H148950   3.547   3.339  15.474  0.9781  1.3143 -1.6648
 9153TIP3    H248951   3.682   3.342  15.405  3.3021  0.4838  2.7170
 9154TIP3   OH248952   5.692   1.746   1.937  0.0149 -0.4208 -0.5778
 9154TIP3    H148953   5.687   1.840   1.917  0.8603 -0.0421  0.9232
 9154TIP3    H248954   5.783   1.723   1.918  0.2377 -0.5603  0.6273
 9155TIP3   OH248955   0.242   6.647   3.755 -0.1551  0.0261  0.4084
 9155TIP3    H148956   0.177   6.617   3.818 -1.7654  0.8257 -0.8471
 9155TIP3    H248957   0.257   6.739   3.776 -0.0430  0.0639  0.1711
 9156TIP3   OH248958   2.707   3.120   6.685  0.4201  0.2786 -0.0850
 9156TIP3    H148959   2.715   3.177   6.761  0.3734  0.6932 -0.3928
 9156TIP3    H248960   2.619   3.138   6.651  0.0884 -0.5730  0.2963
 9157TIP3   OH248961   2.656   6.472   5.529 -0.1215 -0.5019 -0.0504
 9157TIP3    H148962   2.590   6.416   5.488 -0.8134 -0.1770  0.6023
 9157TIP3    H248963   2.605   6.542   5.571  0.6638 -0.0120  0.0982
 9158TIP3   OH248964   3.536   2.684  13.471 -0.1223 -0.5162 -0.3651
 9158TIP3    H148965   3.617   2.733  13.460 -0.0755  0.2246  2.8537
 9158TIP3    H248966   3.466   2.748  13.458 -0.0961 -0.0641  1.6449
 9159TIP3   OH248967   1.586   2.943  13.059 -0.0468  0.6716 -0.2014
 9159TIP3    H148968   1.562   3.028  13.021 -0.9297  1.1174  1.3138
 9159TIP3    H248969   1.681   2.944  13.062  0.0517  0.6320 -2.3831
 9160TIP3   OH248970   5.811   0.825  16.175  0.4937 -0.2960  0.0522
 9160TIP3    H148971   5.762   0.833  16.093  0.4309 -2.0394 -0.0904
 9160TIP3    H248972   5.747   0.847  16.243 -0.1590 -1.3624 -0.2092
 9161TIP3   OH248973   3.499   3.215   2.001 -0.1598  0.2575 -0.3630
 9161TIP3    H148974   3.486   3.300   1.959 -0.4137  0.7006  0.6100
 9161TIP3    H248975   3.478   3.230   2.093 -3.7938 -1.7225 -0.7755
 9162TIP3   OH248976   5.430   5.134   3.208  0.3436 -0.0793 -0.7334
 9162TIP3    H148977   5.337   5.121   3.225  0.1886  1.7527 -0.0709
 9162TIP3    H248978   5.472   5.126   3.293  0.4084  2.1334 -0.5337
 9163TIP3   OH248979   0.440   6.612   3.298 -0.1835  0.1297 -0.3561
 9163TIP3    H148980   0.499   6.648   3.232 -0.7801  4.2575  1.2286
 9163TIP3    H248981   0.353   6.643   3.272 -0.5166  1.2248  1.9396
 9164TIP3   OH248982   3.206   0.393  12.586  0.3037 -0.0361 -0.0853
 9164TIP3    H148983   3.244   0.350  12.663  1.6117  0.9721 -0.1381
 9164TIP3    H248984   3.236   0.340  12.512 -0.8553 -0.9372  0.0830
 9165TIP3   OH248985   1.368   6.057  10.914  0.2232 -0.6047 -0.8161
 9165TIP3    H148986   1.409   6.062  10.828 -1.4992 -1.2224 -1.6989
 9165TIP3    H248987   1.280   6.092  10.901 -1.1811 -3.7025 -0.0641
 9166TIP3   OH248988   5.763   2.072  15.817 -0.4651 -0.1897  0.3567
 9166TIP3    H148989   5.733   1.983  15.796 -2.4041  0.5989 -0.3394
 9166TIP3    H248990   5.780   2.070  15.912  0.1861 -1.4758  0.2268
 9167TIP3   OH248991   3.058   4.504   2.840 -0.0587 -0.3664  0.3324
 9167TIP3    H148992   3.063   4.487   2.934 -1.1571 -0.5011  0.3684
 9167TIP3    H248993   3.145   4.537   2.817 -0.0388  0.4757  1.5592
 9168TIP3   OH248994   6.449   5.815  16.176  0.0291  0.2894 -0.2111
 9168TIP3    H148995   6.485   5.892  16.133 -0.2131 -0.7998 -2.4438
 9168TIP3    H248996   6.493   5.741  16.135 -0.3266 -0.8078  1.3237
 9169TIP3   OH248997   0.386   0.420  11.552 -0.5798  0.0462  0.2695
 9169TIP3    H148998   0.426   0.507  11.544  0.0810 -0.4291 -1.6645
 9169TIP3    H248999   0.415   0.388  11.638  1.3032  0.6655 -0.1280
 9170TIP3   OH249000   0.965   5.791   4.773 -0.3323  0.2830 -0.5848
 9170TIP3    H149001   0.924   5.808   4.858 -1.0048  0.4055 -0.9230
 9170TIP3    H249002   0.893   5.761   4.717 -0.1923  1.5960 -1.5069
 9171TIP3   OH249003   6.123   4.273   5.285 -0.2844 -0.0775  0.4515
 9171TIP3    H149004   6.172   4.318   5.216 -0.2560  1.8170  1.6759
 9171TIP3    H249005   6.058   4.220   5.238 -1.9013  3.0814 -1.0042
 9172TIP3   OH249006   4.437   5.643  16.271 -0.1027  0.5737 -0.9435
 9172TIP3    H149007   4.471   5.704  16.336  0.6591 -0.0255 -0.7752
 9172TIP3    H249008   4.468   5.557  16.299 -1.9992 -0.0338 -0.6224
 9173TIP3   OH249009   2.614   1.418  14.085 -0.1848 -0.2517 -0.3922
 9173TIP3    H149010   2.605   1.383  14.173 -2.5248  2.1769  0.4068
 9173TIP3    H249011   2.587   1.347  14.027  0.9069 -1.6963  0.8425
 9174TIP3   OH249012   4.984   4.233   6.432 -0.1227 -0.4879  0.1028
 9174TIP3    H149013   4.934   4.252   6.512  0.7733  0.4739  0.4448
 9174TIP3    H249014   5.065   4.192   6.464  0.0967 -0.3910 -0.3340
 9175TIP3   OH249015   4.537   0.311  17.173 -0.6690 -0.0974  0.3701
 9175TIP3    H149016   4.558   0.236  17.117 -1.0986  0.6133 -0.7557
 9175TIP3    H249017   4.610   0.316  17.234  1.1138  0.7056 -1.7920
 9176TIP3   OH249018   0.488   4.642  16.042  0.0608 -0.2611 -0.0974
 9176TIP3    H149019   0.407   4.601  16.072  0.5805 -0.5578  0.9272
 9176TIP3    H249020   0.555   4.611  16.103  0.9436  0.0103 -0.9077
 9177TIP3   OH249021   5.264   5.733   3.697 -0.4710  0.1330  0.0681
 9177TIP3    H149022   5.251   5.766   3.786 -0.2557 -0.8575  0.4770
 9177TIP3    H249023   5.196   5.777   3.646 -0.8570  0.4113  0.7999
 9178TIP3   OH249024   5.403   1.323   0.804 -0.1306  0.4540  0.3960
 9178TIP3    H149025   5.372   1.308   0.893  1.0882  0.6524  0.8659
 9178TIP3    H249026   5.345   1.270   0.749  0.5086 -1.4755  1.5125
 9179TIP3   OH249027   1.949   3.618  13.545  0.4292 -0.1014 -0.2164
 9179TIP3    H149028   1.879   3.582  13.491  1.2565 -1.9469 -0.1026
 9179TIP3    H249029   1.956   3.557  13.618  1.5625  0.5450  0.2269
 9180TIP3   OH249030   3.596   6.239  16.050 -0.0096  0.6390 -0.2381
 9180TIP3    H149031   3.687   6.258  16.030  0.2418 -1.6044 -1.4868
 9180TIP3    H249032   3.597   6.203  16.139  0.3499  0.5793 -0.2673
 9181TIP3   OH249033   3.229   0.233  16.791 -0.2398  0.2510 -0.4844
 9181TIP3    H149034   3.271   0.319  16.791  2.3013 -0.9376  0.0671
 9181TIP3    H249035   3.139   0.250  16.820  0.3741  2.6514  0.1256
 9182TIP3   OH249036   0.520   2.095  16.804 -0.2266 -0.2270 -0.3718
 9182TIP3    H149037   0.577   2.158  16.760  0.9698 -0.5379  0.7083
 9182TIP3    H249038   0.439   2.095  16.752  0.9891 -0.2810 -2.2961
 9183TIP3   OH249039   4.947   1.956  17.078  0.0639  0.7043 -0.1298
 9183TIP3    H149040   5.021   1.914  17.122  0.9798  2.3766 -0.0364
 9183TIP3    H249041   4.870   1.909  17.110  0.8198  1.0523  2.3116
 9184TIP3   OH249042   1.811   1.265   5.895  0.1874  0.3458 -0.7349
 9184TIP3    H149043   1.786   1.270   5.987  0.9809 -1.4275 -0.3890
 9184TIP3    H249044   1.820   1.356   5.867 -2.5323  0.9511  0.2264
 9185TIP3   OH249045   0.299   3.246   2.352  0.1399  0.1737 -0.7099
 9185TIP3    H149046   0.221   3.275   2.401  0.5403 -1.0297  0.6794
 9185TIP3    H249047   0.302   3.151   2.366  1.2561  0.0612 -1.6620
 9186TIP3   OH249048   5.148   4.300  16.730  0.5682 -0.3933 -0.2531
 9186TIP3    H149049   5.087   4.355  16.681 -0.4192 -1.2709 -0.0320
 9186TIP3    H249050   5.227   4.299  16.676  0.0081 -0.1421 -1.1090
 9187TIP3   OH249051   6.566   2.044   6.590  0.2816  0.4120  0.0297
 9187TIP3    H149052   6.589   2.100   6.664  0.9945 -0.5367  0.5366
 9187TIP3    H249053   6.471   2.048   6.585  0.3484  1.9341 -0.1520
 9188TIP3   OH249054   3.311   0.512   3.201  0.7979 -0.2339 -0.0790
 9188TIP3    H149055   3.302   0.483   3.110  0.0808 -0.9581  0.2214
 9188TIP3    H249056   3.333   0.605   3.194  1.8712 -0.5462 -1.0108
 9189TIP3   OH249057   2.602   0.489   5.528 -0.0334  0.1414  0.0286
 9189TIP3    H149058   2.665   0.557   5.507  0.4457  0.7773  3.2221
 9189TIP3    H249059   2.516   0.530   5.515  0.2444  0.7166 -0.0036
 9190TIP3   OH249060   4.727   2.720   6.184  0.1699  0.1655  0.0687
 9190TIP3    H149061   4.667   2.648   6.163  0.1511 -0.3909  1.9094
 9190TIP3    H249062   4.671   2.798   6.189 -0.7915 -0.6375  3.5938
 9191TIP3   OH249063   0.840   6.628  11.474  0.2625 -0.2014  0.4927
 9191TIP3    H149064   0.813   6.687  11.403  1.8071  1.0101  0.8829
 9191TIP3    H249065   0.921   6.589  11.442  0.0958 -0.8988  0.9199
 9192TIP3   OH249066   4.861   0.354   6.074  0.6529  0.0970 -0.2253
 9192TIP3    H149067   4.915   0.386   6.146 -0.4602  0.3483  0.5020
 9192TIP3    H249068   4.913   0.284   6.035  0.6404 -1.0657  1.7598
 9193TIP3   OH249069   3.074   5.200  16.390 -0.0853 -0.3226 -0.0827
 9193TIP3    H149070   3.144   5.237  16.443  0.2272 -1.5227  0.3443
 9193TIP3    H249071   3.114   5.181  16.306  0.1161 -0.9977  0.1572
 9194TIP3   OH249072   0.621   2.818   6.210  0.2951  0.0072 -0.3143
 9194TIP3    H149073   0.631   2.881   6.280 -2.6857  0.7132 -0.4754
 9194TIP3    H249074   0.640   2.868   6.130 -1.8139  0.6885 -0.4222
 9195TIP3   OH249075   6.373   5.824  14.907  0.2275 -0.2505  0.4089
 9195TIP3    H149076   6.325   5.907  14.902  0.5736 -0.1341 -1.5397
 9195TIP3    H249077   6.314   5.765  14.954  0.4156  1.3794  2.7870
 9196TIP3   OH249078   0.242   1.779   6.990 -0.2415 -0.1469 -0.0142
 9196TIP3    H149079   0.221   1.706   6.931  0.2654 -0.2582 -0.0633
 9196TIP3    H249080   0.338   1.776   6.997 -0.1490  1.0062 -0.6613
 9197TIP3   OH249081   5.349   4.826  13.021 -0.9920 -0.1973  0.2805
 9197TIP3    H149082   5.349   4.756  12.956  0.3399 -0.9276  1.0489
 9197TIP3    H249083   5.297   4.791  13.094 -1.0677 -0.0326  0.3069
 9198TIP3   OH249084   0.927   1.359  13.899  0.8965  0.3561 -0.1648
 9198TIP3    H149085   0.994   1.316  13.951  1.8401  2.4899  0.4638
 9198TIP3    H249086   0.973   1.389  13.821 -0.0240 -0.8630 -1.1979
 9199TIP3   OH249087   5.639   0.676  17.125  0.2622  0.0320  0.7232
 9199TIP3    H149088   5.714   0.735  17.110  0.5359 -0.1252  1.4645
 9199TIP3    H249089   5.606   0.701  17.211 -0.2219 -0.2503  0.6192
 9200TIP3   OH249090   4.266   6.214   0.989 -0.2335 -0.4527  0.1299
 9200TIP3    H149091   4.262   6.172   0.903 -0.2145 -0.4370  0.1214
 9200TIP3    H249092   4.221   6.298   0.976  0.4509 -0.1110 -0.0663
 9201TIP3   OH249093   2.863   5.825  11.608 -0.2117  0.5757 -0.5096
 9201TIP3    H149094   2.936   5.856  11.662 -0.3299  0.2513 -0.1643
 9201TIP3    H249095   2.806   5.777  11.669 -0.0342 -0.3216 -1.0488
 9202TIP3   OH249096   5.325   2.466   3.396 -0.2145  0.2633  0.1407
 9202TIP3    H149097   5.387   2.520   3.348  1.6266  0.0829  2.2394
 9202TIP3    H249098   5.267   2.529   3.439 -0.2795  0.4618 -0.2284
 9203TIP3   OH249099   4.273   3.562   3.636  0.0963  0.6960 -0.2472
 9203TIP3    H149100   4.309   3.644   3.603 -0.4351  0.3832 -1.6710
 9203TIP3    H249101   4.298   3.559   3.728  1.6290  1.6231 -0.6178
 9204TIP3   OH249102   5.030   4.653  13.667 -0.8300 -0.6271 -0.1777
 9204TIP3    H149103   5.034   4.724  13.731 -0.0245 -0.6508 -0.1939
 9204TIP3    H249104   5.094   4.589  13.698 -1.6168 -1.3869 -0.1117
 9205TIP3   OH249105   2.022   1.717  13.951  0.6966  0.1421  0.1698
 9205TIP3    H149106   1.991   1.771  13.879 -0.2960 -1.1557 -0.3889
 9205TIP3    H249107   2.009   1.772  14.029 -0.7651  0.5162 -0.3252
 9206TIP3   OH249108   2.175   5.194  16.894 -0.1992  0.6824 -0.0345
 9206TIP3    H149109   2.177   5.229  16.805  0.2283  0.3432 -0.1652
 9206TIP3    H249110   2.223   5.111  16.887 -0.1504  0.6639  0.5155
 9207TIP3   OH249111   2.198   0.338   1.897  0.1845  0.3467  0.2292
 9207TIP3    H149112   2.219   0.432   1.898 -0.5128  0.5217 -1.1242
 9207TIP3    H249113   2.265   0.299   1.953  3.0759  1.1402 -2.5051
 9208TIP3   OH249114   0.489   2.472   2.463  0.8676 -0.2152  0.1771
 9208TIP3    H149115   0.402   2.504   2.483  0.2405 -0.2054 -2.3706
 9208TIP3    H249116   0.489   2.381   2.495  0.1772  0.0169  0.8399
 9209TIP3   OH249117   4.605   2.702   0.782 -0.1854 -0.0443  0.7825
 9209TIP3    H149118   4.580   2.612   0.762 -0.7976 -0.1114  1.8702
 9209TIP3    H249119   4.523   2.750   0.786  0.2146  0.9287 -1.4359
 9210TIP3   OH249120   3.526   5.256   1.039 -0.1384  0.0923 -0.3158
 9210TIP3    H149121   3.609   5.216   1.011  1.2106  1.2989  1.8582
 9210TIP3    H249122   3.477   5.183   1.077  0.6839 -0.2871  0.0437
 9211TIP3   OH249123   3.183   6.726  14.872 -0.4237 -0.0856  0.3520
 9211TIP3    H149124   3.276   6.704  14.862  0.3511  2.4996  1.3317
 9211TIP3    H249125   3.151   6.663  14.937  0.5020 -1.3079 -0.3387
 9212TIP3   OH249126   2.703   6.474   4.424 -0.0000  0.1382 -0.0438
 9212TIP3    H149127   2.735   6.539   4.486 -1.6894 -0.2513  1.2697
 9212TIP3    H249128   2.670   6.402   4.479 -0.2194 -0.8353 -1.4187
 9213TIP3   OH249129   5.141   1.574   4.542  0.4714 -0.3721  0.3380
 9213TIP3    H149130   5.056   1.570   4.498  0.5671  0.2935  0.0852
 9213TIP3    H249131   5.134   1.649   4.601  0.9141 -0.2609  0.2473
 9214TIP3   OH249132   2.001   5.595  15.273  0.3984 -0.5275  0.4962
 9214TIP3    H149133   1.926   5.609  15.330  0.4113  0.1566  0.3494
 9214TIP3    H249134   2.068   5.557  15.330  0.1354 -0.6080  0.7538
 9215TIP3   OH249135   0.174   1.624  16.724  0.6628 -0.2403  0.0695
 9215TIP3    H149136   0.091   1.610  16.770  0.8183  1.8810  1.0341
 9215TIP3    H249137   0.157   1.597  16.634 -1.5305  1.6249 -0.0899
 9216TIP3   OH249138   0.604   5.213   0.831  0.3210  0.1447 -0.4125
 9216TIP3    H149139   0.533   5.223   0.894  0.6181 -0.0015 -0.0562
 9216TIP3    H249140   0.669   5.279   0.856  1.2178 -1.0735  0.4930
 9217TIP3   OH249141   0.953   1.033   2.416  0.1970 -0.4690  0.2515
 9217TIP3    H149142   0.959   0.940   2.438  0.4509 -0.3407  0.7305
 9217TIP3    H249143   0.859   1.050   2.406  0.1607 -0.8106  0.0168
 9218TIP3   OH249144   0.303   6.786  14.033 -0.1084  0.0728  0.4006
 9218TIP3    H149145   0.244   6.830  13.971  0.8809  0.4820 -0.2711
 9218TIP3    H249146   0.331   6.707  13.987 -0.0488 -0.0646  0.6745
 9219TIP3   OH249147   5.215   3.251  14.916 -0.1327 -0.1354  0.3113
 9219TIP3    H149148   5.120   3.236  14.922 -0.0793 -1.3010 -1.3890
 9219TIP3    H249149   5.239   3.217  14.830  1.7422  0.6936  0.4897
 9220TIP3   OH249150   0.771   4.232  16.333 -0.1902  0.0937  0.4204
 9220TIP3    H149151   0.772   4.167  16.263 -0.4673  1.1678 -0.5973
 9220TIP3    H249152   0.863   4.238  16.360 -0.1036 -0.4370  0.2675
 9221TIP3   OH249153   1.710   3.442   2.968 -0.2863 -0.1325  0.3946
 9221TIP3    H149154   1.708   3.534   2.992  0.3567 -0.0967  0.3358
 9221TIP3    H249155   1.619   3.413   2.973 -0.4425  0.4211  0.7368
 9222TIP3   OH249156   3.948   5.088   5.836 -0.6902 -0.2003  0.5420
 9222TIP3    H149157   3.904   5.003   5.844 -0.2294 -0.2398  2.9002
 9222TIP3    H249158   3.879   5.152   5.853 -0.8552 -0.1037 -0.4397
 9223TIP3   OH249159   2.317   0.844  16.098  0.0009 -0.0761  0.1570
 9223TIP3    H149160   2.355   0.756  16.104  1.1396  0.4994  1.7091
 9223TIP3    H249161   2.316   0.864  16.005 -0.4350 -1.8005 -0.2256
 9224TIP3   OH249162   4.325   1.183  15.520 -0.7622  0.2528 -0.5008
 9224TIP3    H149163   4.259   1.187  15.589 -1.1448  1.3420 -0.9110
 9224TIP3    H249164   4.381   1.259  15.536 -1.0061  0.6548 -1.5267
 9225TIP3   OH249165   5.698   4.641   6.121 -0.4465  0.5695 -0.6420
 9225TIP3    H149166   5.621   4.665   6.070  1.3320  3.3335 -2.1203
 9225TIP3    H249167   5.754   4.594   6.059 -0.5380 -0.6444  0.1845
 9226TIP3   OH249168   5.673   5.694  12.143  0.8358  0.6370 -0.3676
 9226TIP3    H149169   5.607   5.678  12.075  0.5293 -0.0550  0.0827
 9226TIP3    H249170   5.656   5.626  12.209  1.0940  1.3239  0.4210
 9227TIP3   OH249171   1.903   3.190  17.149 -0.3680 -0.1701  0.1001
 9227TIP3    H149172   1.981   3.243  17.166  0.5668 -1.3465 -0.4322
 9227TIP3    H249173   1.854   3.190  17.231  0.7744 -0.3687  0.7854
 9228TIP3   OH249174   2.170   1.285  11.233 -0.4196  0.1366 -0.2324
 9228TIP3    H149175   2.158   1.215  11.298  1.3862  1.4079  1.5319
 9228TIP3    H249176   2.149   1.243  11.149 -0.0507 -2.3209  0.8500
 9229TIP3   OH249177   3.212   0.865   1.730 -0.6258 -0.4261  0.2150
 9229TIP3    H149178   3.227   0.957   1.708 -0.3915 -0.6276 -0.5007
 9229TIP3    H249179   3.290   0.838   1.778  0.4629 -0.9316 -1.7728
 9230TIP3   OH249180   5.629   3.993   3.736 -0.9306 -0.6736  0.3980
 9230TIP3    H149181   5.580   3.914   3.712 -0.7171 -0.3563 -1.1213
 9230TIP3    H249182   5.615   4.053   3.664  0.5670 -0.0646  0.5998
 9231TIP3   OH249183   0.002   2.038  14.541  0.6003 -0.1490 -0.1040
 9231TIP3    H149184  -0.053   2.097  14.490  0.7389  0.6645  0.6774
 9231TIP3    H249185   0.083   2.032  14.490  1.2455  1.7143  0.6709
 9232TIP3   OH249186   4.858   6.283   5.599 -0.2078 -0.0494 -0.1377
 9232TIP3    H149187   4.882   6.202   5.555 -0.4032  0.2240 -0.7628
 9232TIP3    H249188   4.908   6.351   5.554  2.3346 -0.1683  2.4126
 9233TIP3   OH249189   1.337   4.166   4.497 -0.1351  0.1413  0.4076
 9233TIP3    H149190   1.257   4.119   4.518 -1.8015  2.2496 -0.9774
 9233TIP3    H249191   1.367   4.202   4.581 -0.1437 -1.3884  1.0679
 9234TIP3   OH249192   5.170   4.654   5.057 -0.2158  0.1518 -0.2669
 9234TIP3    H149193   5.109   4.580   5.061 -0.3240  0.2153 -0.7605
 9234TIP3    H249194   5.154   4.702   5.138 -1.1346  0.4061 -0.5863
 9235TIP3   OH249195   0.496   1.935   0.997 -0.8108  0.3434 -0.1277
 9235TIP3    H149196   0.554   2.009   1.014  1.6684 -1.7465  0.8574
 9235TIP3    H249197   0.421   1.949   1.054  1.7037 -0.1489  3.4418
 9236TIP3   OH249198   3.963   1.791   0.743  0.2020  0.8434 -0.7408
 9236TIP3    H149199   4.045   1.822   0.705 -0.0131  0.8980 -1.1653
 9236TIP3    H249200   3.968   1.817   0.835  0.2115  1.7585 -0.9952
 9237TIP3   OH249201   3.555   0.428  12.360 -0.7404  0.1623  0.4383
 9237TIP3    H149202   3.576   0.478  12.439 -0.0469  1.1315 -0.3603
 9237TIP3    H249203   3.461   0.440  12.349 -0.4361  2.0138 -0.2396
 9238TIP3   OH249204   4.001   0.466  14.166 -0.0927  0.2794  0.0743
 9238TIP3    H149205   3.951   0.536  14.208 -0.9088  0.4659 -1.1863
 9238TIP3    H249206   3.963   0.458  14.078  1.7191  0.0492 -0.7169
 9239TIP3   OH249207   2.567   6.421  11.707 -0.0357  0.4780 -0.0401
 9239TIP3    H149208   2.501   6.407  11.640  0.6757 -1.0678 -0.4393
 9239TIP3    H249209   2.650   6.409  11.662  0.4437 -0.7799  1.1470
 9240TIP3   OH249210   1.403   3.224   4.142  0.5272 -0.3284 -0.5004
 9240TIP3    H149211   1.422   3.139   4.181 -0.1721 -0.6625 -0.8758
 9240TIP3    H249212   1.336   3.206   4.076  0.7218  0.4399 -0.9185
 9241TIP3   OH249213   4.065   0.951  16.644 -0.7437 -0.2138  0.7091
 9241TIP3    H149214   4.004   0.905  16.586 -1.4034  0.8166  0.5597
 9241TIP3    H249215   4.059   0.906  16.728  1.3523 -2.6883 -0.3989
 9242TIP3   OH249216   4.069   3.573  16.725  0.3865  0.4488 -0.6412
 9242TIP3    H149217   4.155   3.616  16.719  1.4250 -1.6068 -1.2014
 9242TIP3    H249218   4.088   3.487  16.763 -1.7981  0.8792  1.5850
 9243TIP3   OH249219   4.016   6.477  10.879  0.1975  0.1196  0.3359
 9243TIP3    H149220   3.997   6.504  10.789 -0.8152  1.6353  0.9822
 9243TIP3    H249221   4.080   6.540  10.911 -2.0167  1.7116  1.7858
 9244TIP3   OH249222   2.098   0.252   0.716  0.0088 -0.2003 -0.1031
 9244TIP3    H149223   2.180   0.296   0.695 -1.0711  2.3079  0.7594
 9244TIP3    H249224   2.102   0.236   0.810  0.0034 -1.1694 -0.2594
 9245TIP3   OH249225   5.433   4.272   1.279 -0.5480 -0.2241  0.2781
 9245TIP3    H149226   5.429   4.177   1.290 -2.6032 -0.2871 -0.7535
 9245TIP3    H249227   5.403   4.287   1.189 -1.9629  1.5060  1.0129
 9246TIP3   OH249228   0.560   1.667  17.184  0.3847  0.0967 -0.3677
 9246TIP3    H149229   0.599   1.747  17.150 -0.0628  0.5758  0.2400
 9246TIP3    H249230   0.466   1.684  17.181  0.3766  1.3904  4.0705
 9247TIP3   OH249231   0.942   3.208   2.910 -0.0462  0.3161  0.1925
 9247TIP3    H149232   1.023   3.162   2.887 -0.6686  0.1890 -1.8402
 9247TIP3    H249233   0.875   3.140   2.908 -1.2462  1.4852 -4.3700
 9248TIP3   OH249234   6.154   3.879   5.961 -0.8427 -0.2968  0.1851
 9248TIP3    H149235   6.240   3.887   5.920 -1.1828 -0.2763 -0.5243
 9248TIP3    H249236   6.156   3.941   6.034 -0.4663  0.1224 -0.1804
 9249TIP3   OH249237   0.032   2.099   3.202  0.2113 -0.0622  0.4551
 9249TIP3    H149238  -0.002   2.100   3.292 -0.9663  2.5949  0.0112
 9249TIP3    H249239   0.021   2.189   3.171  1.9439 -0.6218 -1.8683
 9250TIP3   OH249240   0.951   2.604  12.687  0.2552 -0.5292 -0.5087
 9250TIP3    H149241   0.897   2.581  12.763  0.9575 -0.0140  0.1552
 9250TIP3    H249242   1.041   2.597  12.719  0.5757 -1.0571 -1.5149
 9251TIP3   OH249243   3.324   1.561  11.613  0.1444 -0.0311 -0.0555
 9251TIP3    H149244   3.286   1.597  11.693 -2.3536 -0.2495 -1.1038
 9251TIP3    H249245   3.293   1.470  11.611  0.9225 -0.2878 -0.8372
 9252TIP3   OH249246   0.093   3.920  12.979 -0.7852  0.2995 -0.2985
 9252TIP3    H149247   0.155   3.912  13.051 -1.5277  0.8144  0.4011
 9252TIP3    H249248   0.147   3.947  12.904 -0.1101  0.3458  0.1996
 9253TIP3   OH249249   2.935   2.143  10.857 -0.1420  0.5031 -0.3140
 9253TIP3    H149250   2.868   2.076  10.870  1.5246 -1.0742  0.3614
 9253TIP3    H249251   2.929   2.165  10.764 -3.3568  2.3351  0.2639
 9254TIP3   OH249252   2.908   0.924  15.550  0.4555 -0.0093  0.0409
 9254TIP3    H149253   2.834   0.985  15.547  1.3072  1.0325 -0.1094
 9254TIP3    H249254   2.903   0.875  15.468 -0.0146  0.1173 -0.0050
 9255TIP3   OH249255   0.500   4.894  12.805 -0.4507  0.4471 -0.0780
 9255TIP3    H149256   0.478   4.803  12.828 -1.7944  1.3458  2.5000
 9255TIP3    H249257   0.482   4.900  12.712 -1.0195 -1.7750 -0.1483
 9256TIP3   OH249258   3.742   3.142   4.978 -0.7938  0.1532 -0.1005
 9256TIP3    H149259   3.759   3.048   4.965 -1.1831  0.2959 -1.7605
 9256TIP3    H249260   3.761   3.182   4.893 -0.6989  1.5739  0.5815
 9257TIP3   OH249261   3.961   5.426  14.535 -0.4130  0.0773 -0.0592
 9257TIP3    H149262   3.995   5.339  14.513  0.0463  0.2046  0.1285
 9257TIP3    H249263   3.867   5.414  14.544 -0.4724 -0.2047 -1.0139
 9258TIP3   OH249264   0.174   5.312  16.318  0.0207 -0.6504 -0.8347
 9258TIP3    H149265   0.163   5.264  16.400 -2.8688  0.7863 -0.3428
 9258TIP3    H249266   0.225   5.389  16.342  2.7457 -2.2419 -1.2258
 9259TIP3   OH249267   1.567   2.150  15.627  0.0279 -0.0020  0.1395
 9259TIP3    H149268   1.549   2.117  15.539 -0.2700 -1.6472  0.7890
 9259TIP3    H249269   1.553   2.244  15.622 -0.8660 -0.2183 -1.3459
 9260TIP3   OH249270   4.591   4.039  11.625  0.1440  0.2872  0.3958
 9260TIP3    H149271   4.682   4.060  11.601 -0.8298  1.5786 -2.4165
 9260TIP3    H249272   4.538   4.094  11.567 -2.4572  0.1065  2.5085
 9261TIP3   OH249273   1.334   1.837   4.984  0.2251  0.3593 -0.2986
 9261TIP3    H149274   1.363   1.808   4.898 -0.9262 -1.6172 -0.0553
 9261TIP3    H249275   1.284   1.917   4.967  1.1696  0.7461 -1.2995
 9262TIP3   OH249276   2.563   4.820  16.962  0.1102 -0.0289 -0.0857
 9262TIP3    H149277   2.577   4.831  16.868 -0.2935  0.3764 -0.0985
 9262TIP3    H249278   2.631   4.872  17.004 -0.9795  1.4934 -0.1527
 9263TIP3   OH249279   4.950   5.395  12.739 -0.5309 -0.2552  0.4589
 9263TIP3    H149280   5.036   5.359  12.759  0.2520  2.2299  1.8355
 9263TIP3    H249281   4.912   5.417  12.824 -2.0539 -0.2652 -0.1910
 9264TIP3   OH249282   2.907   5.070   3.181  0.6549 -0.2766 -0.1795
 9264TIP3    H149283   2.862   4.986   3.189 -1.3835  0.8065  0.1508
 9264TIP3    H249284   2.971   5.057   3.111  1.4163 -2.5158  0.8766
 9265TIP3   OH249285   3.188   4.714  11.825  0.0423  0.4665  0.0469
 9265TIP3    H149286   3.140   4.634  11.846  1.5714 -0.5708 -0.2866
 9265TIP3    H249287   3.155   4.779  11.886 -1.6865 -0.2532 -0.1022
 9266TIP3   OH249288   1.819   3.353  16.154 -0.2445  0.0279  0.1671
 9266TIP3    H149289   1.828   3.413  16.080 -2.4210 -0.8132 -0.8149
 9266TIP3    H249290   1.840   3.407  16.230  1.9979  0.9222 -1.0204
 9267TIP3   OH249291   6.198   2.937  15.984 -0.1343 -0.0566 -0.3163
 9267TIP3    H149292   6.255   2.869  16.022 -0.6240  0.1257  0.7681
 9267TIP3    H249293   6.127   2.888  15.943 -0.9504 -0.2000  1.2143
 9268TIP3   OH249294   4.431   4.690  14.747  0.3490 -0.0443  0.0123
 9268TIP3    H149295   4.482   4.651  14.676  0.8579  0.4017  0.1217
 9268TIP3    H249296   4.387   4.764  14.706 -0.8271 -0.8895 -0.2568
 9269TIP3   OH249297   5.350   2.650  13.550 -0.3127  0.4743 -0.0842
 9269TIP3    H149298   5.313   2.619  13.468 -0.0842  0.6203 -0.2423
 9269TIP3    H249299   5.428   2.597  13.562  0.1742  1.1006 -0.4427
 9270TIP3   OH249300   1.345   0.841   5.655 -0.0271  0.3374 -0.3880
 9270TIP3    H149301   1.290   0.919   5.662  0.4671  0.9189 -2.6801
 9270TIP3    H249302   1.296   0.783   5.596 -1.1086 -1.7525  2.4296
 9271TIP3   OH249303   1.470   3.833   2.133  0.1694 -0.3079  0.3089
 9271TIP3    H149304   1.541   3.770   2.145  0.4666 -0.0505 -0.0760
 9271TIP3    H249305   1.514   3.917   2.126 -0.1882 -0.1246  0.2605
 9272TIP3   OH249306   2.094   6.389  16.739  0.1076 -0.1633 -0.1767
 9272TIP3    H149307   2.097   6.307  16.788  3.7452 -0.1913 -0.2705
 9272TIP3    H249308   2.049   6.451  16.797 -1.1222 -1.7433  0.5999
 9273TIP3   OH249309   3.134   5.331  12.173 -0.3180  0.0480  0.0015
 9273TIP3    H149310   3.109   5.423  12.163 -1.9606 -0.4013 -0.2498
 9273TIP3    H249311   3.052   5.283  12.162  0.3359 -1.3825  1.2082
 9274TIP3   OH249312   5.068   1.997   1.801  0.2191  0.8452  0.4380
 9274TIP3    H149313   5.026   2.075   1.763 -0.8280  0.5728  1.0193
 9274TIP3    H249314   5.082   2.020   1.893  1.6306  1.0452  0.1770
 9275TIP3   OH249315   3.770   5.146   1.007 -0.2665  0.1516  0.3032
 9275TIP3    H149316   3.774   5.108   0.919  0.0619 -0.1476  0.4453
 9275TIP3    H249317   3.828   5.222   1.003 -0.0869  0.0156  0.3188
 9276TIP3   OH249318   5.532   2.931   1.945 -0.4475 -0.5842  0.1453
 9276TIP3    H149319   5.598   2.891   1.888 -1.1124  0.2926 -1.2792
 9276TIP3    H249320   5.451   2.883   1.925 -0.8035  0.1003 -0.0822
 9277TIP3   OH249321   3.280   5.581  12.958  0.4125 -0.1051  0.6041
 9277TIP3    H149322   3.290   5.578  12.862  2.8789  0.2335  0.8114
 9277TIP3    H249323   3.358   5.628  12.988 -0.3955 -0.1272  2.7900
 9278TIP3   OH249324   4.953   4.841  13.449  0.2070 -0.3310 -0.1270
 9278TIP3    H149325   4.947   4.779  13.376  2.6184 -0.7297 -0.0424
 9278TIP3    H249326   4.962   4.786  13.527  2.6742  0.0948 -0.0821
 9279TIP3   OH249327   2.139   0.212   2.884  0.2477  0.0284  0.2936
 9279TIP3    H149328   2.222   0.260   2.882  1.5643 -2.2055 -0.4462
 9279TIP3    H249329   2.155   0.139   2.945 -0.8505 -0.9507 -0.5795
 9280TIP3   OH249330   5.691   1.658   1.474  0.4153 -0.1117 -0.1882
 9280TIP3    H149331   5.619   1.702   1.519  0.1233  0.2252 -0.9790
 9280TIP3    H249332   5.764   1.664   1.536 -0.1233 -0.1178  0.4612
 9281TIP3   OH249333   4.957   0.217  12.192  0.2428  0.2027  0.4859
 9281TIP3    H149334   4.898   0.242  12.121  0.1195  2.3045  1.2815
 9281TIP3    H249335   4.912   0.145  12.237 -0.7584  0.4237 -0.1509
 9282TIP3   OH249336   1.001   0.212   4.433 -0.1096  0.1184 -0.1639
 9282TIP3    H149337   0.915   0.189   4.398  0.2795  0.4568 -1.3400
 9282TIP3    H249338   0.983   0.274   4.504 -0.7911  0.6783 -0.8264
 9283TIP3   OH249339   6.598   3.994  14.368 -0.8378  0.4853  0.1861
 9283TIP3    H149340   6.511   3.952  14.368 -0.4473 -0.3305 -0.0236
 9283TIP3    H249341   6.650   3.939  14.426 -0.6997  1.4816  1.0049
 9284TIP3   OH249342   6.048   1.633  12.844 -0.2872  0.7700 -0.1372
 9284TIP3    H149343   6.128   1.640  12.897 -1.2049  3.4266  1.0137
 9284TIP3    H249344   6.069   1.570  12.776  1.1591 -2.3414  3.0480
 9285TIP3   OH249345   0.859   4.144  11.311  0.0548 -0.6108 -0.0585
 9285TIP3    H149346   0.803   4.073  11.338 -0.3152 -0.3598 -0.1591
 9285TIP3    H249347   0.825   4.170  11.225  0.5670 -0.7178 -0.2966
 9286TIP3   OH249348   6.628   6.565   0.612 -0.2376 -0.2293 -0.2441
 9286TIP3    H149349   6.640   6.647   0.565  0.3561 -1.3161 -2.0424
 9286TIP3    H249350   6.546   6.530   0.578  0.0279 -0.8672 -0.2386
 9287TIP3   OH249351   0.797   5.451   4.890  0.1387  0.1379  0.4724
 9287TIP3    H149352   0.880   5.499   4.895  0.0909  0.1652  1.0573
 9287TIP3    H249353   0.800   5.390   4.964  0.6799 -1.5413 -0.8972
 9288TIP3   OH249354   5.254   0.393  12.961  0.1888  0.0156 -0.1007
 9288TIP3    H149355   5.287   0.358  12.879  2.1024  1.7819 -0.1283
 9288TIP3    H249356   5.332   0.416  13.011 -0.9616 -0.0019  1.7652
 9289TIP3   OH249357   2.091   0.939  15.702  0.1573  0.3602  0.5245
 9289TIP3    H149358   2.090   1.004  15.632  1.8704 -2.0141 -1.7994
 9289TIP3    H249359   2.155   0.973  15.765 -1.1613  2.3526  0.8354
 9290TIP3   OH249360   4.135   1.640   4.170  0.1359 -0.4461 -0.1385
 9290TIP3    H149361   4.190   1.699   4.221  0.2314  1.1464 -2.0273
 9290TIP3    H249362   4.189   1.614   4.096 -0.9965 -0.3640 -1.0161
 9291TIP3   OH249363   6.814   1.584   5.995 -0.2114 -0.1379 -0.2601
 9291TIP3    H149364   6.721   1.564   5.980 -0.7982  0.6027  2.1663
 9291TIP3    H249365   6.821   1.679   5.986  0.3148 -0.1952 -0.4824
 9292TIP3   OH249366   0.894   4.117   3.109  0.1163  0.1101  0.1657
 9292TIP3    H149367   0.858   4.030   3.093 -0.6125  0.5988 -0.9112
 9292TIP3    H249368   0.821   4.167   3.145 -0.2199  0.9952 -1.6723
 9293TIP3   OH249369   2.856   2.714  16.395  0.0909  0.2430 -0.8144
 9293TIP3    H149370   2.883   2.635  16.348  2.7282 -0.0730  1.1341
 9293TIP3    H249371   2.782   2.687  16.449  1.1022 -0.9490 -0.0212
 9294TIP3   OH249372   1.551   0.708   6.315  0.5057  0.4198  0.1503
 9294TIP3    H149373   1.547   0.760   6.395  0.1400  2.4162 -1.1200
 9294TIP3    H249374   1.460   0.685   6.296  0.4420  1.1444 -0.4401
 9295TIP3   OH249375   6.812   0.914   5.655 -0.3127  0.0366 -0.0589
 9295TIP3    H149376   6.830   0.821   5.669  0.3583  0.2662  0.6304
 9295TIP3    H249377   6.781   0.918   5.565  0.2087 -0.7849 -0.2872
 9296TIP3   OH249378   5.871   0.571  16.878  0.0068 -0.2599  0.5345
 9296TIP3    H149379   5.839   0.486  16.847 -1.3959  0.4473  0.0005
 9296TIP3    H249380   5.874   0.562  16.973  2.2818 -1.7342  0.3485
 9297TIP3   OH249381   4.097   3.781  13.626 -0.4845 -0.1960 -0.0278
 9297TIP3    H149382   4.187   3.807  13.611  0.0300 -2.1459 -0.5574
 9297TIP3    H249383   4.103   3.701  13.678 -1.7624 -1.9250 -2.4228
 9298TIP3   OH249384   5.937   2.582  16.236  0.2704 -0.2250  0.8739
 9298TIP3    H149385   5.972   2.664  16.272  1.7481 -0.2789 -0.3572
 9298TIP3    H249386   5.871   2.554  16.298  1.6809  0.4682  2.7252
 9299TIP3   OH249387   4.455   0.557  11.335 -0.4751  0.0390 -0.4399
 9299TIP3    H149388   4.499   0.607  11.403 -0.2705 -0.1623 -0.4250
 9299TIP3    H249389   4.517   0.555  11.262  0.2522 -1.6884  0.1810
 9300TIP3   OH249390   2.087   2.457  15.930 -0.6714 -0.1398 -0.1028
 9300TIP3    H149391   1.996   2.427  15.929 -0.9676  0.7209  0.1625
 9300TIP3    H249392   2.135   2.387  15.973 -1.2771 -0.4026  0.1583
 9301TIP3   OH249393   4.881   3.179   0.842  0.0887  0.1257 -0.2073
 9301TIP3    H149394   4.792   3.202   0.816 -0.2990 -1.0453  0.0295
 9301TIP3    H249395   4.882   3.083   0.841  1.1818  0.1201  0.3372
 9302TIP3   OH249396   1.864   5.726  17.098 -0.4472 -0.4483 -0.3782
 9302TIP3    H149397   1.832   5.650  17.050 -1.9867 -0.1218  0.1120
 9302TIP3    H249398   1.839   5.801  17.044 -2.5527 -0.0488  1.0912
 9303TIP3   OH249399   1.921   2.142  13.245  0.2170  0.7355 -0.1678
 9303TIP3    H149400   1.933   2.059  13.200  1.4409  0.1339  1.1975
 9303TIP3    H249401   1.924   2.208  13.176  0.4859 -0.2620 -1.1224
 9304TIP3   OH249402   6.769   0.295  17.287  0.2452  0.3020 -0.3469
 9304TIP3    H149403   6.688   0.345  17.292 -0.1047 -0.4470  2.1255
 9304TIP3    H249404   6.763   0.232  17.360  2.0141 -1.2875 -1.5239
 9305TIP3   OH249405   4.567   5.234  14.229 -0.2258  0.2652 -0.5705
 9305TIP3    H149406   4.624   5.273  14.295 -0.2106 -0.8689  0.1089
 9305TIP3    H249407   4.500   5.188  14.280 -1.7450  1.5824 -1.3670
 9306TIP3   OH249408   5.639   0.026  13.581 -0.4950  0.3224  0.9085
 9306TIP3    H149409   5.676   0.075  13.508  0.2156 -0.3790  0.7841
 9306TIP3    H249410   5.549   0.058  13.589 -0.9594 -0.4313 -1.0508
 9307TIP3   OH249411   4.981   1.110  13.544 -0.3440  0.3127  0.0291
 9307TIP3    H149412   5.043   1.111  13.617 -1.4410  0.8867  0.9858
 9307TIP3    H249413   4.935   1.026  13.554  1.5165 -0.9724 -1.7845
 9308TIP3   OH249414   4.847   2.780   6.471 -0.5006  0.0083 -0.2089
 9308TIP3    H149415   4.776   2.840   6.493  0.0155  0.6851 -0.3324
 9308TIP3    H249416   4.820   2.739   6.389 -1.3424 -0.7238  0.4361
 9309TIP3   OH249417   6.614   4.701  16.418 -0.1680 -0.2494 -0.0502
 9309TIP3    H149418   6.573   4.673  16.500  0.6890 -0.7295  0.2164
 9309TIP3    H249419   6.572   4.647  16.351  2.3106 -3.0427  0.5929
 9310TIP3   OH249420   1.385   3.844  16.203 -0.0375  0.2394  0.1345
 9310TIP3    H149421   1.441   3.907  16.159  1.2224 -0.6196  0.5014
 9310TIP3    H249422   1.302   3.848  16.155  0.4616  1.2159 -0.6507
 9311TIP3   OH249423   3.796   3.801  14.142  0.3683  0.1442  0.6424
 9311TIP3    H149424   3.785   3.867  14.209  0.3952 -1.0185  1.8097
 9311TIP3    H249425   3.852   3.842  14.076  2.2527  0.4903  2.4302
 9312TIP3   OH249426   1.612   6.767  11.899  0.0668 -0.1155  0.1125
 9312TIP3    H149427   1.591   6.796  11.988  1.6073 -0.4993  0.6076
 9312TIP3    H249428   1.573   6.834  11.842 -0.8009  0.2068  1.0672
 9313TIP3   OH249429   5.864   3.885  12.835  0.2753 -0.2172 -0.4378
 9313TIP3    H149430   5.882   3.869  12.928 -1.7292  0.1817  0.0532
 9313TIP3    H249431   5.866   3.980  12.827  0.5004 -0.2552 -0.8068
 9314TIP3   OH249432   4.684   6.175   5.087 -0.6657  0.0718  0.0051
 9314TIP3    H149433   4.750   6.170   5.018 -1.1806  3.5969 -0.8513
 9314TIP3    H249434   4.600   6.167   5.041 -0.9418 -1.0829  0.6840
 9315TIP3   OH249435   1.453   0.451  12.716  0.0362  0.4234 -0.3373
 9315TIP3    H149436   1.443   0.522  12.779  2.4443  0.0726  0.4798
 9315TIP3    H249437   1.493   0.492  12.640  3.1413 -0.3032  0.8059
 9316TIP3   OH249438   1.918   1.150   3.070  0.2623 -0.0997  0.1662
 9316TIP3    H149439   1.843   1.200   3.101  1.1251  1.2835  0.0310
 9316TIP3    H249440   1.886   1.059   3.066 -1.4477  0.5000 -0.0818
 9317TIP3   OH249441   5.117   4.817   4.145  0.1127  0.3091 -0.3442
 9317TIP3    H149442   5.146   4.842   4.057  1.8352 -0.8194 -0.1301
 9317TIP3    H249443   5.192   4.772   4.182 -1.0691 -0.3796  1.2417
 9318TIP3   OH249444   4.758   1.118   3.870 -0.7187 -0.4867 -0.0956
 9318TIP3    H149445   4.744   1.086   3.959  3.4168  0.9506  1.1901
 9318TIP3    H249446   4.813   1.052   3.828 -0.3123  0.1948 -0.6541
 9319TIP3   OH249447   1.401   0.931   2.854 -0.3304  0.3787  0.3951
 9319TIP3    H149448   1.399   0.838   2.880  0.1568  0.5332  0.9850
 9319TIP3    H249449   1.310   0.951   2.832 -0.8867  0.3807  2.5267
 9320TIP3   OH249450   4.696   2.440   1.574 -0.0105  0.0361  0.2768
 9320TIP3    H149451   4.740   2.456   1.658  1.2918  0.7405 -0.5259
 9320TIP3    H249452   4.646   2.360   1.588  0.1977  0.1537  1.7312
 9321TIP3   OH249453   2.420   3.221   0.762 -0.2906  0.0597  0.1494
 9321TIP3    H149454   2.454   3.278   0.693  0.2456  0.2356  0.5525
 9321TIP3    H249455   2.415   3.277   0.839 -1.6590  0.0779  0.0666
 9322TIP3   OH249456   6.527   2.594   2.685  0.0220 -0.4761  0.2139
 9322TIP3    H149457   6.511   2.506   2.652  2.7309 -0.9354  0.0204
 9322TIP3    H249458   6.554   2.581   2.776  0.1657  0.1716  0.2664
 9323TIP3   OH249459   2.586   5.122   5.274  0.5087 -0.2089 -0.5541
 9323TIP3    H149460   2.628   5.093   5.193  0.6156 -0.2368 -0.4887
 9323TIP3    H249461   2.495   5.140   5.249  1.0503  1.7925 -1.1329
 9324TIP3   OH249462   5.364   5.611  13.901  0.3318  0.0166 -0.4976
 9324TIP3    H149463   5.287   5.584  13.851  0.0513  0.0236 -0.0799
 9324TIP3    H249464   5.377   5.541  13.965 -2.1046  2.1127  2.4627
 9325TIP3   OH249465   5.033   5.287   0.001 -0.4041  0.1530  0.2904
 9325TIP3    H149466   5.125   5.270   0.020 -0.9996 -2.2485  1.1658
 9325TIP3    H249467   4.985   5.235   0.065 -2.3791  0.5060 -0.8640
 9326TIP3   OH249468   2.230   0.892  10.555  0.2246  0.5324  0.3090
 9326TIP3    H149469   2.190   0.805  10.547  0.2054  0.4026  1.7180
 9326TIP3    H249470   2.183   0.946  10.492 -0.6299 -0.1759  0.3279
 9327TIP3   OH249471   1.368   0.623   3.460 -0.1924  0.2082 -0.9218
 9327TIP3    H149472   1.401   0.535   3.478 -0.0411  0.5143  0.3235
 9327TIP3    H249473   1.278   0.609   3.431 -0.0339 -0.3857 -1.1345
 9328TIP3   OH249474   6.130   6.021  13.908  0.2579  0.0500  0.1323
 9328TIP3    H149475   6.100   6.016  13.818  0.0898 -1.0437  0.2459
 9328TIP3    H249476   6.054   5.997  13.960  0.2151  1.1473  0.5930
 9329TIP3   OH249477   2.616   6.425   2.947  0.3035  0.3314 -0.5040
 9329TIP3    H149478   2.598   6.338   2.983 -0.6269 -0.0271 -1.7963
 9329TIP3    H249479   2.704   6.446   2.979  1.5658 -2.1237 -2.1074
 9330TIP3   OH249480   5.105   5.481   5.734  0.3006  0.1302 -0.0671
 9330TIP3    H149481   5.118   5.455   5.643 -1.8061 -1.0177 -0.0778
 9330TIP3    H249482   5.067   5.569   5.729 -1.2093 -0.5239 -0.3732
 9331TIP3   OH249483   6.715   3.201  14.329 -0.3109 -0.3334  0.1569
 9331TIP3    H149484   6.777   3.128  14.334  1.6443  1.2482 -0.2749
 9331TIP3    H249485   6.722   3.245  14.414 -0.8876 -0.1697  0.1247
 9332TIP3   OH249486   2.502   0.738   3.609 -0.5951 -0.4228  0.4410
 9332TIP3    H149487   2.440   0.767   3.676 -0.2326  1.8502 -0.1638
 9332TIP3    H249488   2.461   0.763   3.526  0.5695 -0.0253 -0.0186
 9333TIP3   OH249489   6.131   3.472   3.106  0.0585  0.0727  0.7903
 9333TIP3    H149490   6.064   3.494   3.041  0.8998  0.1801 -0.0588
 9333TIP3    H249491   6.105   3.518   3.185 -0.5258  0.6312  0.2750
 9334TIP3   OH249492   0.777   0.948  12.524  0.8088 -0.0743  0.2041
 9334TIP3    H149493   0.810   0.939  12.613 -1.2716 -1.9151  0.8545
 9334TIP3    H249494   0.698   1.002  12.533  0.2229 -0.8145 -0.4082
 9335TIP3   OH249495   1.898   2.977  11.356 -0.2113  0.2450  0.0311
 9335TIP3    H149496   1.830   3.004  11.293 -0.3630 -1.1513 -0.4131
 9335TIP3    H249497   1.975   3.028  11.331 -0.8586  1.2329  0.0254
 9336TIP3   OH249498   6.215   4.894   0.131 -0.5366 -0.4784 -0.2737
 9336TIP3    H149499   6.266   4.915   0.053  0.9315 -0.9899  0.5348
 9336TIP3    H249500   6.184   4.978   0.163  0.9194 -0.0300 -0.0247
 9337TIP3   OH249501   3.199   4.257  13.324  0.0496 -0.0810 -0.3990
 9337TIP3    H149502   3.209   4.353  13.325 -4.1618  0.4515 -0.6413
 9337TIP3    H249503   3.248   4.228  13.248  0.7802  1.9666 -0.7393
 9338TIP3   OH249504   2.122   2.294  15.069  0.1468  0.1039  0.3692
 9338TIP3    H149505   2.055   2.318  15.005  0.3160 -1.0627 -0.2618
 9338TIP3    H249506   2.202   2.287  15.018  0.3942 -0.2899  0.8059
 9339TIP3   OH249507   0.159   2.229  16.947  0.3674  0.1003 -0.6621
 9339TIP3    H149508   0.223   2.205  17.015  1.1307  0.2884 -1.3020
 9339TIP3    H249509   0.157   2.152  16.890  2.1247  1.1642 -2.2037
 9340TIP3   OH249510   6.581   5.679   0.295 -0.1092  0.5879  0.4755
 9340TIP3    H149511   6.539   5.763   0.274  1.3717  1.9344  2.6201
 9340TIP3    H249512   6.601   5.686   0.389  1.8303 -1.3592  0.2425
 9341TIP3   OH249513   0.921   2.126  12.372 -1.0548  0.3862 -0.2816
 9341TIP3    H149514   0.927   2.189  12.300 -1.4848 -0.8499 -1.4434
 9341TIP3    H249515   0.829   2.124  12.395 -1.5737 -2.0124 -2.3337
 9342TIP3   OH249516   5.000   6.307  15.922  0.0191 -0.3188 -0.0462
 9342TIP3    H149517   5.074   6.267  15.877 -0.3642 -2.5442  1.2080
 9342TIP3    H249518   5.038   6.345  16.001  0.4619  2.3450 -1.4658
 9343TIP3   OH249519   3.844   2.050   3.840  0.0816  0.7511 -0.2531
 9343TIP3    H149520   3.757   2.036   3.802 -0.1628  0.6392  0.3430
 9343TIP3    H249521   3.851   1.983   3.908  1.2185 -0.1899 -1.2813
 9344TIP3   OH249522   2.063   5.863  17.239  0.5723 -0.1622 -0.8457
 9344TIP3    H149523   1.984   5.833  17.194  0.7531 -2.1209  0.1156
 9344TIP3    H249524   2.059   5.821  17.324 -0.0510  3.8998  1.2790
 9345TIP3   OH249525   4.795   5.604   5.846 -0.4716 -0.4546  0.1004
 9345TIP3    H149526   4.753   5.690   5.844 -1.8828 -1.1369 -0.2431
 9345TIP3    H249527   4.798   5.581   5.939 -0.2833 -0.1173  0.1772
 9346TIP3   OH249528   0.235   1.385   3.746  0.4287  0.1382  0.5296
 9346TIP3    H149529   0.329   1.373   3.732  0.1484  0.5486 -1.7904
 9346TIP3    H249530   0.221   1.479   3.741 -0.3144 -0.0184 -0.4311
 9347TIP3   OH249531   0.631   5.643  11.976  0.2131 -0.0866 -0.5271
 9347TIP3    H149532   0.622   5.738  11.965 -0.5175 -0.1743 -0.6730
 9347TIP3    H249533   0.725   5.628  11.972  0.5591  0.9772  2.3144
 9348TIP3   OH249534   1.284   2.365   3.025 -0.5130 -0.0835 -0.1291
 9348TIP3    H149535   1.330   2.338   2.946 -1.1495  0.1078 -0.5738
 9348TIP3    H249536   1.312   2.302   3.092 -0.7220 -0.8451 -0.7467
 9349TIP3   OH249537   5.479   4.615   2.873  1.0483 -0.1502  0.3095
 9349TIP3    H149538   5.473   4.612   2.777  0.1366 -0.6823  0.3821
 9349TIP3    H249539   5.560   4.663   2.890 -0.2177  2.4953 -0.7457
 9350TIP3   OH249540   1.805   2.509  16.630  0.1020  0.3690 -0.5867
 9350TIP3    H149541   1.870   2.541  16.568  0.6093 -0.7335 -0.6399
 9350TIP3    H249542   1.720   2.529  16.590  0.4186  0.7819 -1.0477
 9351TIP3   OH249543   1.282   4.915   4.537 -0.3677 -0.7298  0.5178
 9351TIP3    H149544   1.224   4.871   4.599 -0.1857 -0.4128  0.9113
 9351TIP3    H249545   1.234   4.914   4.455 -0.7662 -0.8181  0.7524
 9352TIP3   OH249546   4.567   3.584   3.289 -0.3804  0.3202 -0.2183
 9352TIP3    H149547   4.630   3.519   3.256 -1.6687 -0.6085 -0.8739
 9352TIP3    H249548   4.585   3.590   3.383  0.6148  0.0022 -0.3802
 9353TIP3   OH249549   4.758   3.376   5.486 -0.2342 -0.5753  0.1415
 9353TIP3    H149550   4.821   3.358   5.556 -0.2159 -0.3930  0.1733
 9353TIP3    H249551   4.804   3.438   5.428 -0.9023  0.6901  0.9298
 9354TIP3   OH249552   3.384   0.737   5.872  0.3670 -0.0581  0.2787
 9354TIP3    H149553   3.430   0.667   5.918  0.1479  0.4169  1.2350
 9354TIP3    H249554   3.388   0.712   5.780  2.3078 -0.1598  0.3689
 9355TIP3   OH249555   3.027   1.231  12.378 -0.5330 -0.4539  0.0091
 9355TIP3    H149556   2.946   1.190  12.409 -0.0419 -1.3186  0.1800
 9355TIP3    H249557   3.058   1.173  12.308  1.3698 -1.6735  1.7722
 9356TIP3   OH249558   3.103   5.847  14.930  0.3083 -0.4080  0.4717
 9356TIP3    H149559   3.095   5.860  15.024 -0.2146 -1.6805  0.6098
 9356TIP3    H249560   3.042   5.910  14.891  1.9568  1.5021  0.8836
 9357TIP3   OH249561   6.493   6.751   2.274 -0.4029 -0.4298  0.1010
 9357TIP3    H149562   6.406   6.786   2.291 -0.6603 -1.0536  0.0954
 9357TIP3    H249563   6.549   6.793   2.339 -0.5717  0.5276 -0.3660
 9358TIP3   OH249564   3.107   1.409  17.215  0.1107 -0.2906 -0.4597
 9358TIP3    H149565   3.185   1.455  17.183  1.1865 -0.9237  1.2271
 9358TIP3    H249566   3.039   1.477  17.217  1.5621  1.1480  1.5288
 9359TIP3   OH249567   5.550   3.820   2.828 -0.0635  0.2474 -0.0940
 9359TIP3    H149568   5.553   3.892   2.765 -0.6069  0.0917 -0.3036
 9359TIP3    H249569   5.625   3.835   2.885  1.6739 -0.7521 -2.0315
 9360TIP3   OH249570   0.339   4.669   1.106  0.4500  0.2855  0.1933
 9360TIP3    H149571   0.343   4.754   1.150 -2.8168  0.7619 -0.2984
 9360TIP3    H249572   0.347   4.690   1.013  0.6736 -0.0612  0.1324
 9361TIP3   OH249573   0.731   2.369   3.086  0.3173 -0.4190  0.1270
 9361TIP3    H149574   0.800   2.306   3.065  1.3380  0.7528 -0.1156
 9361TIP3    H249575   0.703   2.404   3.001 -1.0667 -1.3859  0.1724
 9362TIP3   OH249576   5.368   4.674  15.711 -0.6154 -0.5393 -0.0783
 9362TIP3    H149577   5.283   4.676  15.667 -1.5915 -0.0219  1.7684
 9362TIP3    H249578   5.350   4.630  15.794 -0.1805  3.8629  2.4950
 9363TIP3   OH249579   3.676   0.993   5.769 -0.7226 -0.3012 -0.3061
 9363TIP3    H149580   3.747   1.057   5.757 -0.2155 -1.2775 -3.0502
 9363TIP3    H249581   3.672   0.979   5.863  2.7403 -0.2014 -0.0615
 9364TIP3   OH249582   6.142   3.369  14.830 -0.5435 -0.4505 -0.6055
 9364TIP3    H149583   6.114   3.393  14.918  0.8800  1.6537 -0.6914
 9364TIP3    H249584   6.074   3.405  14.773  1.0251  2.6271 -0.6569
 9365TIP3   OH249585   1.157   1.999  12.768 -0.0129  0.1597 -0.2070
 9365TIP3    H149586   1.219   2.066  12.739 -0.0612  1.2418  2.0582
 9365TIP3    H249587   1.207   1.917  12.764  1.4689  0.9668  1.2620
 9366TIP3   OH249588   2.625   2.582   4.427 -0.1770 -0.4484  0.1200
 9366TIP3    H149589   2.598   2.557   4.515  0.5609  0.1698  0.5367
 9366TIP3    H249590   2.611   2.677   4.424 -0.8220 -0.5644 -0.6589
 9367TIP3   OH249591   1.825   0.035  11.145 -0.0897 -0.0072  0.2852
 9367TIP3    H149592   1.800  -0.010  11.063  1.8595  1.1057 -0.9600
 9367TIP3    H249593   1.816  -0.032  11.212  2.4549 -2.2215 -1.4846
 9368TIP3   OH249594   1.577   5.274  13.377  0.0463  0.0791 -0.2424
 9368TIP3    H149595   1.591   5.359  13.418 -1.2031 -0.6741  1.8344
 9368TIP3    H249596   1.628   5.213  13.430 -0.7851 -0.7811 -0.4263
 9369TIP3   OH249597   2.524   6.783  12.103 -0.6624 -0.2724 -0.0737
 9369TIP3    H149598   2.471   6.706  12.078 -2.7363  0.8787  0.6707
 9369TIP3    H249599   2.613   6.750  12.107 -0.9749 -1.7784 -3.6077
 9370TIP3   OH249600   2.846   6.404  14.215 -0.1160  0.0508 -0.4059
 9370TIP3    H149601   2.802   6.473  14.264 -1.6971 -0.7475 -0.6490
 9370TIP3    H249602   2.932   6.440  14.194 -1.3366  2.4114 -1.5319
 9371TIP3   OH249603   0.336   3.233   0.707 -0.8567  0.0527 -0.0137
 9371TIP3    H149604   0.367   3.213   0.619  1.0511  0.6840  0.4857
 9371TIP3    H249605   0.262   3.174   0.720 -0.4134 -0.8917 -1.5840
 9372TIP3   OH249606   0.194   2.541  13.207  0.7397  0.8056 -0.0884
 9372TIP3    H149607   0.173   2.613  13.147  2.7946  0.8932 -0.7301
 9372TIP3    H249608   0.130   2.550  13.277 -1.8783  0.5652 -2.3572
 9373TIP3   OH249609   6.752   2.960   6.092  0.3052  0.4728 -0.0106
 9373TIP3    H149610   6.723   3.047   6.121  1.2238  0.6878  0.2609
 9373TIP3    H249611   6.729   2.901   6.164  0.9084  0.7076  0.3738
 9374TIP3   OH249612   5.150   6.505   2.838 -0.2163 -0.3715  0.3417
 9374TIP3    H149613   5.237   6.525   2.872 -0.2178  1.3584 -0.5649
 9374TIP3    H249614   5.164   6.488   2.745 -1.1897  3.0791 -0.5153
 9375TIP3   OH249615   5.854   3.521   5.449 -0.4659 -0.0804  0.3950
 9375TIP3    H149616   5.859   3.432   5.417  2.1372 -0.9603  3.0251
 9375TIP3    H249617   5.919   3.569   5.398 -0.7108 -0.0507  0.1087
 9376TIP3   OH249618   3.647   4.417   0.745  0.3013  0.9420 -0.5178
 9376TIP3    H149619   3.730   4.425   0.698 -0.3703 -1.3965 -2.2107
 9376TIP3    H249620   3.658   4.342   0.803 -0.4784  0.9001 -0.4084
 9377TIP3   OH249621   4.131   5.949  11.280  0.2124 -0.4929 -0.3039
 9377TIP3    H149622   4.118   5.869  11.228 -0.0793 -1.1230  0.7196
 9377TIP3    H249623   4.224   5.970  11.268 -0.2526  0.3828 -2.4984
 9378TIP3   OH249624   1.537   1.217   2.938  0.5446  0.4961  0.2797
 9378TIP3    H149625   1.502   1.290   2.989  1.6753  1.8651 -0.8493
 9378TIP3    H249626   1.571   1.156   3.003 -3.0626 -0.4434  1.3708
 9379TIP3   OH249627   1.684   0.012   5.259  0.3128  0.4486 -0.0496
 9379TIP3    H149628   1.734  -0.056   5.304  1.2056 -0.5038 -2.4114
 9379TIP3    H249629   1.616   0.037   5.321  1.0246 -1.3713  1.5131
 9380TIP3   OH249630   0.494   2.436  16.946 -0.0721 -0.3837 -0.6901
 9380TIP3    H149631   0.491   2.387  16.864  0.3122 -2.1817  0.3288
 9380TIP3    H249632   0.496   2.528  16.920 -0.4793 -0.9152 -2.6668
 9381TIP3   OH249633   4.094   1.902  16.324 -0.2390 -0.5895  0.0227
 9381TIP3    H149634   4.098   1.953  16.243  0.3001 -0.4944  0.1076
 9381TIP3    H249635   4.019   1.939  16.371  1.0862  1.2147  0.7912
 9382TIP3   OH249636   6.153   5.844  16.409 -0.0246  0.7896  0.0176
 9382TIP3    H149637   6.169   5.781  16.478 -2.3163 -0.4996 -0.5473
 9382TIP3    H249638   6.135   5.791  16.331 -0.8247  2.1484 -0.7618
 9383TIP3   OH249639   5.488   1.816  14.776 -0.2324  0.3615  0.2028
 9383TIP3    H149640   5.564   1.863  14.742  0.3462 -1.4208 -1.0508
 9383TIP3    H249641   5.484   1.842  14.868  1.0514  1.5587 -0.0440
 9384TIP3   OH249642   0.707   5.296   2.614 -0.1972  0.3929  0.2112
 9384TIP3    H149643   0.673   5.359   2.679 -0.6772 -0.2022  0.5431
 9384TIP3    H249644   0.649   5.307   2.538  0.2343  0.9401 -0.0405
 9385TIP3   OH249645   6.275   3.908   0.675  0.4724  0.5325 -0.2426
 9385TIP3    H149646   6.258   3.966   0.601  0.2817  1.2304  0.3445
 9385TIP3    H249647   6.308   3.966   0.744 -0.6163  0.0961  0.6652
 9386TIP3   OH249648   6.509   0.461   5.608  0.0522 -0.0956  0.0428
 9386TIP3    H149649   6.557   0.499   5.535  0.4392  1.0220  0.8591
 9386TIP3    H249650   6.427   0.430   5.570  0.8668 -0.8375 -1.1197
 9387TIP3   OH249651   3.504   4.739   0.523  0.6191 -0.0234  0.0657
 9387TIP3    H149652   3.477   4.698   0.441  2.3579  0.1117 -0.6027
 9387TIP3    H249653   3.581   4.791   0.499  1.5940 -0.5782  1.9285
 9388TIP3   OH249654   4.045   2.912   5.136 -0.0320 -0.4633 -0.6622
 9388TIP3    H149655   4.085   2.976   5.077  1.6795 -0.4201  0.5222
 9388TIP3    H249656   4.034   2.833   5.082  0.4221 -0.0496 -1.3679
 9389TIP3   OH249657   1.754   5.820  10.963  0.1800 -0.2653  0.2265
 9389TIP3    H149658   1.702   5.853  11.037  1.4031 -0.7228  1.2964
 9389TIP3    H249659   1.694   5.825  10.888 -1.4156 -0.8075  1.4487
 9390TIP3   OH249660   0.904   3.949   1.583  0.0178 -0.3037 -0.1357
 9390TIP3    H149661   0.830   3.987   1.631  0.5524  0.3710  0.1838
 9390TIP3    H249662   0.876   3.947   1.492  0.4393  2.1111 -0.3639
 9391TIP3   OH249663   4.416   4.907   1.837  0.3601 -0.2081 -0.1499
 9391TIP3    H149664   4.347   4.865   1.888 -0.4348  0.9664 -0.2448
 9391TIP3    H249665   4.495   4.858   1.860 -0.4921 -1.5733 -0.0465
 9392TIP3   OH249666   5.493   5.037   5.914  0.2686 -0.3912 -0.4286
 9392TIP3    H149667   5.429   5.092   5.960  0.1929  0.7844 -1.9289
 9392TIP3    H249668   5.489   4.953   5.960 -1.6356 -0.0223  0.1241
 9393TIP3   OH249669   6.419   2.017  12.811  0.6304  0.1152 -0.2424
 9393TIP3    H149670   6.382   1.936  12.777 -0.5012  0.2714  0.6105
 9393TIP3    H249671   6.453   1.994  12.897 -0.5752  0.7566  0.4205
 9394TIP3   OH249672   3.186   2.644  13.747 -0.0113 -0.4263 -0.2321
 9394TIP3    H149673   3.154   2.732  13.725 -0.3200  0.0123  1.8771
 9394TIP3    H249674   3.281   2.651  13.741  0.0662  0.5648  1.5937
 9395TIP3   OH249675   4.827   4.362  12.245 -0.3074 -0.0563 -0.3225
 9395TIP3    H149676   4.923   4.359  12.244 -0.3111 -0.0360 -1.4231
 9395TIP3    H249677   4.801   4.276  12.280  0.1006 -0.4509 -0.9753
 9396TIP3   OH249678   2.394   5.414   1.676 -0.4190 -0.4845 -0.0113
 9396TIP3    H149679   2.408   5.478   1.607 -1.6500 -1.3704 -1.1081
 9396TIP3    H249680   2.480   5.401   1.715  0.1718  0.4866 -0.9717
 9397TIP3   OH249681   1.750   5.940  11.487  0.4153  0.0149  0.6231
 9397TIP3    H149682   1.840   5.966  11.471  1.0249 -1.4798  1.4390
 9397TIP3    H249683   1.706   5.951  11.403  1.7418 -0.7589 -0.1872
 9398TIP3   OH249684   0.367   3.253  16.506  0.2335  0.4440 -0.1439
 9398TIP3    H149685   0.384   3.311  16.432 -2.2273  1.1652 -0.1639
 9398TIP3    H249686   0.417   3.291  16.578  0.4464  1.2881 -0.7348
 9399TIP3   OH249687   1.528   0.284  17.213  0.0234 -0.3348 -0.1330
 9399TIP3    H149688   1.603   0.285  17.272  0.6308  0.0121 -0.8962
 9399TIP3    H249689   1.456   0.248  17.265  0.3549  0.6680  1.0301
 9400TIP3   OH249690   3.784   5.569   4.298 -0.3413 -0.0151 -0.2542
 9400TIP3    H149691   3.738   5.488   4.274  0.7235 -0.4618 -0.8582
 9400TIP3    H249692   3.840   5.587   4.222  0.5605  0.4394  0.5149
 9401TIP3   OH249693   5.564   0.034  11.065  0.4258 -0.0746 -0.0876
 9401TIP3    H149694   5.647   0.007  11.026  0.5234  1.9796 -1.4217
 9401TIP3    H249695   5.499   0.017  10.996  0.3390  1.8920 -0.5443
 9402TIP3   OH249696   5.934   1.717   0.996 -0.0853 -0.0384  0.3919
 9402TIP3    H149697   5.886   1.703   1.078  1.0558  0.4880  1.1602
 9402TIP3    H249698   5.919   1.637   0.946 -1.6758  0.0667  0.6547
 9403TIP3   OH249699   5.091   4.437  13.396 -0.2740 -0.3438 -0.1629
 9403TIP3    H149700   5.019   4.380  13.424  1.5814 -2.6073  0.2127
 9403TIP3    H249701   5.108   4.411  13.305  1.1326 -1.0013  0.2773
 9404TIP3   OH249702   5.543   5.314   2.906  0.4403  0.0408  0.6251
 9404TIP3    H149703   5.513   5.237   2.857  0.3055 -0.3462  1.2999
 9404TIP3    H249704   5.633   5.329   2.875  0.3067 -0.1120  0.1622
 9405TIP3   OH249705   4.785   3.731  12.618 -0.4293  0.2284 -0.1169
 9405TIP3    H149706   4.764   3.695  12.532  0.2139  0.4055 -0.3529
 9405TIP3    H249707   4.763   3.824  12.610  0.2161  0.3701 -0.2944
 9406TIP3   OH249708   6.666   2.915   3.818 -0.3207  1.1931 -0.3351
 9406TIP3    H149709   6.706   2.865   3.746  3.1699 -0.3866  2.5858
 9406TIP3    H249710   6.690   3.006   3.800  1.5582  0.6673 -0.5506
 9407TIP3   OH249711   4.116   3.811   0.584  0.2627  0.0446  0.7002
 9407TIP3    H149712   4.201   3.771   0.600  0.6535  1.5246  2.5750
 9407TIP3    H249713   4.111   3.883   0.647 -2.4854 -0.1740  0.8170
 9408TIP3   OH249714   2.578   0.508  13.139  0.3844  0.2148  0.0102
 9408TIP3    H149715   2.551   0.581  13.084  2.4185 -0.0940 -1.4369
 9408TIP3    H249716   2.629   0.451  13.081 -2.1823 -3.0066  0.7517
 9409TIP3   OH249717   5.305   5.038  15.090 -0.9151  0.2444 -0.4076
 9409TIP3    H149718   5.377   5.006  15.036  0.1635  0.0762  1.0976
 9409TIP3    H249719   5.256   4.959  15.113 -2.6518  0.5476 -2.8990
 9410TIP3   OH249720   2.644   3.517   2.795 -0.1040 -0.0755  0.2030
 9410TIP3    H149721   2.663   3.424   2.807  1.1431 -0.2833 -2.8157
 9410TIP3    H249722   2.593   3.521   2.714  2.3792  2.0711 -1.3478
 9411TIP3   OH249723   4.703   5.397   5.684  0.1084  0.2809 -0.1326
 9411TIP3    H149724   4.740   5.473   5.730 -2.6378  0.3356  2.0771
 9411TIP3    H249725   4.733   5.321   5.734  0.5498  0.0632 -0.7189
 9412TIP3   OH249726   2.477   6.366  11.272 -0.3068  0.3692 -0.2236
 9412TIP3    H149727   2.539   6.302  11.308 -0.1010  0.6461 -0.0786
 9412TIP3    H249728   2.433   6.320  11.201  1.1073  0.6171 -1.2940
 9413TIP3   OH249729   4.051   2.905   4.383 -0.5338 -0.0767 -0.4517
 9413TIP3    H149730   3.960   2.918   4.412 -1.0338 -0.5251 -1.7821
 9413TIP3    H249731   4.063   2.970   4.314  0.7549  1.1893  0.9229
 9414TIP3   OH249732   2.675   2.953  12.225 -0.0762 -0.3792 -0.1712
 9414TIP3    H149733   2.678   3.045  12.255 -1.1958 -0.5585  0.5407
 9414TIP3    H249734   2.762   2.936  12.191 -0.0133  1.1240 -0.7962
 9415TIP3   OH249735   6.681   4.942  13.675  0.2067 -0.0340 -0.0563
 9415TIP3    H149736   6.731   4.940  13.757  0.9085  1.9056 -0.4038
 9415TIP3    H249737   6.747   4.933  13.606  0.3659  4.0972 -0.5825
 9416TIP3   OH249738   3.666   2.164   1.687  0.2271 -0.0629  0.2503
 9416TIP3    H149739   3.683   2.073   1.709 -1.1407 -0.9949 -2.2417
 9416TIP3    H249740   3.571   2.168   1.674  0.1336  1.9770  1.4234
 9417TIP3   OH249741   6.061   1.757  15.577 -0.4946 -0.1157  0.2106
 9417TIP3    H149742   6.155   1.777  15.576 -1.0970  2.9392  0.5528
 9417TIP3    H249743   6.054   1.682  15.636  2.0443 -2.3700 -2.1600
 9418TIP3   OH249744   1.988   3.991   4.851 -0.1562 -0.0240 -0.6320
 9418TIP3    H149745   1.931   3.923   4.886 -1.3394  0.6893 -1.1332
 9418TIP3    H249746   2.063   3.943   4.815 -0.4572 -0.9763 -0.0124
 9419TIP3   OH249747   5.391   6.059   5.711 -0.6220 -0.8988  0.2920
 9419TIP3    H149748   5.419   6.145   5.744  1.5113 -1.7302  0.7361
 9419TIP3    H249749   5.342   6.021   5.784 -1.5226 -0.1068  0.1202
 9420TIP3   OH249750   5.673   3.745  14.756 -0.6981 -0.3004 -0.1419
 9420TIP3    H149751   5.767   3.742  14.740 -0.4314  0.4254  1.1709
 9420TIP3    H249752   5.651   3.839  14.752 -0.8136 -0.1913  2.4503
 9421TIP3   OH249753   1.898   3.744   4.150  0.0895 -0.8419  0.3521
 9421TIP3    H149754   1.873   3.682   4.219 -0.3018 -0.9366  0.1310
 9421TIP3    H249755   1.839   3.724   4.077 -0.2948  0.0377  0.4102
 9422TIP3   OH249756   6.314   3.986   4.278  0.1112  0.2757  0.7549
 9422TIP3    H149757   6.268   3.941   4.349  0.8691  0.1516  1.1704
 9422TIP3    H249758   6.320   3.921   4.208 -0.3115  0.2782  0.7179
 9423TIP3   OH249759   5.619   3.781   6.043 -0.0208  0.5501 -0.1410
 9423TIP3    H149760   5.699   3.760   5.996  1.2160 -0.6793  2.3552
 9423TIP3    H249761   5.647   3.789   6.135 -2.8866 -0.9105  0.9257
 9424TIP3   OH249762   0.509   4.229  16.428 -0.5149  0.6207  0.3963
 9424TIP3    H149763   0.472   4.233  16.340 -2.1195 -2.4565  0.8561
 9424TIP3    H249764   0.604   4.234  16.415 -0.7341  0.0989 -1.5200
 9425TIP3   OH249765   2.233   5.644   1.562 -0.4387 -0.7665  0.5344
 9425TIP3    H149766   2.174   5.719   1.555 -0.8359 -1.2727 -2.1406
 9425TIP3    H249767   2.320   5.682   1.572 -0.6715  0.0657 -0.5119
 9426TIP3   OH249768   2.963   6.246   3.092  0.4664 -0.2048  0.3209
 9426TIP3    H149769   2.941   6.329   3.135 -0.0595 -0.0386 -0.2725
 9426TIP3    H249770   3.057   6.234   3.110  0.2849 -0.0650  1.3913
 9427TIP3   OH249771   1.911   3.219  12.849 -0.8851  0.5550 -0.2280
 9427TIP3    H149772   1.825   3.260  12.863 -2.1873 -1.3011 -2.3796
 9427TIP3    H249773   1.946   3.262  12.771 -0.3565  0.5275 -0.0081
 9428TIP3   OH249774   0.713   2.723  13.035  0.2560  0.2595  0.1728
 9428TIP3    H149775   0.732   2.659  12.966 -1.2125  0.2770 -0.2791
 9428TIP3    H249776   0.621   2.746  13.021  0.5662  1.9447  0.7703
 9429TIP3   OH249777   5.930   3.022  12.636  0.5163 -0.4270 -0.1114
 9429TIP3    H149778   5.907   3.079  12.710 -0.6981  0.7872 -1.3951
 9429TIP3    H249779   5.921   2.933  12.671  1.6743  0.1343  1.6975
 9430TIP3   OH249780   6.358   5.338   0.672  0.1826  0.5321  0.8873
 9430TIP3    H149781   6.352   5.432   0.654  0.1557  0.6738  1.6237
 9430TIP3    H249782   6.313   5.326   0.756  0.9303  0.0010  1.2266
 9431TIP3   OH249783   6.794   4.975   0.619  0.1355  0.0340 -0.0188
 9431TIP3    H149784   6.837   5.056   0.646  0.8251  0.0997 -1.2831
 9431TIP3    H249785   6.765   4.935   0.701  1.4764  0.6151  0.7523
 9432TIP3   OH249786   1.570   3.603   5.899 -0.6019 -0.1004  0.4760
 9432TIP3    H149787   1.638   3.584   5.835 -1.9987 -2.7131 -0.3028
 9432TIP3    H249788   1.612   3.660   5.963  2.1224 -1.1745 -0.3055
 9433TIP3   OH249789   5.281   0.583   3.824  0.0724  0.1929 -0.5977
 9433TIP3    H149790   5.228   0.555   3.899  2.0474 -1.3274  0.2766
 9433TIP3    H249791   5.306   0.673   3.846  1.4945 -0.5783  1.1183
 9434TIP3   OH249792   2.969   3.252   2.357 -0.6673 -0.2382 -0.1220
 9434TIP3    H149793   3.012   3.332   2.327 -0.4241 -0.5789 -0.6930
 9434TIP3    H249794   3.035   3.183   2.347 -0.5082 -0.3241  1.4198
 9435TIP3   OH249795   1.030   6.760  12.979  0.2062  0.2552  0.1036
 9435TIP3    H149796   1.067   6.848  12.978  2.9629 -0.8473  0.1700
 9435TIP3    H249797   1.015   6.742  13.072  1.5902 -0.0881  0.2795
 9436TIP3   OH249798   0.640   4.214  14.041  0.1561 -0.2275 -0.2042
 9436TIP3    H149799   0.647   4.268  13.962 -2.2592  1.2116  0.5106
 9436TIP3    H249800   0.546   4.195  14.049  0.6143 -2.0659  1.2163
 9437TIP3   OH249801   4.617   5.888   1.909 -0.6442  0.3909 -0.0786
 9437TIP3    H149802   4.599   5.969   1.956 -1.7629 -0.9161  1.8176
 9437TIP3    H249803   4.547   5.881   1.844 -0.5132  0.9398 -0.2840
 9438TIP3   OH249804   3.733   6.437  14.374 -0.2280 -0.5137  0.1385
 9438TIP3    H149805   3.772   6.352  14.358 -0.6441 -0.9681  1.4934
 9438TIP3    H249806   3.653   6.438  14.320  1.4113  0.2784 -2.3437
 9439TIP3   OH249807   2.559   3.277   1.266  0.1152  0.8829  0.0801
 9439TIP3    H149808   2.540   3.367   1.294  0.5348  1.3515 -1.0985
 9439TIP3    H249809   2.618   3.243   1.333 -2.0727  0.5896  1.9161
 9440TIP3   OH249810   1.570   2.461   3.782 -0.7521 -0.6141  0.5902
 9440TIP3    H149811   1.553   2.454   3.876 -1.3115 -2.5343  0.3662
 9440TIP3    H249812   1.553   2.373   3.748 -0.6362  0.0827 -1.3213
 9441TIP3   OH249813   2.795   1.069   5.587  0.5599 -0.0474 -0.2818
 9441TIP3    H149814   2.871   1.084   5.531  0.6261 -1.5663 -0.6252
 9441TIP3    H249815   2.833   1.042   5.671  0.4246 -0.9086 -0.4843
 9442TIP3   OH249816   4.981   2.299   4.511 -0.2562  0.3645  0.2290
 9442TIP3    H149817   4.887   2.299   4.493  0.0470 -0.5204 -1.4887
 9442TIP3    H249818   4.988   2.296   4.607 -1.9624  2.1856  0.4355
 9443TIP3   OH249819   6.374   5.106   2.270 -0.1093 -0.3045  0.9225
 9443TIP3    H149820   6.441   5.037   2.271  2.5631  2.1241  4.3056
 9443TIP3    H249821   6.398   5.161   2.195  0.0375 -0.9588  0.4851
 9444TIP3   OH249822   5.942   2.223   4.701  0.1105  1.2044  0.5505
 9444TIP3    H149823   5.958   2.279   4.777 -0.0310  0.1613  1.3617
 9444TIP3    H249824   5.853   2.190   4.714 -0.3680  1.9340 -0.6817
 9445TIP3   OH249825   4.833   2.741  15.414  0.3667  0.2399  0.3673
 9445TIP3    H149826   4.852   2.833  15.434  1.1565  0.1371  0.1326
 9445TIP3    H249827   4.744   2.727  15.447 -0.3445  1.4968 -0.9875
 9446TIP3   OH249828   0.705   0.873  12.962 -0.1322  0.3283 -0.1680
 9446TIP3    H149829   0.712   0.909  13.051  0.0112 -0.9004  0.3334
 9446TIP3    H249830   0.612   0.853  12.951  0.1275 -1.3454  0.4646
 9447TIP3   OH249831   3.843   0.427   2.849 -0.0955 -0.2153  0.1585
 9447TIP3    H149832   3.909   0.423   2.780  0.2552  0.3216  0.4614
 9447TIP3    H249833   3.764   0.392   2.808  0.3402 -0.7583 -0.2407
 9448TIP3   OH249834   6.100   3.503   3.930  0.2862  0.2812 -0.1682
 9448TIP3    H149835   6.146   3.529   4.010 -1.4796  1.4317  0.5041
 9448TIP3    H249836   6.008   3.496   3.956 -0.1642 -0.3649 -1.8610
 9449TIP3   OH249837   3.717   3.012   5.432 -0.0442 -0.0229 -0.0285
 9449TIP3    H149838   3.629   3.031   5.399  1.0574  1.1592 -2.4296
 9449TIP3    H249839   3.735   2.923   5.402 -0.2934 -0.1351  0.1573
 9450TIP3   OH249840   2.394   0.660  11.071 -0.2012  0.2646  0.6230
 9450TIP3    H149841   2.371   0.748  11.103 -2.0102  0.3080 -0.7158
 9450TIP3    H249842   2.347   0.652  10.988  0.5807 -1.6855  0.3560
 9451TIP3   OH249843   3.066   0.187   2.901  0.5400  0.1878 -0.0339
 9451TIP3    H149844   2.995   0.184   2.837  0.2905 -0.1607  0.2504
 9451TIP3    H249845   3.146   0.196   2.849  0.6336 -3.3680 -0.6062
 9452TIP3   OH249846   2.037   6.792  11.622 -0.4606 -0.1210  0.2806
 9452TIP3    H149847   1.977   6.720  11.643 -0.1283 -0.2555  0.7938
 9452TIP3    H249848   1.985   6.853  11.571 -0.3726 -1.4075 -1.4078
 9453TIP3   OH249849   6.604   6.275  14.292 -0.0943  0.1250 -0.1243
 9453TIP3    H149850   6.538   6.265  14.359 -0.1488  1.5985  0.0539
 9453TIP3    H249851   6.686   6.289  14.340  0.2945 -1.2615 -0.3471
 9454TIP3   OH249852   5.855   3.957   0.537 -0.1493 -0.0975 -0.1303
 9454TIP3    H149853   5.899   4.000   0.610  0.4644 -0.7857 -0.0943
 9454TIP3    H249854   5.879   3.865   0.545  0.0421 -0.1547 -1.2854
 9455TIP3   OH249855   5.215   1.971   3.066  0.2400 -0.3285 -0.1555
 9455TIP3    H149856   5.219   1.876   3.058  1.9705 -0.1083 -2.7245
 9455TIP3    H249857   5.129   1.995   3.031  0.2190 -0.8674 -0.4648
 9456TIP3   OH249858   0.123   3.914   2.719  0.3594  0.3888 -0.3776
 9456TIP3    H149859   0.030   3.935   2.728  0.1078 -1.2725  1.0498
 9456TIP3    H249860   0.167   3.974   2.779  0.1252  0.4747 -0.2915
 9457TIP3   OH249861   4.590   1.330  17.073 -0.2002 -0.1190  0.1973
 9457TIP3    H149862   4.682   1.346  17.094  0.1147  0.5755 -1.6333
 9457TIP3    H249863   4.592   1.269  16.999 -1.2331 -0.4876  0.4557
 9458TIP3   OH249864   6.484   4.302  16.910 -0.0505  0.4890  0.3073
 9458TIP3    H149865   6.500   4.389  16.873  1.3879  0.9723  1.9806
 9458TIP3    H249866   6.533   4.243  16.853 -1.0198  0.7696 -0.8298
 9459TIP3   OH249867   3.693   0.576  13.671  0.1933 -0.2354  0.8921
 9459TIP3    H149868   3.680   0.610  13.760 -1.3863  1.0577  0.1958
 9459TIP3    H249869   3.787   0.586  13.656  0.2015  1.2457  1.7585
 9460TIP3   OH249870   2.080   2.192   0.179  0.2658  0.0160  0.0159
 9460TIP3    H149871   2.093   2.237   0.096 -0.2205  3.4346  1.6737
 9460TIP3    H249872   2.162   2.205   0.226 -0.0874 -0.3574  0.7522
 9461TIP3   OH249873   5.448   5.846  10.595 -0.3382  0.3812  0.6293
 9461TIP3    H149874   5.522   5.822  10.539 -1.1383  1.5511 -0.9707
 9461TIP3    H249875   5.464   5.799  10.677 -0.0490 -2.7971 -1.1702
 9462TIP3   OH249876   6.819   4.810  14.928 -0.1362 -0.4006 -0.2087
 9462TIP3    H149877   6.730   4.775  14.935  0.2871 -1.4105  0.3339
 9462TIP3    H249878   6.867   4.766  14.998  0.4413  1.2661  0.4624
 9463TIP3   OH249879   0.601   1.812   0.297 -0.3440  0.1383  0.3474
 9463TIP3    H149880   0.518   1.837   0.337 -0.6117 -0.6554  0.2931
 9463TIP3    H249881   0.668   1.839   0.360 -0.6512  0.5964  0.4803
 9464TIP3   OH249882   2.972   5.045   5.887  0.4345  0.4008  0.4137
 9464TIP3    H149883   2.943   5.096   5.962  0.4502  0.5231  0.3380
 9464TIP3    H249884   3.056   5.085   5.863  1.0101 -0.4148  1.0760
 9465TIP3   OH249885   1.113   2.070  14.069  0.1747  0.1231 -0.4987
 9465TIP3    H149886   1.142   2.128  13.998  0.8235  1.5058  0.8771
 9465TIP3    H249887   1.017   2.075  14.066  0.2287  1.2657 -0.3892
 9466TIP3   OH249888   4.126   3.822   1.359  0.5283  0.2208  0.1206
 9466TIP3    H149889   4.175   3.754   1.405 -0.3010  0.4600  1.3986
 9466TIP3    H249890   4.116   3.892   1.424  0.0182  0.9019 -0.6840
 9467TIP3   OH249891   1.001   0.601  13.364  0.5911 -0.7496  0.0279
 9467TIP3    H149892   0.931   0.655  13.326  0.9402 -0.6693 -0.4956
 9467TIP3    H249893   1.077   0.659  13.366  1.0722 -1.3407 -0.8873
 9468TIP3   OH249894   0.657   6.612  16.305  0.0776  0.1960  0.3303
 9468TIP3    H149895   0.742   6.597  16.347 -0.1045 -2.1072 -0.0267
 9468TIP3    H249896   0.595   6.621  16.377  0.3867  0.3281  0.5812
 9469TIP3   OH249897   0.870   1.728   1.848 -0.3825  0.0944 -0.2212
 9469TIP3    H149898   0.862   1.647   1.799  1.8197 -0.8967  0.9905
 9469TIP3    H249899   0.915   1.703   1.929  0.2264  2.4855  0.2260
 9470TIP3   OH249900   6.377   5.645   6.209  0.5706 -0.6518 -0.0358
 9470TIP3    H149901   6.438   5.587   6.254  3.2225  0.2241 -2.3705
 9470TIP3    H249902   6.335   5.590   6.143 -0.4217 -1.0068  0.8812
 9471TIP3   OH249903   3.557   0.196  12.568 -0.3074 -0.1645 -0.9295
 9471TIP3    H149904   3.586   0.262  12.506 -1.9564  0.0812 -1.4680
 9471TIP3    H249905   3.534   0.245  12.647  0.1864 -0.2940 -0.7040
 9472TIP3   OH249906   2.947   6.469   3.295 -0.1430 -0.4619  0.4596
 9472TIP3    H149907   2.990   6.538   3.244 -1.5558 -0.0038 -0.1186
 9472TIP3    H249908   3.010   6.449   3.364  0.6490  0.8082  0.1299
 9473TIP3   OH249909   5.879   2.333   0.976 -0.3105 -0.2534 -0.2209
 9473TIP3    H149910   5.800   2.387   0.975 -0.7813 -0.9197  0.8216
 9473TIP3    H249911   5.934   2.373   1.043  0.0183 -0.1032 -0.5812
 9474TIP3   OH249912   3.766   1.911   2.781 -0.0124 -0.2382 -0.2007
 9474TIP3    H149913   3.821   1.983   2.812 -0.5922 -0.5284  1.5521
 9474TIP3    H249914   3.778   1.911   2.686  0.8812  1.4370 -0.1063
 9475TIP3   OH249915   4.205   5.290  16.865  0.2830  0.1023  0.6791
 9475TIP3    H149916   4.220   5.225  16.934 -0.0932  1.3744  1.9629
 9475TIP3    H249917   4.141   5.248  16.807  0.4279 -0.8808  1.2145
 9476TIP3   OH249918   4.424   5.902  15.715 -1.3133 -0.5389  0.2382
 9476TIP3    H149919   4.470   5.866  15.791  0.4823  0.6303 -0.2689
 9476TIP3    H249920   4.388   5.985  15.747  0.6392  0.6420 -0.5341
 9477TIP3   OH249921   3.375   4.122  11.807  0.4163 -0.4576 -0.1534
 9477TIP3    H149922   3.303   4.059  11.801 -1.3149  1.4648 -0.3567
 9477TIP3    H249923   3.378   4.146  11.899  2.3779 -2.2617  0.2837
 9478TIP3   OH249924   6.147   6.504  12.224  0.0106 -0.2640 -0.0912
 9478TIP3    H149925   6.221   6.469  12.275 -1.6386 -2.4268  0.8615
 9478TIP3    H249926   6.133   6.440  12.155 -0.4142  0.6104 -0.8261
 9479TIP3   OH249927   2.558   0.869  11.735 -0.3974  0.1997 -0.3352
 9479TIP3    H149928   2.653   0.872  11.719 -0.3918  0.9819 -0.1244
 9479TIP3    H249929   2.549   0.828  11.821 -0.2287  0.6667 -0.0953
 9480TIP3   OH249930   3.130   1.731   4.395  0.2307  0.3323 -0.5885
 9480TIP3    H149931   3.065   1.769   4.336 -1.5425 -0.6781  0.6481
 9480TIP3    H249932   3.162   1.804   4.446 -0.3656  0.7670 -0.8251
 9481TIP3   OH249933   3.988   3.121  16.875 -0.1616  0.1262 -0.0697
 9481TIP3    H149934   3.986   3.076  16.959 -2.0229  1.5738  0.7123
 9481TIP3    H249935   3.977   3.052  16.810 -0.0064 -0.8653  0.9445
 9482TIP3   OH249936   1.927   0.330   2.713 -0.4234 -0.2293  0.4097
 9482TIP3    H149937   1.998   0.312   2.775  1.2250  0.8810 -1.0958
 9482TIP3    H249938   1.852   0.353   2.767  1.2659  1.7058  1.9997
 9483TIP3   OH249939   5.897   3.749   5.969 -0.0635  0.1273 -0.0470
 9483TIP3    H149940   5.901   3.703   6.053 -2.0479  1.1042  0.5992
 9483TIP3    H249941   5.986   3.783   5.956  0.0535  0.6676  2.0514
 9484TIP3   OH249942   3.744   2.092  17.103 -0.6663 -0.0685 -0.1689
 9484TIP3    H149943   3.721   2.009  17.061  2.3705 -0.3636 -1.3486
 9484TIP3    H249944   3.660   2.138  17.112 -1.8499 -1.4309 -3.5000
 9485TIP3   OH249945   4.291   4.230   2.003 -0.0347  0.4432 -0.2122
 9485TIP3    H149946   4.368   4.272   2.042  0.6623 -0.8022 -0.2085
 9485TIP3    H249947   4.257   4.294   1.940  1.2866  0.8248 -0.5499
 9486TIP3   OH249948   3.106   0.648   4.191 -1.2262 -0.1642 -0.3907
 9486TIP3    H149949   3.193   0.641   4.152 -1.2297  0.0475 -0.4343
 9486TIP3    H249950   3.120   0.635   4.285 -1.0488  0.6440 -0.3062
 9487TIP3   OH249951   0.317   3.362  14.074  0.6480 -0.0394 -0.0464
 9487TIP3    H149952   0.359   3.444  14.048  0.6267  0.3619  1.1277
 9487TIP3    H249953   0.223   3.381  14.070  0.6078 -0.4304 -1.0827
 9488TIP3   OH249954   4.153   4.541   3.681 -0.4406  0.4385 -0.1066
 9488TIP3    H149955   4.181   4.606   3.617 -1.0266 -0.4194 -1.2451
 9488TIP3    H249956   4.229   4.485   3.694  0.0008  1.2117  0.7257
 9489TIP3   OH249957   2.812   3.188  15.069 -0.0903  0.0152  0.7989
 9489TIP3    H149958   2.806   3.095  15.048 -1.2419  0.0294  1.0352
 9489TIP3    H249959   2.868   3.224  15.000  1.0338 -0.9853  1.1689
 9490TIP3   OH249960   1.051   6.109   0.263  0.0581  0.2471  0.5005
 9490TIP3    H149961   1.012   6.043   0.320  0.7471  0.9626  1.8165
 9490TIP3    H249962   1.054   6.067   0.176 -2.2554 -0.3459  0.6780
 9491TIP3   OH249963   0.445   2.955  12.283 -0.1001  0.3572  0.1776
 9491TIP3    H149964   0.478   2.891  12.346  3.1690  0.6708 -1.1054
 9491TIP3    H249965   0.382   2.905  12.231  3.5130 -2.4248 -1.8210
 9492TIP3   OH249966   6.112   0.523  15.411 -0.6092  0.0166  0.0384
 9492TIP3    H149967   6.092   0.453  15.473 -2.5053  0.0002 -0.5306
 9492TIP3    H249968   6.102   0.604  15.461 -1.7419 -0.0124 -0.1154
 9493TIP3   OH249969   3.202   1.880   3.788 -0.5741 -0.8447 -0.4543
 9493TIP3    H149970   3.172   1.965   3.821  1.4489  0.3264 -1.5629
 9493TIP3    H249971   3.218   1.829   3.867  0.1345  0.5054  0.3028
 9494TIP3   OH249972   0.685   4.960   5.032  0.2714 -0.1550 -0.1415
 9494TIP3    H149973   0.631   5.034   5.061 -1.2513 -0.8448 -1.1543
 9494TIP3    H249974   0.660   4.888   5.089  0.4548 -0.3636 -0.3226
 9495TIP3   OH249975   1.365   2.068  14.404 -0.2591  0.2276 -0.4468
 9495TIP3    H149976   1.337   2.134  14.341 -1.9004 -0.2368 -0.2298
 9495TIP3    H249977   1.334   1.985  14.368  0.0441 -0.2026  0.2637
 9496TIP3   OH249978   0.600   2.271   1.663  0.4918 -0.3252 -0.4512
 9496TIP3    H149979   0.560   2.235   1.584  0.3768 -0.5579 -0.2866
 9496TIP3    H249980   0.643   2.197   1.705 -0.7252 -0.5147  0.4969
 9497TIP3   OH249981   4.347   3.374   3.164  0.4093 -0.0214 -0.7768
 9497TIP3    H149982   4.336   3.280   3.153 -1.0920  0.2083 -1.3189
 9497TIP3    H249983   4.374   3.385   3.255  0.7541 -0.9835 -0.7637
 9498TIP3   OH249984   3.802   1.028  16.085 -0.5731  0.0539 -0.3186
 9498TIP3    H149985   3.796   1.121  16.109  0.4227  0.0796 -0.1634
 9498TIP3    H249986   3.835   1.029  15.996 -0.0282 -0.1678 -0.1177
 9499TIP3   OH249987   2.415   6.485   4.036  0.0517  0.2833 -0.5599
 9499TIP3    H149988   2.386   6.561   3.986  0.1914  0.2756 -0.6513
 9499TIP3    H249989   2.365   6.411   3.999  1.1133  0.0607 -1.5694
 9500TIP3   OH249990   0.428   5.759  11.006 -0.5160  0.0552 -0.3492
 9500TIP3    H149991   0.439   5.845  10.966  0.9507  0.2359  0.3931
 9500TIP3    H249992   0.415   5.699  10.932  0.3073  0.6447 -0.9819
 9501TIP3   OH249993   0.545   1.516   3.465  0.0683 -0.4088  0.7531
 9501TIP3    H149994   0.502   1.431   3.467  0.1948 -0.5186 -0.6507
 9501TIP3    H249995   0.637   1.496   3.481 -0.2019 -0.3139  2.4472
 9502TIP3   OH249996   2.334   1.164  13.027  0.2286 -0.7274 -0.5791
 9502TIP3    H149997   2.413   1.174  12.975  1.1557 -3.3967  0.2775
 9502TIP3    H249998   2.264   1.153  12.963  0.6442  0.7277 -1.3140
 9503TIP3   OH249999   0.034   3.059   3.320  0.2168  0.3007 -0.2221
 9503TIP3    H150000  -0.044   3.108   3.347  0.0072  0.2448 -0.7150
 9503TIP3    H250001   0.103   3.124   3.315  0.0044  0.5041 -0.5927
 9504TIP3   OH250002   3.311   4.284  14.824 -0.1335 -0.1386  0.7230
 9504TIP3    H150003   3.393   4.318  14.789  0.3829  0.8394  2.8227
 9504TIP3    H250004   3.276   4.229  14.754  1.1667  1.2723 -1.0780
 9505TIP3   OH250005   5.561   4.034   5.801  0.0275  0.3742  0.2246
 9505TIP3    H150006   5.626   3.968   5.777  0.5821  1.1364 -0.3566
 9505TIP3    H250007   5.525   4.002   5.884  0.2748 -0.6743 -0.0603
 9506TIP3   OH250008   6.240   5.397  12.467 -0.1085 -0.5254  0.3869
 9506TIP3    H150009   6.177   5.334  12.503 -0.0160 -0.7199  0.2093
 9506TIP3    H250010   6.319   5.346  12.451  0.5460 -0.0071  1.8609
 9507TIP3   OH250011   2.250   2.009   4.367  0.3535 -0.8126 -0.2693
 9507TIP3    H150012   2.308   2.067   4.318  0.6289 -0.9270 -0.0846
 9507TIP3    H250013   2.308   1.965   4.429 -0.5252  2.0810  2.7599
 9508TIP3   OH250014   6.389   4.967   1.459 -0.2266  0.5710  0.3281
 9508TIP3    H150015   6.326   4.897   1.443  0.2727 -0.1855  1.5455
 9508TIP3    H250016   6.460   4.951   1.398 -0.7701  0.8633 -0.3841
 9509TIP3   OH250017   5.328   1.310   1.070 -0.5369  0.0871  0.1146
 9509TIP3    H150018   5.314   1.350   1.156 -0.2221 -1.4724  0.9006
 9509TIP3    H250019   5.315   1.216   1.085  0.2294 -0.2630 -1.3907
 9510TIP3   OH250020   5.722   5.789   1.426  0.1495  0.1279 -0.5490
 9510TIP3    H150021   5.783   5.716   1.427 -0.7691 -0.6346  0.7918
 9510TIP3    H250022   5.702   5.803   1.333  1.2127 -0.5651 -0.8785
 9511TIP3   OH250023   2.330   1.499  13.962  0.4870  0.1585 -1.0689
 9511TIP3    H150024   2.417   1.477  13.994  0.4333 -0.6621 -1.4578
 9511TIP3    H250025   2.324   1.453  13.878 -0.7354 -0.7223 -0.5208
 9512TIP3   OH250026   2.688   2.952  14.827 -0.0999  0.2224  0.4137
 9512TIP3    H150027   2.718   3.031  14.783 -0.2305  1.1613  1.9756
 9512TIP3    H250028   2.624   2.983  14.891  0.0494 -1.1212  1.2360
 9513TIP3   OH250029   0.249   0.940  11.945 -0.1235 -0.4237  0.5636
 9513TIP3    H150030   0.209   1.023  11.972 -1.5196 -0.7003 -0.5710
 9513TIP3    H250031   0.332   0.966  11.905  0.0382  0.3135  1.3455
 9514TIP3   OH250032   3.853   0.103  14.368 -0.0492 -0.5603  0.2723
 9514TIP3    H150033   3.878   0.029  14.313  1.4732 -1.8392  2.5708
 9514TIP3    H250034   3.936   0.144  14.393 -0.6881 -0.0131  1.5765
 9515TIP3   OH250035   1.943   5.515   3.839  0.4050  0.1921  0.0356
 9515TIP3    H150036   1.939   5.504   3.744  0.6390  1.4361 -0.1306
 9515TIP3    H250037   2.019   5.571   3.853 -0.2431  0.8642  0.8863
 9516TIP3   OH250038   3.540   4.901   4.361 -0.2463  0.2595 -0.0184
 9516TIP3    H150039   3.562   4.837   4.429 -1.0068  0.5744  0.5267
 9516TIP3    H250040   3.625   4.932   4.329  0.1660 -1.8970 -1.1345
 9517TIP3   OH250041   5.467   0.978  11.780  0.0448  0.4054  0.2857
 9517TIP3    H150042   5.501   0.900  11.735  1.3718 -1.0357  3.5888
 9517TIP3    H250043   5.523   0.987  11.857 -2.2634  2.6344  1.7810
 9518TIP3   OH250044   1.358   6.120   5.960  0.1134 -0.4351 -0.2949
 9518TIP3    H150045   1.324   6.117   6.049  0.8987 -0.8037 -0.0027
 9518TIP3    H250046   1.299   6.063   5.910 -2.6289  2.7305 -0.8229
 9519TIP3   OH250047   0.892   5.857  16.935  0.3023  0.1277 -0.4428
 9519TIP3    H150048   0.885   5.811  16.852 -0.6487  2.9480 -2.0046
 9519TIP3    H250049   0.824   5.817  16.990  0.4385 -1.2636 -1.2639
 9520TIP3   OH250050   3.024   3.376  13.851  0.0662 -0.1109 -0.2364
 9520TIP3    H150051   3.016   3.463  13.811 -0.5082 -0.4023 -0.7572
 9520TIP3    H250052   2.973   3.383  13.932  2.9848  1.1454  1.5934
 9521TIP3   OH250053   1.704   5.317   5.062 -0.2660  0.0549  0.1602
 9521TIP3    H150054   1.681   5.314   4.969  2.8337 -3.7540 -0.5896
 9521TIP3    H250055   1.799   5.335   5.063 -0.3615  0.6506  2.6323
 9522TIP3   OH250056   3.883   0.700   3.833  0.3203 -0.4149  0.6887
 9522TIP3    H150057   3.833   0.646   3.772  1.2660  0.7603 -1.1526
 9522TIP3    H250058   3.884   0.649   3.914 -0.2401 -2.3909 -0.5076
 9523TIP3   OH250059   1.583   4.907  14.010  0.3270 -0.3160 -0.0578
 9523TIP3    H150060   1.517   4.884  13.944  0.6425 -1.5073  0.0185
 9523TIP3    H250061   1.575   5.002  14.020 -0.6182 -0.2965 -0.8526
 9524TIP3   OH250062   6.190   6.618   6.114 -0.3211 -0.1888 -0.0769
 9524TIP3    H150063   6.269   6.582   6.153 -0.0165  0.3129 -0.2164
 9524TIP3    H250064   6.130   6.633   6.187 -0.1646 -0.2646  0.0651
 9525TIP3   OH250065   4.591   3.990   2.818 -1.4331  0.2032 -0.1173
 9525TIP3    H150066   4.564   3.984   2.727 -1.2961  2.8616 -0.3820
 9525TIP3    H250067   4.520   3.949   2.867 -1.2735 -1.6871 -1.4351
 9526TIP3   OH250068   2.956   3.137   3.100 -0.0698 -0.8879 -0.0554
 9526TIP3    H150069   2.903   3.061   3.077  2.7630 -2.6345 -1.0219
 9526TIP3    H250070   2.949   3.194   3.023 -0.7478 -0.9532 -0.0519
 9527TIP3   OH250071   1.629   5.281  16.690  0.2861  0.1709  0.1994
 9527TIP3    H150072   1.555   5.341  16.677  0.3758  0.4284  0.8658
 9527TIP3    H250073   1.698   5.335  16.726 -0.0156 -0.5487  1.9224
 9528TIP3   OH250074   3.810   0.415   2.172  0.4299 -0.3738 -0.4407
 9528TIP3    H150075   3.828   0.459   2.089 -0.0416  1.7787  0.5827
 9528TIP3    H250076   3.717   0.391   2.167  0.5257 -0.6938 -0.7267
 9529TIP3   OH250077   0.368   3.951  13.752 -0.4373  0.5161  0.1760
 9529TIP3    H150078   0.406   3.920  13.835 -0.0005  0.9787  0.1531
 9529TIP3    H250079   0.373   4.046  13.758  0.1986  0.5374 -0.6642
 9530TIP3   OH250080   5.755   3.587  14.464  0.2933  0.0391  0.4092
 9530TIP3    H150081   5.731   3.679  14.461  0.3193  0.0305 -0.1310
 9530TIP3    H250082   5.689   3.543  14.410 -0.6928 -0.4776  2.0108
 9531TIP3   OH250083   0.110   5.066  12.137 -0.1205 -0.0177 -0.2501
 9531TIP3    H150084   0.077   5.002  12.074  0.6093  0.2220 -0.8820
 9531TIP3    H250085   0.202   5.079  12.113 -0.2818  1.3220 -0.1865
 9532TIP3   OH250086   5.764   1.429  15.077 -0.2767  0.1411 -0.0253
 9532TIP3    H150087   5.833   1.414  15.142  0.5509 -0.9985 -1.1260
 9532TIP3    H250088   5.759   1.524  15.069  1.0210  0.2432  0.2463
 9533TIP3   OH250089   0.145   0.481  12.421  0.4127  0.1347 -0.1185
 9533TIP3    H150090   0.054   0.472  12.449 -0.0815 -0.1874 -1.7898
 9533TIP3    H250091   0.140   0.489  12.325  2.2050 -0.8755 -0.3104
 9534TIP3   OH250092   4.450   2.146   1.132  0.3342 -0.5390 -0.3026
 9534TIP3    H150093   4.435   2.093   1.210  1.0891 -1.4540 -0.7757
 9534TIP3    H250094   4.381   2.119   1.071  0.4896 -0.7176 -0.4015
 9535TIP3   OH250095   3.560   1.974  12.504  0.3309  0.1193 -0.4575
 9535TIP3    H150096   3.588   1.976  12.412 -0.6689 -1.2732 -0.8148
 9535TIP3    H250097   3.466   1.954  12.499  0.1497  0.6243  0.8563
 9536TIP3   OH250098   1.843   4.659   6.284 -0.4763 -0.1711  0.3986
 9536TIP3    H150099   1.841   4.624   6.373  0.5168 -3.5958 -0.8337
 9536TIP3    H250100   1.755   4.642   6.249 -1.3825  2.6615  1.2244
 9537TIP3   OH250101   5.327   5.305  15.576 -0.5169  0.4484  0.5274
 9537TIP3    H150102   5.309   5.370  15.644 -1.3551 -0.8134  1.5361
 9537TIP3    H250103   5.362   5.356  15.503 -4.9752  2.6054 -0.2837
 9538TIP3   OH250104   2.233   2.795  11.798  0.3069  0.3685 -0.7115
 9538TIP3    H150105   2.215   2.846  11.719  1.1262  1.4350 -0.2193
 9538TIP3    H250106   2.263   2.710  11.765 -1.6395 -0.0356 -1.5373
 9539TIP3   OH250107   1.149   4.143  12.759  0.1721 -0.5272  0.4172
 9539TIP3    H150108   1.109   4.125  12.844  0.7118 -0.1525  0.7577
 9539TIP3    H250109   1.238   4.109  12.767  0.3836 -0.0311  0.1801
 9540TIP3   OH250110   4.957   1.222  13.301  0.0177  0.1438  0.2767
 9540TIP3    H150111   4.955   1.136  13.258  1.7437  0.5505 -0.6683
 9540TIP3    H250112   4.975   1.202  13.393 -0.8503 -0.5765  0.2974
 9541TIP3   OH250113   0.875   0.354   3.877  0.5253  0.0742 -0.0496
 9541TIP3    H150114   0.945   0.294   3.851 -0.2488 -0.9995  0.3203
 9541TIP3    H250115   0.847   0.323   3.963 -0.6644  0.2657 -0.3558
 9542TIP3   OH250116   3.068   6.442  11.513  0.1693  0.0772  0.2863
 9542TIP3    H150117   3.022   6.391  11.580  0.7023 -1.3890 -0.4241
 9542TIP3    H250118   3.043   6.400  11.431  0.7233  0.8971 -0.3005
 9543TIP3   OH250119   5.774   5.894   3.768 -0.5554  0.1689 -0.3128
 9543TIP3    H150120   5.865   5.892   3.738 -0.4646  1.3895 -0.1367
 9543TIP3    H250121   5.723   5.866   3.692  0.0628 -2.0486  0.0470
 9544TIP3   OH250122   0.511   3.717  16.877  0.6756  0.5400  0.3340
 9544TIP3    H150123   0.449   3.674  16.935  0.6458  0.9392  0.6049
 9544TIP3    H250124   0.597   3.694  16.913  0.7303 -0.9577 -0.7164
 9545TIP3   OH250125   4.054   2.084   0.590 -0.1984  0.0875 -0.7704
 9545TIP3    H150126   4.087   1.994   0.583 -0.5119  0.1077 -2.7054
 9545TIP3    H250127   4.110   2.135   0.532  0.1361  1.2200  0.5009
 9546TIP3   OH250128   5.163   3.654  15.273 -0.4775 -0.3509  0.2243
 9546TIP3    H150129   5.200   3.623  15.355 -1.4029 -0.1645  0.7159
 9546TIP3    H250130   5.233   3.704  15.232 -0.6301  1.2050  1.8103
 9547TIP3   OH250131   5.359   1.055  11.066  0.0880 -0.2511  0.3337
 9547TIP3    H150132   5.333   1.109  11.140 -0.8413  0.5942 -0.5820
 9547TIP3    H250133   5.309   1.090  10.992  2.2749  0.0824 -1.0640
 9548TIP3   OH250134   0.409   0.288  16.498  0.1055  0.1981  0.1596
 9548TIP3    H150135   0.489   0.340  16.505 -0.4681  0.9049  2.0022
 9548TIP3    H250136   0.410   0.232  16.575 -0.0843 -1.3960 -0.9752
 9549TIP3   OH250137   0.639   0.392   4.823  0.3362 -0.1065 -0.0951
 9549TIP3    H150138   0.615   0.301   4.841 -2.9507  0.6872 -0.1459
 9549TIP3    H250139   0.725   0.402   4.865  0.4411 -2.9948  0.5345
 9550TIP3   OH250140   6.036   6.164  11.949  0.1882 -0.5966 -0.3771
 9550TIP3    H150141   5.997   6.196  11.868  0.5173 -1.3475 -0.8436
 9550TIP3    H250142   6.055   6.072  11.931  1.8129 -0.3496 -0.0414
 9551TIP3   OH250143   6.289   1.688   1.704 -0.0550 -0.0356  0.0236
 9551TIP3    H150144   6.283   1.593   1.695 -1.1996 -0.1190  1.4820
 9551TIP3    H250145   6.381   1.708   1.684  0.7946 -1.7171  1.9752
 9552TIP3   OH250146   1.272   5.384   1.816  0.1794 -0.3511 -0.1459
 9552TIP3    H150147   1.281   5.448   1.746 -0.7832  0.1108  0.1456
 9552TIP3    H250148   1.252   5.436   1.894 -1.1274 -1.0371 -0.0154
 9553TIP3   OH250149   1.546   5.699   2.591  0.0319  0.2894 -0.2840
 9553TIP3    H150150   1.591   5.615   2.579  1.3951  1.1848 -1.6005
 9553TIP3    H250151   1.463   5.676   2.634  1.4969 -1.4488  1.6824
 9554TIP3   OH250152   1.503   5.773  15.642 -0.3185  0.2725  0.4620
 9554TIP3    H150153   1.444   5.793  15.714  0.0464 -0.8426  1.0691
 9554TIP3    H250154   1.520   5.858  15.601 -4.4596  0.3303 -1.3729
 9555TIP3   OH250155   6.386   3.401   4.675 -0.3302 -0.0081 -0.7539
 9555TIP3    H150156   6.381   3.353   4.758 -1.3143  2.1882  0.4785
 9555TIP3    H250157   6.312   3.461   4.678  0.8005  1.4928 -2.3462
 9556TIP3   OH250158   6.451   3.319   5.252  0.2892 -0.4964 -0.2162
 9556TIP3    H150159   6.403   3.369   5.318  0.5646 -1.2399  0.5553
 9556TIP3    H250160   6.455   3.377   5.176 -1.1322 -0.1171 -0.0260
 9557TIP3   OH250161   4.363   1.574  11.851  0.1480  0.6760  0.0729
 9557TIP3    H150162   4.344   1.487  11.818  1.1371 -0.4223  2.2931
 9557TIP3    H250163   4.433   1.607  11.794 -1.2123  0.6168 -1.6593
 9558TIP3   OH250164   0.316   5.404  14.659  0.6253 -0.0422  0.2738
 9558TIP3    H150165   0.288   5.444  14.741 -0.9973 -1.3575  0.3851
 9558TIP3    H250166   0.353   5.320  14.683  5.1231  1.7841  0.1462
 9559TIP3   OH250167   5.074   1.868   3.544 -0.1051  0.4160  0.4255
 9559TIP3    H150168   5.123   1.947   3.567  1.3953 -0.4034  0.1616
 9559TIP3    H250169   5.142   1.804   3.524 -1.3172 -0.6823 -0.2180
 9560TIP3   OH250170   4.798   2.327   1.202  0.2514 -0.1939 -0.0089
 9560TIP3    H150171   4.773   2.409   1.245 -2.4254 -0.8495 -0.2403
 9560TIP3    H250172   4.755   2.331   1.117  2.1795 -0.7557 -1.0488
 9561TIP3   OH250173   1.078   3.605  11.432 -0.6787 -0.1576 -0.0928
 9561TIP3    H150174   1.153   3.639  11.384 -0.0395 -0.3904  0.7291
 9561TIP3    H250175   1.035   3.682  11.467 -0.3418 -0.0704  0.1323
 9562TIP3   OH250176   0.979   1.700  15.309  0.3876 -0.2505  0.5377
 9562TIP3    H150177   1.011   1.741  15.389  2.3606 -0.7279  0.0355
 9562TIP3    H250178   0.982   1.606  15.327 -0.0226 -0.3254  0.2177
 9563TIP3   OH250179   6.127   2.870  16.730 -0.0814 -0.0068  0.1586
 9563TIP3    H150180   6.172   2.888  16.647 -0.8938 -0.3143 -0.3516
 9563TIP3    H250181   6.189   2.898  16.797 -0.4531  2.6597 -0.5782
 9564TIP3   OH250182   4.047   6.722   3.036 -0.0935  0.0869  0.1162
 9564TIP3    H150183   4.037   6.685   3.124  0.2572  0.6575  0.3965
 9564TIP3    H250184   4.139   6.710   3.015  0.3721  2.2564  0.8663
 9565TIP3   OH250185   3.715   4.626  14.502 -0.2248 -0.0083  0.0575
 9565TIP3    H150186   3.735   4.549  14.449 -0.2258  1.2667 -1.8439
 9565TIP3    H250187   3.632   4.658  14.467 -0.3238  0.7384  0.9599
 9566TIP3   OH250188   2.212   4.615   3.442  0.3090  0.1444  0.4063
 9566TIP3    H150189   2.144   4.681   3.457 -0.3135 -0.5642  0.7426
 9566TIP3    H250190   2.171   4.552   3.382  0.4943 -0.5554  1.0166
 9567TIP3   OH250191   1.016   3.638  15.528  0.4784 -0.5708  0.1157
 9567TIP3    H150192   1.048   3.622  15.617  1.6706 -0.1156 -0.2162
 9567TIP3    H250193   1.095   3.657  15.477 -0.0508 -1.9996 -1.3081
 9568TIP3   OH250194   2.635   1.285   2.948  0.2541  0.0040  0.1962
 9568TIP3    H150195   2.637   1.208   3.005 -2.0395  0.4039  0.8624
 9568TIP3    H250196   2.589   1.255   2.869 -0.6159  0.6814  0.4453
 9569TIP3   OH250197   4.961   6.094  15.166  0.0526  0.3129 -0.2783
 9569TIP3    H150198   4.901   6.138  15.226 -1.0623 -0.9193 -0.4613
 9569TIP3    H250199   4.933   6.003  15.167  1.8232 -0.2609 -0.5050
 9570TIP3   OH250200   5.129   0.943  11.970  0.1579  0.1090  0.4762
 9570TIP3    H150201   5.071   0.869  11.952  1.2463 -0.1401 -2.4354
 9570TIP3    H250202   5.072   1.020  11.970 -0.6440 -0.4842  1.1022
 9571TIP3   OH250203   4.822   0.123  13.251 -0.6782  0.3842  0.1621
 9571TIP3    H150204   4.853   0.082  13.333 -1.9624 -0.4111  0.2601
 9571TIP3    H250205   4.778   0.052  13.204 -0.3716  0.9614 -1.0116
 9572TIP3   OH250206   1.372   1.557   1.530  0.2054 -0.9282  0.9068
 9572TIP3    H150207   1.399   1.604   1.450 -1.0663 -1.0612  0.3948
 9572TIP3    H250208   1.320   1.620   1.579  1.0038 -0.8400  1.6576
 9573TIP3   OH250209   0.051   4.913  13.481 -1.0246 -0.5959  0.1593
 9573TIP3    H150210   0.120   4.967  13.521 -2.2142  1.7253 -0.8527
 9573TIP3    H250211   0.078   4.823  13.500  1.4015  0.3057  1.2508
 9574TIP3   OH250212   4.746   3.546   1.550 -0.4362 -0.1859 -0.2030
 9574TIP3    H150213   4.728   3.452   1.549  1.0454 -0.5553  2.2688
 9574TIP3    H250214   4.805   3.560   1.476 -3.0559 -0.6473 -2.4113
 9575TIP3   OH250215   3.923   5.640  14.374 -0.4986 -0.0171  0.7236
 9575TIP3    H150216   3.836   5.601  14.364 -0.8225  0.6902  0.7758
 9575TIP3    H250217   3.955   5.606  14.458  0.5026 -2.6249 -0.6512
 9576TIP3   OH250218   1.250   4.914  16.172 -0.5676 -0.5068  0.5560
 9576TIP3    H150219   1.180   4.919  16.107  0.6084 -0.9247 -0.7500
 9576TIP3    H250220   1.255   5.003  16.209 -0.6590 -0.0542 -0.5187
 9577TIP3   OH250221   1.415   1.544   3.442 -0.4837 -0.3067 -0.3649
 9577TIP3    H150222   1.326   1.519   3.466  0.1968 -2.8388 -0.3110
 9577TIP3    H250223   1.433   1.493   3.363  1.1202 -0.2664 -0.0334
 9578TIP3   OH250224   1.039   4.956  13.148 -0.1509  0.1585  0.2309
 9578TIP3    H150225   0.966   5.015  13.167 -1.0257  0.2859 -3.1449
 9578TIP3    H250226   1.088   5.001  13.079 -0.0643 -2.4088 -1.4501
 9579TIP3   OH250227   0.199   2.061  16.748 -0.5183 -0.6265  0.6031
 9579TIP3    H150228   0.132   2.060  16.680  0.5350  0.4718 -0.4690
 9579TIP3    H250229   0.247   1.979  16.735  0.0106 -0.1698 -0.3007
 9580TIP3   OH250230   3.493   6.118   5.761 -0.4585  0.1592 -0.2294
 9580TIP3    H150231   3.407   6.108   5.802 -0.0391  1.5821  1.0086
 9580TIP3    H250232   3.501   6.211   5.742  1.2914  0.2302  0.7351
 9581TIP3   OH250233   3.544   1.858   0.706  0.1510  0.7268  0.0092
 9581TIP3    H150234   3.639   1.853   0.716  0.0678 -0.9395  0.1123
 9581TIP3    H250235   3.513   1.900   0.787  0.7188  0.4279  0.3833
 9582TIP3   OH250236   1.491   6.304   4.351  0.1575 -0.2426  0.0751
 9582TIP3    H150237   1.432   6.346   4.287 -1.1800  1.1052  2.1405
 9582TIP3    H250238   1.432   6.258   4.410  1.1273  1.5137  2.4750
 9583TIP3   OH250239   6.755   0.638  16.469 -0.2964  0.1090 -0.2843
 9583TIP3    H150240   6.690   0.572  16.494  1.2464 -1.3784 -0.2086
 9583TIP3    H250241   6.833   0.589  16.446  1.2261  1.9331  0.7922
 9584TIP3   OH250242   5.055   5.422  16.832  0.0633 -0.3187  0.2126
 9584TIP3    H150243   4.983   5.485  16.821 -0.2666 -0.8805 -0.9927
 9584TIP3    H250244   5.014   5.345  16.871  0.0605 -0.5345 -0.2127
 9585TIP3   OH250245   1.754   0.965   5.916 -0.1720 -0.5546 -0.0124
 9585TIP3    H150246   1.785   1.029   5.852  0.0829  0.0427  0.7181
 9585TIP3    H250247   1.713   0.897   5.862  1.4654 -0.8451 -0.9200
 9586TIP3   OH250248   2.575   0.162  14.826 -0.2168 -0.2861 -0.0780
 9586TIP3    H150249   2.608   0.073  14.838 -0.1219 -0.2106  0.2055
 9586TIP3    H250250   2.632   0.200  14.759  0.4467 -0.0585  0.6164
 9587TIP3   OH250251   4.322   3.688  16.663  0.1645  0.4280  0.3418
 9587TIP3    H150252   4.400   3.740  16.645  0.0481  0.5279  0.1234
 9587TIP3    H250253   4.343   3.639  16.743  0.4731  0.4024  0.2438
 9588TIP3   OH250254   3.255   5.910   0.731 -0.0709 -0.2875 -0.0143
 9588TIP3    H150255   3.176   5.960   0.713  1.0059  1.9297  1.1259
 9588TIP3    H250256   3.229   5.846   0.797 -1.1008 -0.0497 -0.1914
 9589TIP3   OH250257   1.133   1.080  12.004 -0.0566 -0.6459  0.1885
 9589TIP3    H150258   1.205   1.025  11.974 -0.0417 -0.5616  0.0665
 9589TIP3    H250259   1.089   1.107  11.923 -0.6561 -1.2775  0.2918
 9590TIP3   OH250260   4.680   2.257   1.800  0.0755 -0.2184  0.2169
 9590TIP3    H150261   4.674   2.224   1.890 -0.3642  0.8531  0.6006
 9590TIP3    H250262   4.774   2.262   1.782  0.1493 -2.2158 -0.0771
 9591TIP3   OH250263   4.029   1.730   1.018  0.1237  0.1496 -0.4758
 9591TIP3    H150264   4.120   1.748   0.995 -0.1848  2.0179 -0.2575
 9591TIP3    H250265   4.023   1.750   1.112 -0.5326  0.1251 -0.5095
 9592TIP3   OH250266   5.620   5.585   4.400  0.2386  0.1475  0.2136
 9592TIP3    H150267   5.638   5.650   4.332 -0.8920 -0.3590 -0.5883
 9592TIP3    H250268   5.632   5.632   4.482 -1.3117  1.5852 -0.3520
 9593TIP3   OH250269   6.160   0.542   6.207 -0.0039 -0.2014  0.3544
 9593TIP3    H150270   6.154   0.460   6.158 -2.0504  0.1552 -0.0274
 9593TIP3    H250271   6.112   0.525   6.288  1.3911 -0.0414  1.2440
 9594TIP3   OH250272   4.912   2.909   0.392 -0.5535  0.2146 -0.2695
 9594TIP3    H150273   4.923   2.824   0.350 -0.6009  1.0093 -1.9545
 9594TIP3    H250274   4.880   2.966   0.321 -0.6866  1.5772  0.8740
 9595TIP3   OH250275   3.511   1.802   2.295  0.7633 -0.6432  0.1094
 9595TIP3    H150276   3.502   1.896   2.312  1.9810 -0.8733  2.0341
 9595TIP3    H250277   3.524   1.797   2.200  1.0310  1.1560  0.0267
 9596TIP3   OH250278   2.034   6.257  16.991 -0.7980  0.1248  0.4797
 9596TIP3    H150279   1.984   6.187  17.034 -1.9099  0.4475 -0.2495
 9596TIP3    H250280   2.098   6.284  17.056 -0.2526 -1.6669  0.7317
 9597TIP3   OH250281   2.626   1.063   3.114 -0.2148  0.0824  0.9030
 9597TIP3    H150282   2.544   1.042   3.159 -1.5085  0.1514 -1.3153
 9597TIP3    H250283   2.681   0.986   3.126 -0.6075  0.0096  2.3618
 9598TIP3   OH250284   0.455   1.640   3.914  0.3836 -0.1094  0.2301
 9598TIP3    H150285   0.372   1.617   3.956  0.0250  1.3716  0.3383
 9598TIP3    H250286   0.522   1.598   3.968 -0.3616 -2.7112 -0.7906
 9599TIP3   OH250287   5.722   3.082  15.931  0.1441 -0.3587 -0.3610
 9599TIP3    H150288   5.724   2.994  15.969 -1.3633  0.0366  0.6977
 9599TIP3    H250289   5.734   3.141  16.005 -1.1310  0.3766 -0.7230
 9600TIP3   OH250290   2.631   3.129   0.992 -0.1043 -0.2401 -0.0792
 9600TIP3    H150291   2.628   3.211   0.943 -1.1316 -0.0754  0.2429
 9600TIP3    H250292   2.591   3.150   1.076  0.5877 -0.8129  0.3858
 9601TIP3   OH250293   2.365   2.691   4.187 -0.0161  0.4198  0.2329
 9601TIP3    H150294   2.452   2.709   4.150  0.0278 -2.2234 -1.0457
 9601TIP3    H250295   2.379   2.692   4.282  0.6478  3.5262  0.1462
 9602TIP3   OH250296   3.043   0.054  13.912  0.8271  0.0718 -0.2887
 9602TIP3    H150297   2.976   0.121  13.897  0.6053 -0.2048 -0.5358
 9602TIP3    H250298   3.107   0.097  13.969  0.7264  0.5179 -0.5102
 9603TIP3   OH250299   4.712   5.520   0.873  0.3015  0.0829 -0.2929
 9603TIP3    H150300   4.646   5.570   0.922 -1.4441 -2.3600 -0.0423
 9603TIP3    H250301   4.788   5.518   0.931 -0.2399  0.8894  0.4710
 9604TIP3   OH250302   3.705   3.698  15.363  0.0358  0.5391 -0.2014
 9604TIP3    H150303   3.714   3.626  15.302  0.4208  0.2141  0.2352
 9604TIP3    H250304   3.739   3.664  15.446 -1.1600  0.7242  0.3829
 9605TIP3   OH250305   5.745   1.254  17.028  0.1779 -0.3973  0.1572
 9605TIP3    H150306   5.798   1.180  17.058 -0.6765 -0.6779  1.0075
 9605TIP3    H250307   5.780   1.330  17.075 -1.2138 -0.8524  1.9654
 9606TIP3   OH250308   6.632   3.231   3.827  0.1671 -0.3598 -0.0002
 9606TIP3    H150309   6.607   3.282   3.904 -2.0100 -1.1125 -0.1613
 9606TIP3    H250310   6.697   3.284   3.782  0.5185  0.6641  1.6802
 9607TIP3   OH250311   5.413   5.144   5.188  0.0408  0.5507  0.0999
 9607TIP3    H150312   5.471   5.068   5.175 -0.4152  0.0792  0.7592
 9607TIP3    H250313   5.380   5.165   5.101 -2.4765 -2.1363  0.3247
 9608TIP3   OH250314   3.156   0.413  14.684 -0.2578 -0.0842  0.2172
 9608TIP3    H150315   3.198   0.330  14.664  3.2970  1.6445  0.0515
 9608TIP3    H250316   3.141   0.454  14.598 -1.8713 -0.4756  0.3016
 9609TIP3   OH250317   1.099   3.596   1.519 -0.4977  0.1188 -0.0729
 9609TIP3    H150318   1.029   3.534   1.542 -1.8382  2.0688  1.2481
 9609TIP3    H250319   1.079   3.621   1.428  0.6691 -2.1376 -0.9942
 9610TIP3   OH250320   5.682   3.861  16.319  0.1875  0.2477 -0.0940
 9610TIP3    H150321   5.774   3.841  16.337 -0.2187 -1.1444  0.5028
 9610TIP3    H250322   5.684   3.916  16.241  1.5675  0.7858  0.3070
 9611TIP3   OH250323   1.087   6.343  11.489 -0.2393  0.2853  0.8628
 9611TIP3    H150324   1.073   6.360  11.582  1.0171  4.0175  0.4438
 9611TIP3    H250325   1.176   6.373  11.473 -0.3701 -0.5210 -1.5272
 9612TIP3   OH250326   1.616   3.904   1.575 -0.0852  0.1348 -0.5597
 9612TIP3    H150327   1.528   3.874   1.594  0.7786 -2.1959 -0.0340
 9612TIP3    H250328   1.633   3.873   1.486 -0.0415  1.1342 -0.8960
 9613TIP3   OH250329   5.923   3.771   0.177 -0.4145  0.1086 -0.3764
 9613TIP3    H150330   6.005   3.731   0.146 -0.4802  1.1112 -1.9096
 9613TIP3    H250331   5.856   3.707   0.155 -0.0567 -0.6935  0.8320
 9614TIP3   OH250332   1.017   3.174  15.228 -0.0394  0.2302  0.1247
 9614TIP3    H150333   1.057   3.087  15.229  0.0650  0.2673 -0.7673
 9614TIP3    H250334   1.016   3.200  15.320  0.6688 -0.3719  0.3118
 9615TIP3   OH250335   6.420   4.539   3.919 -0.0001 -0.4215  0.1116
 9615TIP3    H150336   6.350   4.477   3.939 -1.1113 -0.2937 -3.0972
 9615TIP3    H250337   6.501   4.489   3.932 -0.6996 -0.9862  2.4846
 9616TIP3   OH250338   3.869   3.159  14.305 -0.0502  0.0800 -0.1612
 9616TIP3    H150339   3.883   3.154  14.210 -1.4871 -1.4615 -0.3104
 9616TIP3    H250340   3.778   3.131  14.317  0.3788 -0.5126  1.7541
 9617TIP3   OH250341   6.480   4.602  12.237 -0.2653  0.4573 -0.1801
 9617TIP3    H150342   6.434   4.664  12.180  1.9605  1.0428 -1.4206
 9617TIP3    H250343   6.428   4.522  12.232 -1.1128  1.0695 -1.5933
 9618TIP3   OH250344   1.460   2.540   5.254 -0.0338 -0.0218  0.1473
 9618TIP3    H150345   1.462   2.530   5.159 -0.8723  2.8591 -0.2129
 9618TIP3    H250346   1.441   2.452   5.287 -0.5632 -0.8890 -2.3638
 9619TIP3   OH250347   6.246   4.459   5.139 -0.5743  0.1596  0.0670
 9619TIP3    H150348   6.218   4.525   5.075  0.5837 -0.2291 -0.8672
 9619TIP3    H250349   6.334   4.487   5.165 -0.7469 -0.1014  0.9152
 9620TIP3   OH250350   2.988   3.894  14.585  0.1805 -0.3111 -0.0164
 9620TIP3    H150351   2.944   3.869  14.666 -0.3693  0.0447 -0.1996
 9620TIP3    H250352   2.936   3.966  14.551 -0.1626 -1.0891 -1.1779
 9621TIP3   OH250353   4.995   0.325  13.332  0.0863 -0.3054 -0.0012
 9621TIP3    H150354   4.922   0.385  13.348 -0.3216 -0.0957 -2.5185
 9621TIP3    H250355   4.955   0.248  13.292  1.1692 -0.3769 -0.9808
 9622TIP3   OH250356   1.280   4.492   4.417  0.3961  0.3623  0.3358
 9622TIP3    H150357   1.357   4.438   4.399  0.9341  1.4542 -0.7335
 9622TIP3    H250358   1.206   4.432   4.414  0.5056  0.3285 -4.9894
 9623TIP3   OH250359   4.477   0.797   3.880  0.2345  0.0049 -0.4998
 9623TIP3    H150360   4.525   0.803   3.963  1.2565 -1.6863 -0.9489
 9623TIP3    H250361   4.535   0.748   3.822 -2.3978 -3.0141 -0.7706
 9624TIP3   OH250362   1.988   4.955  15.246 -0.2154 -0.3717  0.0959
 9624TIP3    H150363   2.059   4.908  15.291  0.7674  1.8014  0.8616
 9624TIP3    H250364   1.908   4.919  15.284  0.5900  1.2867  3.4892
 9625TIP3   OH250365   4.873   1.828   0.446 -0.2746  0.0060 -0.2307
 9625TIP3    H150366   4.897   1.801   0.534  0.6433  3.0805  0.5262
 9625TIP3    H250367   4.915   1.763   0.389  2.6235  0.2875  1.4585
 9626TIP3   OH250368   1.013   4.775  11.435 -0.2839 -0.6878 -0.2775
 9626TIP3    H150369   1.008   4.759  11.529  1.1213 -0.7055 -0.1966
 9626TIP3    H250370   1.053   4.862  11.428  0.1967 -0.9535 -0.8666
 9627TIP3   OH250371   6.564   2.003   0.065  0.2659  0.4573 -0.2357
 9627TIP3    H150372   6.626   2.024   0.136 -0.7166  1.1455  0.4453
 9627TIP3    H250373   6.539   1.912   0.081  1.7256 -0.0917 -1.0069
 9628TIP3   OH250374   4.590   0.121   1.833 -0.0807  0.3248  0.3592
 9628TIP3    H150375   4.564   0.073   1.754 -2.4370 -0.3324  1.4786
 9628TIP3    H250376   4.638   0.058   1.886 -1.2750 -0.1739  0.8563
 9629TIP3   OH250377   0.328   1.012   2.043  0.0020 -0.5769 -0.2516
 9629TIP3    H150378   0.367   1.091   2.006  0.8248 -1.2251 -0.7943
 9629TIP3    H250379   0.403   0.961   2.074 -0.4604 -1.5631 -0.7491
 9630TIP3   OH250380   3.863   4.104  13.693 -0.1450 -0.0017  0.2826
 9630TIP3    H150381   3.949   4.125  13.729  1.5185 -0.7497 -3.0513
 9630TIP3    H250382   3.817   4.187  13.690  1.3993  0.8606 -0.2035
 9631TIP3   OH250383   6.629   1.882  11.253 -0.5741 -0.2766  0.6846
 9631TIP3    H150384   6.612   1.789  11.266 -0.2167 -0.3943  0.3419
 9631TIP3    H250385   6.654   1.914  11.340 -2.8116 -0.0288  1.2567
 9632TIP3   OH250386   4.440   4.128   3.372 -0.1573 -0.0190 -0.0403
 9632TIP3    H150387   4.504   4.057   3.373 -0.1477 -0.0099  0.0156
 9632TIP3    H250388   4.383   4.109   3.446  1.6707  1.6829  1.8716
 9633TIP3   OH250389   4.287   0.122  16.009 -0.0005  0.2914  0.1575
 9633TIP3    H150390   4.328   0.186  15.951  1.5461 -0.0471  0.8675
 9633TIP3    H250391   4.223   0.173  16.060 -0.9758  0.6856 -1.4239
 9634TIP3   OH250392   2.006   1.169   0.394  0.0952 -0.3017  0.5114
 9634TIP3    H150393   1.995   1.112   0.470  1.3562 -2.5659 -0.9548
 9634TIP3    H250394   1.997   1.111   0.319 -2.5924  2.1592 -1.1552
 9635TIP3   OH250395   3.079   2.887  13.664 -0.1762 -0.2287 -0.2875
 9635TIP3    H150396   3.035   2.957  13.712 -0.2608 -0.4393 -0.0553
 9635TIP3    H250397   3.125   2.931  13.593 -0.6980  0.0029 -0.4846
 9636TIP3   OH250398   0.253   5.277   1.563  0.5819  0.0501 -0.3072
 9636TIP3    H150399   0.305   5.358   1.561 -2.2072  1.8986 -0.2356
 9636TIP3    H250400   0.309   5.214   1.609  2.2693  2.3125  0.8551
 9637TIP3   OH250401   6.465   0.865  15.991 -0.2879  0.1518  0.1357
 9637TIP3    H150402   6.468   0.959  16.007 -0.6994  0.5483 -1.9738
 9637TIP3    H250403   6.404   0.854  15.918  0.8498 -1.5958 -0.6084
 9638TIP3   OH250404   4.950   4.493   3.786  0.1156 -0.0521 -0.2199
 9638TIP3    H150405   4.984   4.452   3.707  1.2222  0.1426  0.1392
 9638TIP3    H250406   4.941   4.586   3.763 -0.2438 -0.1136 -0.3341
 9639TIP3   OH250407   1.019   0.459  14.227 -0.0380  0.3715 -0.2222
 9639TIP3    H150408   0.928   0.488  14.230 -0.4585 -0.8207 -1.0067
 9639TIP3    H250409   1.031   0.408  14.307 -0.3127 -0.1703 -0.5223
 9640TIP3   OH250410   5.553   3.520   0.961  0.1774 -0.3814 -0.4971
 9640TIP3    H150411   5.643   3.541   0.986 -0.1902  0.3906  0.2175
 9640TIP3    H250412   5.560   3.491   0.870  1.4281 -2.4344  0.2227
 9641TIP3   OH250413   3.495   6.805   2.105 -0.4244 -0.0162  0.2215
 9641TIP3    H150414   3.500   6.855   2.024  0.8976 -2.7522 -1.4668
 9641TIP3    H250415   3.545   6.856   2.168  0.6086  0.9752 -1.3595
 9642TIP3   OH250416   0.384   5.123   2.245  0.1493  0.3426 -0.1408
 9642TIP3    H150417   0.323   5.188   2.279 -0.0400  0.1243 -0.0624
 9642TIP3    H250418   0.359   5.041   2.289 -0.1302  0.0470 -0.8556
 9643TIP3   OH250419   5.423   1.847  14.114 -0.4841  0.3109  0.1605
 9643TIP3    H150420   5.409   1.777  14.051  1.1651  0.5359 -0.4741
 9643TIP3    H250421   5.337   1.862  14.153 -0.8917 -1.9057  0.1417
 9644TIP3   OH250422   2.824   0.694   1.903 -0.2159 -0.7189 -0.5239
 9644TIP3    H150423   2.879   0.756   1.951  1.1045 -1.5898 -0.8832
 9644TIP3    H250424   2.814   0.733   1.816 -0.9886 -0.0936 -0.1671
 9645TIP3   OH250425   5.610   4.508   2.627  0.1549  0.2435  0.1730
 9645TIP3    H150426   5.566   4.435   2.583 -1.7901  1.2004  0.4667
 9645TIP3    H250427   5.683   4.467   2.673  1.6739 -0.9072 -3.1466
 9646TIP3   OH250428   1.338   4.601   1.834 -0.2171  0.0103 -0.2646
 9646TIP3    H150429   1.255   4.560   1.860 -0.9301  1.6698  0.0866
 9646TIP3    H250430   1.404   4.536   1.858 -1.2745 -0.6017  1.0798
 9647TIP3   OH250431   5.579   4.437  15.623  0.1263  0.1668  0.3361
 9647TIP3    H150432   5.581   4.498  15.549  0.0076  1.7538  1.6118
 9647TIP3    H250433   5.489   4.440  15.654  0.8096  1.6059  2.2390
 9648TIP3   OH250434   2.590   6.018  15.287  0.1038 -0.4000  0.4820
 9648TIP3    H150435   2.543   6.067  15.354 -2.4756  1.0242 -2.2526
 9648TIP3    H250436   2.543   5.935  15.281 -1.5613  0.6461 -1.5797
 9649TIP3   OH250437   3.299   2.386  11.977  0.4092 -0.2942 -0.4097
 9649TIP3    H150438   3.227   2.373  12.039  1.2246 -0.8295  0.4398
 9649TIP3    H250439   3.296   2.310  11.920  0.3487 -0.3493 -0.3323
 9650TIP3   OH250440   2.696   2.132   2.528  0.0572  0.1630  0.1921
 9650TIP3    H150441   2.692   2.220   2.565  2.0922  0.3544  0.0038
 9650TIP3    H250442   2.771   2.091   2.571 -1.5826 -1.9037  1.1529
 9651TIP3   OH250443   4.076   1.587   3.857  0.4518 -0.6765 -0.0424
 9651TIP3    H150444   4.010   1.554   3.797 -0.9324  0.7584  0.6579
 9651TIP3    H250445   4.140   1.631   3.801 -0.5296  0.1576 -0.5179
 9652TIP3   OH250446   6.097   4.554   4.512 -0.6633 -0.6042  0.2137
 9652TIP3    H150447   6.012   4.527   4.548 -2.4753  0.1988 -3.1978
 9652TIP3    H250448   6.096   4.649   4.519 -0.9743 -0.4478 -1.7015
 9653TIP3   OH250449   5.334   0.777  10.584 -0.2517 -0.1605  0.1566
 9653TIP3    H150450   5.267   0.709  10.587 -1.0634  0.5778 -1.1226
 9653TIP3    H250451   5.286   0.859  10.595  0.3669  0.4098 -1.2679
 9654TIP3   OH250452   4.457   5.951   1.031 -0.4936  0.2006  0.5034
 9654TIP3    H150453   4.368   5.947   0.996  0.5849  0.0118 -2.3178
 9654TIP3    H250454   4.473   6.044   1.044 -1.0177  0.2497  0.8328
 9655TIP3   OH250455   5.489   6.282   6.384  0.8723 -0.7721 -0.0394
 9655TIP3    H150456   5.471   6.189   6.399 -0.2499 -0.7389 -1.1476
 9655TIP3    H250457   5.471   6.296   6.291 -0.3861  0.8748  0.4234
 9656TIP3   OH250458   3.432   0.946   4.236 -0.0192  0.7183 -0.0309
 9656TIP3    H150459   3.486   0.867   4.232 -0.2501  0.6057 -1.0658
 9656TIP3    H250460   3.437   0.974   4.327  1.7438  0.6853 -0.1018
 9657TIP3   OH250461   0.963   6.488   4.792  0.3390 -0.0756 -0.3786
 9657TIP3    H150462   0.965   6.429   4.717  1.6784 -1.3994  0.6955
 9657TIP3    H250463   1.010   6.442   4.861  0.6942  1.8994  0.7315
 9658TIP3   OH250464   6.651   6.485  15.671  0.4340 -0.4229  0.3770
 9658TIP3    H150465   6.616   6.556  15.726 -0.0082  0.4851 -1.0396
 9658TIP3    H250466   6.655   6.409  15.729 -1.6527  0.0755  1.2057
 9659TIP3   OH250467   6.374   6.422   5.086 -0.0146 -0.0591  0.2933
 9659TIP3    H150468   6.400   6.513   5.103  1.1260 -0.0768 -1.3862
 9659TIP3    H250469   6.448   6.382   5.042 -0.6307 -1.7461  0.7258
 9660TIP3   OH250470   6.029   1.507   3.222  0.0521 -0.4064 -0.0019
 9660TIP3    H150471   6.093   1.527   3.154 -0.1079 -3.0233 -0.9880
 9660TIP3    H250472   5.947   1.494   3.175 -0.4304 -0.5749  0.8616
 9661TIP3   OH250473   0.876   3.817  14.376  0.1668  0.1109  0.2131
 9661TIP3    H150474   0.953   3.782  14.331 -1.6103 -0.7881 -2.2154
 9661TIP3    H250475   0.898   3.908  14.394  1.2476  0.2532 -1.7310
 9662TIP3   OH250476   1.943   2.236  16.224 -0.2286  0.2126 -0.1282
 9662TIP3    H150477   1.977   2.172  16.287 -3.7295  0.1455  1.8134
 9662TIP3    H250478   1.968   2.200  16.139  3.8034 -0.1704  1.0821
 9663TIP3   OH250479   1.472   5.354  14.337 -0.0868  0.9874  0.2104
 9663TIP3    H150480   1.515   5.436  14.312  0.3969  0.5505 -0.4261
 9663TIP3    H250481   1.500   5.340  14.427 -1.2801  2.2230  0.7881
 9664TIP3   OH250482   0.160   4.905   0.985  0.2426  0.1766 -0.0137
 9664TIP3    H150483   0.232   4.899   0.923  0.1335 -0.2886 -0.0941
 9664TIP3    H250484   0.202   4.901   1.071  0.3237  0.0479 -0.0599
 9665TIP3   OH250485   6.466   3.512  17.191 -0.0106 -0.0550 -0.5787
 9665TIP3    H150486   6.437   3.603  17.183 -2.5282 -0.9398 -2.1317
 9665TIP3    H250487   6.499   3.505  17.280  0.5954  2.4839 -0.5637
 9666TIP3   OH250488   0.980   6.255  12.973  0.7974  0.7897 -0.7736
 9666TIP3    H150489   0.980   6.227  13.064 -0.5067  0.4827 -0.8627
 9666TIP3    H250490   0.892   6.289  12.958  0.8893  0.5061 -2.0137
 9667TIP3   OH250491   4.051   5.053   4.419 -0.1076 -0.1445  0.4114
 9667TIP3    H150492   4.084   5.104   4.493  0.8947 -0.8535  0.4583
 9667TIP3    H250493   4.060   4.962   4.446  0.6974 -0.4161 -0.7608
 9668TIP3   OH250494   0.607   4.538   5.042  0.3192 -0.4129  0.2912
 9668TIP3    H150495   0.646   4.461   5.000  3.6028 -0.0703  2.5208
 9668TIP3    H250496   0.608   4.517   5.135 -2.2317  0.8596  0.6422
 9669TIP3   OH250497   5.298   2.346  13.565 -0.0020 -0.0979  0.1271
 9669TIP3    H150498   5.279   2.259  13.599  1.9252  0.0095  1.5442
 9669TIP3    H250499   5.228   2.402  13.600 -0.1353 -0.6932  0.8063
 9670TIP3   OH250500   4.818   2.842   2.083 -0.3007 -0.2610  0.3492
 9670TIP3    H150501   4.763   2.871   2.156 -1.2763  1.2786 -0.9482
 9670TIP3    H250502   4.905   2.834   2.121 -0.6874  1.0632  1.5723
 9671TIP3   OH250503   4.162   3.343  15.799  0.2045  0.1004 -0.5103
 9671TIP3    H150504   4.144   3.418  15.742 -1.9606 -0.7994 -1.0515
 9671TIP3    H250505   4.105   3.355  15.874  1.3108  0.0280  0.3492
 9672TIP3   OH250506   0.250   6.578   2.813  0.2912  0.1445  0.1129
 9672TIP3    H150507   0.184   6.515   2.841 -0.9671  1.6387  0.5257
 9672TIP3    H250508   0.237   6.588   2.719  0.8806 -0.6372 -0.0609
 9673TIP3   OH250509   2.494   3.851  10.754 -0.1710 -0.2779  0.8716
 9673TIP3    H150510   2.462   3.941  10.751 -1.8736 -0.8523  0.9549
 9673TIP3    H250511   2.587   3.858  10.774 -0.0578  1.5001 -0.2568
 9674TIP3   OH250512   3.299   4.196  13.587  0.8238 -0.4297 -0.1665
 9674TIP3    H150513   3.277   4.179  13.496  1.1147  0.3644 -0.3859
 9674TIP3    H250514   3.242   4.268  13.613  0.5142 -0.8644  0.3774
 9675TIP3   OH250515   5.143   5.123  11.357 -0.4228 -0.1275 -0.3300
 9675TIP3    H150516   5.075   5.061  11.383 -0.2206  0.1335  0.8165
 9675TIP3    H250517   5.224   5.086  11.392  0.0155 -0.3444 -1.5351
 9676TIP3   OH250518   2.518   1.174  14.428 -0.0959  0.0551  0.6855
 9676TIP3    H150519   2.612   1.187  14.443 -0.2052  3.3366 -1.0935
 9676TIP3    H250520   2.477   1.254  14.463 -2.1432 -0.9491  0.6473
 9677TIP3   OH250521   5.970   5.410  10.494 -0.5253  0.5968 -0.4539
 9677TIP3    H150522   5.878   5.412  10.467 -0.3904 -0.2447 -0.9989
 9677TIP3    H250523   5.973   5.345  10.564 -0.3638  0.6851 -0.3801
 9678TIP3   OH250524   6.545   2.829  16.429 -0.2064 -0.3593 -0.2263
 9678TIP3    H150525   6.533   2.740  16.460 -1.6793 -0.5275 -1.2481
 9678TIP3    H250526   6.559   2.820  16.335 -1.7916  0.5702 -0.5768
 9679TIP3   OH250527   2.894   2.644   4.332  0.6377 -0.2520 -0.2509
 9679TIP3    H150528   2.800   2.632   4.350  0.7779 -1.5038 -0.3248
 9679TIP3    H250529   2.896   2.684   4.245  0.1054  2.1080  0.7521
 9680TIP3   OH250530   5.011   4.005   2.323 -1.1685 -0.2138 -0.4183
 9680TIP3    H150531   5.068   4.069   2.280 -0.8782 -1.1147 -1.4160
 9680TIP3    H250532   5.055   3.921   2.310 -1.9582 -0.7234  0.1373
 9681TIP3   OH250533   6.480   2.809   3.436 -0.3424 -0.0472 -0.2111
 9681TIP3    H150534   6.461   2.897   3.469 -0.4909 -0.0401 -0.3151
 9681TIP3    H250535   6.432   2.803   3.353 -0.4355 -0.2708 -0.1432
 9682TIP3   OH250536   1.364   3.922  12.458 -0.1617 -0.0915 -0.0975
 9682TIP3    H150537   1.383   3.899  12.367 -0.0709 -0.6786  0.0636
 9682TIP3    H250538   1.301   3.994  12.453 -2.0729 -1.7547 -0.6198
 9683TIP3   OH250539   6.002   3.982  12.518 -0.0483  0.4241  0.4700
 9683TIP3    H150540   5.960   4.005  12.601 -1.9137 -1.5520  0.0863
 9683TIP3    H250541   5.930   3.964  12.458  1.3063 -0.5112 -0.9166
 9684TIP3   OH250542   6.187   4.125   0.495  0.3799 -0.5557 -0.2670
 9684TIP3    H150543   6.127   4.122   0.420  0.9723 -0.6978 -0.7400
 9684TIP3    H250544   6.137   4.167   0.564 -0.4506 -1.1389 -0.5009
 9685TIP3   OH250545   5.354   4.394  12.704 -0.3469  0.6219  0.1775
 9685TIP3    H150546   5.277   4.358  12.747 -0.8969  1.2764 -0.2404
 9685TIP3    H250547   5.383   4.325  12.644 -0.8187  0.5113  0.0773
 9686TIP3   OH250548   0.079   2.357  15.702  0.0576 -0.1167  0.8368
 9686TIP3    H150549   0.054   2.422  15.767  1.5694  0.6089  0.7138
 9686TIP3    H250550   0.143   2.402  15.646 -1.4626 -0.5996 -1.3730
 9687TIP3   OH250551   1.698   6.463   1.435  0.2274 -0.2974 -0.3736
 9687TIP3    H150552   1.717   6.378   1.395  3.1788  0.7212 -1.2647
 9687TIP3    H250553   1.622   6.495   1.387 -0.4472 -2.1004 -0.5517
 9688TIP3   OH250554   6.748   6.758   3.548  0.2112  0.0412  0.3747
 9688TIP3    H150555   6.711   6.701   3.482 -0.6302 -0.5167  1.3276
 9688TIP3    H250556   6.840   6.731   3.554  0.4175  0.4076 -0.8795
 9689TIP3   OH250557   0.318   2.357  11.311  0.0924 -0.0422 -0.2825
 9689TIP3    H150558   0.355   2.400  11.388  0.7640 -1.9175  0.4823
 9689TIP3    H250559   0.246   2.413  11.284  1.6150  2.1124  0.0118
 9690TIP3   OH250560   6.147   1.470  16.281 -0.4769  0.7238  0.4425
 9690TIP3    H150561   6.081   1.428  16.227 -0.1273 -0.3623  0.8591
 9690TIP3    H250562   6.136   1.431  16.368  0.9376  0.2943  0.4317
 9691TIP3   OH250563   5.097   2.409  16.418 -0.2637 -0.4020  0.0017
 9691TIP3    H150564   5.101   2.347  16.491 -3.0182  0.3991  0.8821
 9691TIP3    H250565   5.012   2.393  16.377 -0.2176  1.5326 -0.8887
 9692TIP3   OH250566   3.795   1.695  11.260 -0.1264  0.3558  0.2451
 9692TIP3    H150567   3.756   1.775  11.222 -1.4315  0.3535  1.5334
 9692TIP3    H250568   3.740   1.624  11.226  1.1542 -0.0279 -1.0559
 9693TIP3   OH250569   2.610   2.402   1.238 -0.3325 -0.0482 -0.6683
 9693TIP3    H150570   2.675   2.337   1.267 -1.5279 -0.9967 -0.0947
 9693TIP3    H250571   2.613   2.397   1.142  0.1556 -0.3566 -0.6412
 9694TIP3   OH250572   0.128   5.971  12.861  0.3110 -0.5135  0.1107
 9694TIP3    H150573   0.118   5.876  12.861 -0.2058 -0.4917  1.8715
 9694TIP3    H250574   0.156   5.992  12.951 -0.3410  1.0671 -0.0382
 9695TIP3   OH250575   2.004   5.641   0.908  1.1888  0.2836  0.2100
 9695TIP3    H150576   1.996   5.546   0.899  0.3992  0.5395 -2.0728
 9695TIP3    H250577   1.914   5.673   0.899  1.6570  1.3657 -0.7433
 9696TIP3   OH250578   5.440   5.619   3.540  0.5441  0.5499  0.0168
 9696TIP3    H150579   5.380   5.660   3.603 -2.1337 -0.6031 -1.6862
 9696TIP3    H250580   5.486   5.553   3.591 -1.6010 -0.3802  0.8233
 9697TIP3   OH250581   5.949   6.567   3.123  0.5687 -0.3357 -1.1217
 9697TIP3    H150582   5.999   6.489   3.098  2.3284  0.6266 -0.7370
 9697TIP3    H250583   5.993   6.639   3.078 -0.0254  0.6371 -0.1662
 9698TIP3   OH250584   1.814   2.189  12.229  0.6410 -0.4639 -0.2197
 9698TIP3    H150585   1.792   2.254  12.162 -1.6005 -2.1163 -1.1396
 9698TIP3    H250586   1.769   2.220  12.308 -1.0930 -1.2680 -0.8601
 9699TIP3   OH250587   4.653   4.075   5.358 -0.0376  0.8462 -0.2259
 9699TIP3    H150588   4.574   4.124   5.335 -0.2333  1.6462  2.0171
 9699TIP3    H250589   4.665   4.092   5.451  1.2624 -1.4607  0.0642
 9700TIP3   OH250590   1.945   4.618  15.611  0.1087  0.3189 -0.3384
 9700TIP3    H150591   1.927   4.644  15.701 -1.7816  0.5921 -0.7588
 9700TIP3    H250592   1.887   4.544  15.595  1.3685 -0.5603 -0.9340
 9701TIP3   OH250593   4.008   5.245   6.244  0.1216 -0.3063 -0.9560
 9701TIP3    H150594   3.990   5.319   6.186 -1.1373 -0.9642 -1.4156
 9701TIP3    H250595   4.073   5.278   6.306 -0.2945  1.1255 -1.2784
 9702TIP3   OH250596   3.059   5.684   2.698 -0.7195  0.2248  0.1355
 9702TIP3    H150597   3.133   5.624   2.701 -1.0248 -0.1897 -0.3991
 9702TIP3    H250598   3.089   5.758   2.647 -1.1991 -0.6996 -1.5273
 9703TIP3   OH250599   4.142   4.669   3.174  0.0068  0.6649 -0.1605
 9703TIP3    H150600   4.084   4.738   3.207 -0.1967 -0.3157  1.6205
 9703TIP3    H250601   4.218   4.672   3.231 -0.0196 -0.5978 -0.0371
 9704TIP3   OH250602   5.116   2.390   5.757  0.1270 -0.1605  0.3004
 9704TIP3    H150603   5.072   2.426   5.680 -1.1716 -1.3795  0.4428
 9704TIP3    H250604   5.182   2.331   5.721  0.7389  0.6284  0.1081
 9705TIP3   OH250605   0.362   0.468  14.043 -0.3437 -0.1057  0.0771
 9705TIP3    H150606   0.285   0.419  14.013 -0.5300 -0.1081  0.5633
 9705TIP3    H250607   0.405   0.409  14.105  0.3989 -0.3597 -0.6675
 9706TIP3   OH250608   1.764   5.233  15.954 -0.3063 -0.2347 -0.8526
 9706TIP3    H150609   1.855   5.257  15.971 -0.2582 -0.1923 -1.1587
 9706TIP3    H250610   1.714   5.281  16.019 -0.0909 -0.4421 -0.5300
 9707TIP3   OH250611   2.119   4.988   0.433  0.0696 -0.1650 -0.2822
 9707TIP3    H150612   2.143   5.020   0.346 -1.1914 -0.0426 -0.5913
 9707TIP3    H250613   2.113   4.893   0.423 -0.3956 -0.1245 -0.4205
 9708TIP3   OH250614   1.977   5.228   0.928 -0.0142 -0.4025  0.3991
 9708TIP3    H150615   1.990   5.269   1.013 -0.7184  1.3716 -0.3294
 9708TIP3    H250616   2.049   5.261   0.874  0.6779 -1.8525  0.3939
 9709TIP3   OH250617   6.600   1.304   0.115  0.4068 -0.1486  0.1344
 9709TIP3    H150618   6.567   1.338   0.032 -1.4656  1.7015  1.5919
 9709TIP3    H250619   6.662   1.236   0.090  0.8449  1.2612 -2.7963
 9710TIP3   OH250620   1.531   6.297  12.750 -0.1740 -0.1821 -0.0483
 9710TIP3    H150621   1.561   6.207  12.763 -2.2945 -0.8620  0.3784
 9710TIP3    H250622   1.517   6.331  12.839  0.7505  0.6314 -0.2006
 9711TIP3   OH250623   4.821   6.126  17.282  0.4919  0.3020 -0.3052
 9711TIP3    H150624   4.749   6.167  17.235 -1.6809  1.1443  3.5499
 9711TIP3    H250625   4.785   6.042  17.313  0.3905  1.5653  3.2919
 9712TIP3   OH250626   4.539   0.245   2.998  1.0150  0.2119 -0.2888
 9712TIP3    H150627   4.551   0.261   2.904 -0.0432  1.0708 -0.2838
 9712TIP3    H250628   4.445   0.249   3.011  1.0866 -0.8675  0.6589
 9713TIP3   OH250629   0.625   0.742  12.169  0.2235  0.8809  0.3075
 9713TIP3    H150630   0.647   0.712  12.081 -0.1562 -2.6814  1.3075
 9713TIP3    H250631   0.529   0.740  12.172  0.2565 -0.6054  1.2311
 9714TIP3   OH250632   3.253   3.789  11.384 -0.4633  0.3579  0.4731
 9714TIP3    H150633   3.261   3.788  11.480 -1.6552  0.6845  0.5830
 9714TIP3    H250634   3.192   3.861  11.366 -0.7028 -0.0795 -0.4979
 9715TIP3   OH250635   5.300   1.936  13.307 -0.4252 -0.0454 -0.3413
 9715TIP3    H150636   5.225   1.991  13.285 -0.1428  0.2231 -0.6566
 9715TIP3    H250637   5.276   1.849  13.276  0.2642  0.4705 -2.4515
 9716TIP3   OH250638   6.372   5.673   0.978 -0.2339  0.7496  0.7573
 9716TIP3    H150639   6.316   5.737   1.021 -0.3040  0.7026  0.7355
 9716TIP3    H250640   6.339   5.588   1.009 -1.1903  0.6581 -0.5094
 9717TIP3   OH250641   4.946   6.774  12.217  0.1306  0.3953  0.2422
 9717TIP3    H150642   5.006   6.819  12.158  1.7480 -2.0930 -0.0906
 9717TIP3    H250643   4.868   6.757  12.164  0.9482 -0.4073 -0.7282
 9718TIP3   OH250644   5.286   6.003  16.837 -0.2216  0.5553 -0.2294
 9718TIP3    H150645   5.323   6.084  16.873 -0.4308  0.0096  1.2698
 9718TIP3    H250646   5.192   6.013  16.847 -0.1860 -0.5087  1.4444
 9719TIP3   OH250647   0.620   5.469  10.605  0.3222 -0.2740 -0.0872
 9719TIP3    H150648   0.704   5.515  10.612 -0.2788  0.5108  2.7174
 9719TIP3    H250649   0.634   5.404  10.535  2.7715  0.8288 -0.6752
 9720TIP3   OH250650   6.275   4.273   4.942 -0.1938  0.5790  0.5100
 9720TIP3    H150651   6.235   4.327   4.874 -3.4105 -0.3146  1.6101
 9720TIP3    H250652   6.288   4.332   5.016 -2.3696  0.2230  1.2083
 9721TIP3   OH250653   6.020   2.910   2.768  0.2057 -0.1259 -0.3062
 9721TIP3    H150654   6.008   2.930   2.861  1.9790  0.9547 -0.2885
 9721TIP3    H250655   6.101   2.953   2.744 -1.1118  1.0952 -2.8212
 9722TIP3   OH250656   1.138   1.524   5.201 -0.3302 -0.0067  0.4090
 9722TIP3    H150657   1.108   1.508   5.111 -1.1961  0.2320  0.6576
 9722TIP3    H250658   1.139   1.620   5.209 -0.3469 -0.0309  0.6924
 9723TIP3   OH250659   4.325   3.475  11.633 -0.1868  0.5279  0.8466
 9723TIP3    H150660   4.273   3.417  11.577  0.2372  0.1039  0.8872
 9723TIP3    H250661   4.265   3.502  11.702 -0.2424 -0.2909  1.1273
 9724TIP3   OH250662   1.625   6.207   5.668  0.0378 -0.1000 -0.4123
 9724TIP3    H150663   1.582   6.177   5.588  0.4967  0.8767 -1.0426
 9724TIP3    H250664   1.650   6.298   5.649 -2.6924  1.2360  1.9531
 9725TIP3   OH250665   0.248   5.964  10.968  0.3430  0.4827 -0.0852
 9725TIP3    H150666   0.184   5.898  10.939 -1.4397  1.0535  2.4096
 9725TIP3    H250667   0.218   6.046  10.928  1.0517  0.2764 -1.0543
 9726TIP3   OH250668   4.662   0.967  14.409  0.0678 -0.2845 -0.0651
 9726TIP3    H150669   4.592   0.902  14.404 -0.9232  0.7996 -0.5067
 9726TIP3    H250670   4.702   0.966  14.323 -0.8503  0.6724 -0.5084
 9727TIP3   OH250671   3.492   3.471   1.923 -0.2982  0.2062  0.6945
 9727TIP3    H150672   3.492   3.539   1.856  1.0674 -1.3420 -0.9169
 9727TIP3    H250673   3.564   3.496   1.982  1.3600 -0.7478 -0.8802
 9728TIP3   OH250674   3.979   2.814   2.516  0.3729  0.4662  0.0585
 9728TIP3    H150675   4.037   2.826   2.441  0.1247  0.8912 -0.0694
 9728TIP3    H250676   4.029   2.760   2.577  1.4139  1.8985  0.5083
 9729TIP3   OH250677   6.756   4.634   4.332 -0.3158 -0.8788 -0.1872
 9729TIP3    H150678   6.719   4.579   4.263  0.8488 -1.7992 -0.0899
 9729TIP3    H250679   6.712   4.718   4.322  0.8573 -0.5595 -2.9404
 9730TIP3   OH250680   2.081   6.625  15.451 -0.9455 -0.1932 -0.4172
 9730TIP3    H150681   2.176   6.630  15.442 -0.8748  1.5708  1.0956
 9730TIP3    H250682   2.051   6.595  15.365  0.8697  0.5670 -1.3477
 9731TIP3   OH250683   2.233   4.295   5.863 -0.2804  0.7334 -0.0670
 9731TIP3    H150684   2.278   4.220   5.902 -1.4052 -0.0911 -0.3358
 9731TIP3    H250685   2.268   4.370   5.910  2.2327  0.2369 -1.0323
 9732TIP3   OH250686   1.584   2.077  15.348 -0.6389 -0.0998  0.6173
 9732TIP3    H150687   1.622   2.133  15.280 -0.1817  0.5240  1.3778
 9732TIP3    H250688   1.523   2.020  15.301 -0.1805  0.1906 -0.3428
 9733TIP3   OH250689   1.676   3.081  13.363 -0.7693 -0.3813  0.0662
 9733TIP3    H150690   1.736   3.017  13.325  0.6553  0.3963  0.9727
 9733TIP3    H250691   1.593   3.033  13.371 -0.0023 -1.8077 -0.1998
 9734TIP3   OH250692   1.215   2.586  16.799 -0.5468  0.0346  0.3354
 9734TIP3    H150693   1.257   2.669  16.823  1.0081 -0.3602 -0.9520
 9734TIP3    H250694   1.158   2.566  16.873  0.5677  1.2315  1.5436
 9735TIP3   OH250695   5.225   5.639   0.595 -0.0421 -0.0727  0.1757
 9735TIP3    H150696   5.162   5.668   0.529  0.6725 -1.3251 -1.0775
 9735TIP3    H250697   5.200   5.549   0.616  0.9805 -0.3824  0.0954
 9736TIP3   OH250698   5.210   3.818  15.556  0.4984  0.2605  0.0338
 9736TIP3    H150699   5.245   3.730  15.545 -0.4150 -0.0820 -0.0912
 9736TIP3    H250700   5.264   3.872  15.498  0.5810 -0.3289 -0.4380
 9737TIP3   OH250701   0.037   5.707   4.124  0.1553  0.3013 -0.2279
 9737TIP3    H150702   0.128   5.727   4.102  0.2704  0.6351  0.5581
 9737TIP3    H250703   0.040   5.670   4.212 -0.4132 -0.1939 -0.4105
 9738TIP3   OH250704   4.688   6.542  13.159  1.1750  0.4223  0.1972
 9738TIP3    H150705   4.707   6.597  13.083  0.2085 -1.0601 -1.1781
 9738TIP3    H250706   4.620   6.589  13.207 -0.5122 -0.1045 -1.6196
 9739TIP3   OH250707   5.032   0.527  13.015  0.0285 -0.0002 -0.0536
 9739TIP3    H150708   5.108   0.485  12.976  1.8284  2.0180  1.1765
 9739TIP3    H250709   4.982   0.560  12.940  0.5860 -0.9249 -0.8488
 9740TIP3   OH250710   1.684   1.438  14.229 -0.4316 -0.1378 -0.1790
 9740TIP3    H150711   1.634   1.433  14.311  1.2963 -2.5204  0.8119
 9740TIP3    H250712   1.774   1.450  14.258  0.0164  0.3902 -1.7942
 9741TIP3   OH250713   5.401   4.216   6.691  0.1038  0.3828 -0.2963
 9741TIP3    H150714   5.349   4.138   6.673 -1.8483  2.4351 -4.1677
 9741TIP3    H250715   5.354   4.261   6.761 -1.0444  0.1271 -0.8943
 9742TIP3   OH250716   1.581   5.443  16.080  0.2386 -0.5596 -0.0455
 9742TIP3    H150717   1.603   5.480  15.995  0.7615 -0.6079  0.0683
 9742TIP3    H250718   1.519   5.505  16.118 -0.5475 -0.9030 -0.7547
 9743TIP3   OH250719   5.627   1.340  12.093 -0.0475  0.1801  0.1375
 9743TIP3    H150720   5.604   1.344  12.000  0.6593 -0.9885 -0.0914
 9743TIP3    H250721   5.543   1.333  12.138 -0.3779  0.4595 -0.4257
 9744TIP3   OH250722   3.595   2.016   5.134  0.0643  0.2092 -0.1553
 9744TIP3    H150723   3.602   1.921   5.142  0.1738  0.4246  3.3716
 9744TIP3    H250724   3.685   2.046   5.118 -0.2497 -0.3827 -3.1815
 9745TIP3   OH250725   3.109   6.357  13.977  0.0514  0.3336 -0.0199
 9745TIP3    H150726   3.196   6.383  14.005  0.1230 -0.4520  0.5022
 9745TIP3    H250727   3.055   6.436  13.987  0.3146  0.3434  1.2908
 9746TIP3   OH250728   3.051   4.322  14.195 -0.0053 -0.2797  0.2438
 9746TIP3    H150729   3.102   4.317  14.276 -0.8734  0.4556  0.8487
 9746TIP3    H250730   3.030   4.231  14.174 -1.1663 -0.3679  1.7432
 9747TIP3   OH250731   4.842   5.276   5.490  0.2649  0.3117  0.7635
 9747TIP3    H150732   4.800   5.330   5.557  0.9432  2.6786 -0.6555
 9747TIP3    H250733   4.870   5.338   5.423 -0.2255 -1.9775 -1.6373
 9748TIP3   OH250734   0.141   1.447   2.554 -0.3505  0.5766  0.0753
 9748TIP3    H150735   0.225   1.402   2.556 -0.9383 -0.5775 -0.5076
 9748TIP3    H250736   0.126   1.476   2.644  0.0064 -0.4590  0.4699
 9749TIP3   OH250737   0.700   1.272   0.257  0.2682 -0.0655  0.7477
 9749TIP3    H150738   0.744   1.188   0.248 -0.2245 -0.2752  0.3024
 9749TIP3    H250739   0.660   1.288   0.171  0.6188  0.7675  0.7305
 9750TIP3   OH250740   4.594   1.942  14.778  0.1043 -0.3752 -0.1506
 9750TIP3    H150741   4.522   1.997  14.809  2.0448  0.3525  3.3105
 9750TIP3    H250742   4.661   2.003  14.749 -0.0130 -1.0327 -1.8726
 9751TIP3   OH250743   2.871   2.244   2.941 -0.6347 -0.1049 -0.0940
 9751TIP3    H150744   2.864   2.336   2.966 -0.0604  0.2619 -1.2485
 9751TIP3    H250745   2.826   2.197   3.011 -0.3991  1.0023  0.8225
 9752TIP3   OH250746   2.227   0.477   3.273  0.6658 -0.4070 -0.2670
 9752TIP3    H150747   2.228   0.523   3.357 -0.0610 -1.7883  0.5099
 9752TIP3    H250748   2.187   0.540   3.212 -0.5359 -0.0773  0.8290
 9753TIP3   OH250749   4.642   3.446   2.196  0.2533  0.6631 -0.3668
 9753TIP3    H150750   4.650   3.357   2.160  2.2276  0.8674 -0.4990
 9753TIP3    H250751   4.573   3.439   2.261 -1.0244 -0.4990 -1.7877
 9754TIP3   OH250752   0.860   1.442  11.275 -0.0612  0.3049  0.1083
 9754TIP3    H150753   0.939   1.390  11.260 -0.0166  0.4135 -0.0439
 9754TIP3    H250754   0.886   1.531  11.249  0.6002  0.8929  2.6159
 9755TIP3   OH250755   6.665   3.067  16.225  0.1310  0.7057 -0.1377
 9755TIP3    H150756   6.676   3.041  16.316  1.3227  0.9407 -0.2079
 9755TIP3    H250757   6.612   3.147  16.229  1.3520  1.4897  0.4460
 9756TIP3   OH250758   2.948   0.386   4.260  0.5532  0.3605  0.1654
 9756TIP3    H150759   2.910   0.404   4.346 -0.9532  0.7133 -0.5625
 9756TIP3    H250760   2.984   0.470   4.231  1.5212  0.1251  0.6649
 9757TIP3   OH250761   3.881   2.990  12.042 -0.9671 -0.2356 -0.3106
 9757TIP3    H150762   3.970   3.023  12.031 -0.9324 -0.5574 -0.9932
 9757TIP3    H250763   3.887   2.928  12.114 -1.2557  2.1070  1.8059
 9758TIP3   OH250764   6.153   1.843   4.106 -0.0189 -0.1705 -0.4433
 9758TIP3    H150765   6.109   1.801   4.180  1.9556 -1.0661  0.2631
 9758TIP3    H250766   6.156   1.936   4.129  0.9740 -0.5041  0.8379
 9759TIP3   OH250767   5.083   4.500  15.671 -1.5462 -0.1600  0.4552
 9759TIP3    H150768   5.031   4.577  15.648 -0.6817 -0.1114 -1.4739
 9759TIP3    H250769   5.023   4.427  15.662 -2.0695  0.1733  1.1865
 9760TIP3   OH250770   5.601   6.596   6.627  0.1239 -0.6429 -0.5950
 9760TIP3    H150771   5.610   6.612   6.721  1.1823 -0.7494 -0.6694
 9760TIP3    H250772   5.641   6.510   6.613 -0.3943 -0.8082 -1.0783
 9761TIP3   OH250773   0.159   6.031   5.900 -0.1661  0.4078  0.2426
 9761TIP3    H150774   0.102   5.959   5.928 -0.0164  0.3785  0.4659
 9761TIP3    H250775   0.101   6.087   5.847 -0.2229 -0.0035 -0.1408
 9762TIP3   OH250776   0.909   1.413   0.896  0.5153  0.0200  0.1886
 9762TIP3    H150777   0.943   1.460   0.820  0.3623 -1.0098 -0.5399
 9762TIP3    H250778   0.818   1.394   0.873 -0.1804  1.6631  1.5899
 9763TIP3   OH250779   0.018   2.196   4.349 -0.2226  0.0373  0.8841
 9763TIP3    H150780  -0.069   2.157   4.345 -0.5659  0.8311  0.5433
 9763TIP3    H250781   0.026   2.245   4.268  0.7631 -0.4764  0.6621
 9764TIP3   OH250782   2.211   6.145  12.329  0.7028  0.7756  0.0659
 9764TIP3    H150783   2.158   6.138  12.408 -0.2563  2.4720 -0.3918
 9764TIP3    H250784   2.288   6.092  12.347 -0.5960 -0.7837  1.2006
 9765TIP3   OH250785   5.788   5.563  14.021  0.2738 -0.2113 -0.0803
 9765TIP3    H150786   5.740   5.610  13.953  0.7357  0.2128 -0.1092
 9765TIP3    H250787   5.732   5.569  14.099 -0.2066 -0.6109 -0.3905
 9766TIP3   OH250788   2.244   6.087  14.232  0.1005 -0.0596 -0.6487
 9766TIP3    H150789   2.307   6.159  14.224 -1.2657  1.2837  0.4178
 9766TIP3    H250790   2.236   6.072  14.327  0.1155 -1.4039 -0.8440
 9767TIP3   OH250791   2.556   0.691  10.274  1.1493  0.3402 -0.1254
 9767TIP3    H150792   2.481   0.711  10.218  2.2225  2.7074 -0.7801
 9767TIP3    H250793   2.587   0.777  10.304  2.7204 -0.6913  1.3001
 9768TIP3   OH250794   6.060   0.035  11.710 -0.2479 -0.5951 -0.8313
 9768TIP3    H150795   6.012  -0.037  11.751 -2.2271 -0.7949 -3.4080
 9768TIP3    H250796   6.150   0.003  11.705 -0.3816 -1.4234  1.3190
 9769TIP3   OH250797   3.319   0.046  13.542  0.0622  0.0286  0.6549
 9769TIP3    H150798   3.273   0.020  13.621  0.7349 -1.4739  0.5615
 9769TIP3    H250799   3.412   0.031  13.562  0.1250 -1.7033 -0.9121
 9770TIP3   OH250800   2.834   6.251  16.805 -0.5079 -0.3588  0.4188
 9770TIP3    H150801   2.925   6.226  16.825  0.1703  1.4162 -0.2710
 9770TIP3    H250802   2.805   6.296  16.885 -0.8877 -1.1655  0.7419
 9771TIP3   OH250803   1.817   0.249   4.301  0.2158  0.0039  0.6244
 9771TIP3    H150804   1.888   0.204   4.256  1.3896  2.8667 -0.5649
 9771TIP3    H250805   1.760   0.280   4.230 -1.7183 -1.3951  1.5115
 9772TIP3   OH250806   2.250   1.783   5.339  0.0832 -0.5150  0.2017
 9772TIP3    H150807   2.165   1.818   5.365  0.8264 -0.3832  2.5809
 9772TIP3    H250808   2.266   1.712   5.401  3.2553  1.7351  2.1127
 9773TIP3   OH250809   3.481   6.775   4.226  0.3887  0.0883  0.3618
 9773TIP3    H150810   3.444   6.702   4.175  0.6146 -1.2686  2.0772
 9773TIP3    H250811   3.518   6.733   4.304  2.3040  1.8315  0.4345
 9774TIP3   OH250812   2.519   1.556  10.654  0.3639 -0.7744 -0.6394
 9774TIP3    H150813   2.483   1.607  10.726  0.7908 -2.0588  0.5060
 9774TIP3    H250814   2.498   1.607  10.575  0.3175  0.8709  0.4246
 9775TIP3   OH250815   5.050   0.750   0.157 -0.0596  0.1219  0.6326
 9775TIP3    H150816   5.004   0.796   0.228 -0.3073  0.2152  0.4135
 9775TIP3    H250817   4.980   0.718   0.100  0.0881 -1.0935  1.1287
 9776TIP3   OH250818   5.865   3.354   3.200  0.1248  0.4125  0.3884
 9776TIP3    H150819   5.800   3.295   3.162  3.0347 -1.7349 -1.4572
 9776TIP3    H250820   5.904   3.399   3.125  1.9286  0.4466  1.3117
 9777TIP3   OH250821   4.499   0.388   1.119 -0.0591  0.4687 -0.1072
 9777TIP3    H150822   4.484   0.331   1.195 -0.9096 -0.5892 -1.0600
 9777TIP3    H250823   4.429   0.452   1.123 -0.3506  0.1580 -0.2429
 9778TIP3   OH250824   5.855   6.073  12.740 -0.6335 -0.5497  0.0077
 9778TIP3    H150825   5.894   6.019  12.672  1.4934 -0.7991  1.3807
 9778TIP3    H250826   5.855   6.161  12.703  0.4019 -0.7029 -0.3912
 9779TIP3   OH250827   6.630   0.860   5.876  0.5591  0.0566 -0.2726
 9779TIP3    H150828   6.566   0.797   5.841  1.4578 -0.6147 -0.7106
 9779TIP3    H250829   6.662   0.906   5.799 -0.0135  0.9867  0.0364
 9780TIP3   OH250830   2.140   3.215  11.446  0.2417  0.7309 -0.4731
 9780TIP3    H150831   2.234   3.212  11.432  0.3344 -0.1542  0.2900
 9780TIP3    H250832   2.102   3.174  11.369  0.5180  0.3087 -0.3812
 9781TIP3   OH250833   1.095   2.527  16.578 -0.0865 -0.0072  0.3400
 9781TIP3    H150834   1.151   2.554  16.651 -0.4843  0.0102  0.6438
 9781TIP3    H250835   1.151   2.474  16.522  0.6417  1.2533 -0.1383
 9782TIP3   OH250836   0.444   3.101   3.684  0.3564 -0.4297  0.1213
 9782TIP3    H150837   0.377   3.155   3.727  0.4963 -0.6170  0.5830
 9782TIP3    H250838   0.520   3.158   3.677  0.3791 -0.4420  0.2577
 9783TIP3   OH250839   0.550   2.336  13.587  0.1677  0.4607  0.6758
 9783TIP3    H150840   0.626   2.342  13.530  0.3826 -0.9347  0.7901
 9783TIP3    H250841   0.561   2.407  13.650  2.9103 -1.4268  2.4496
 9784TIP3   OH250842   1.115   1.006  13.645 -0.6575 -0.0656  0.0095
 9784TIP3    H150843   1.099   0.917  13.676 -0.7073  0.1019  0.4536
 9784TIP3    H250844   1.146   1.054  13.722  1.9642 -0.3752 -0.7742
 9785TIP3   OH250845   4.854   2.427   5.134 -0.1444 -0.2102 -0.1185
 9785TIP3    H150846   4.800   2.349   5.147 -1.1147  0.6842  1.4267
 9785TIP3    H250847   4.839   2.479   5.213  2.7683  0.2097  0.1983
 9786TIP3   OH250848   1.723   3.179   3.516  0.4342 -0.3701  0.1847
 9786TIP3    H150849   1.726   3.256   3.459 -0.8262 -1.8089 -1.8895
 9786TIP3    H250850   1.807   3.136   3.503  1.1798  0.6865  1.4212
 9787TIP3   OH250851   4.753   1.610   6.111  0.0093 -0.3965  0.5977
 9787TIP3    H150852   4.679   1.638   6.165  0.8121  1.7765  0.6012
 9787TIP3    H250853   4.830   1.644   6.156  0.8088 -0.1546 -0.9314
 9788TIP3   OH250854   6.665   5.535  16.077 -0.1215  0.0087  0.1074
 9788TIP3    H150855   6.605   5.515  16.005 -0.4819  0.4012  0.2896
 9788TIP3    H250856   6.695   5.450  16.108  1.1115 -0.1100 -1.3952
 9789TIP3   OH250857   2.805   3.309  15.834  0.2441  0.0779 -0.4509
 9789TIP3    H150858   2.873   3.372  15.857 -0.2477  1.0479 -1.5867
 9789TIP3    H250859   2.726   3.341  15.878  0.4920 -1.0551  0.8817
 9790TIP3   OH250860   6.666   3.448   4.960 -0.3893  0.9721  0.0833
 9790TIP3    H150861   6.575   3.475   4.947 -0.7215 -0.4732 -0.6435
 9790TIP3    H250862   6.712   3.530   4.980 -1.3561  2.0984 -2.1253
 9791TIP3   OH250863   2.777   0.003  11.762 -0.2085  0.0369 -0.4843
 9791TIP3    H150864   2.833   0.038  11.693 -1.0493  2.3146 -0.0595
 9791TIP3    H250865   2.817   0.035  11.843 -2.2203  1.9447 -0.1855
 9792TIP3   OH250866   4.560   5.896  15.442 -0.1229  0.7511  0.0759
 9792TIP3    H150867   4.527   5.902  15.532 -1.8412 -0.7892 -0.4269
 9792TIP3    H250868   4.488   5.928  15.388 -0.2923 -1.3498 -0.9687
 9793TIP3   OH250869   2.136   5.113  12.210  0.0701 -0.3431 -0.1327
 9793TIP3    H150870   2.197   5.121  12.138  0.3028  1.9914  0.3001
 9793TIP3    H250871   2.168   5.038  12.260  1.8382  0.0636 -0.6145
 9794TIP3   OH250872   3.250   5.686  15.909  0.4588  0.1271 -0.0297
 9794TIP3    H150873   3.172   5.681  15.853 -0.3748  0.9042  1.0433
 9794TIP3    H250874   3.268   5.780  15.916  1.3470 -0.0381 -0.0747
 9795TIP3   OH250875   5.869   2.909  13.110 -0.1208  0.7570 -0.4608
 9795TIP3    H150876   5.815   2.830  13.106  1.0761 -0.0267 -1.5561
 9795TIP3    H250877   5.958   2.878  13.097  0.6393  2.0302  1.3652
 9796TIP3   OH250878   3.210   4.343   1.243  0.0179 -0.6277  0.2584
 9796TIP3    H150879   3.223   4.396   1.322 -1.8951  0.6307 -0.2409
 9796TIP3    H250880   3.299   4.329   1.209  0.7146  0.4892  1.5594
 9797TIP3   OH250881   5.305   4.614   5.454  0.6722 -0.6624 -0.2527
 9797TIP3    H150882   5.319   4.596   5.361 -0.7524  0.9009 -0.7976
 9797TIP3    H250883   5.224   4.666   5.457  0.2707 -1.3464  1.9249
 9798TIP3   OH250884   4.932   1.219  10.583 -0.4612 -0.6787 -0.3976
 9798TIP3    H150885   4.934   1.269  10.501 -0.7665  1.4451  0.8451
 9798TIP3    H250886   5.023   1.219  10.613 -0.2389 -2.0051 -1.0342
 9799TIP3   OH250887   5.471   0.320   3.671 -0.0297  0.5454 -0.1566
 9799TIP3    H150888   5.456   0.360   3.586 -2.0651  1.2494  0.5094
 9799TIP3    H250889   5.393   0.341   3.722  0.4700 -1.1870  1.3860
 9800TIP3   OH250890   0.859   0.873  13.812 -0.4127 -0.2168  0.1294
 9800TIP3    H150891   0.950   0.850  13.794  0.5742  2.1235  1.9525
 9800TIP3    H250892   0.809   0.829  13.744  2.2590  0.1539 -2.1241
 9801TIP3   OH250893   1.894   1.662   2.889 -0.6949 -0.1707  0.7962
 9801TIP3    H150894   1.924   1.651   2.979  2.0795  1.2607  0.0807
 9801TIP3    H250895   1.925   1.585   2.843  0.6284  0.5774  0.4017
 9802TIP3   OH250896   0.522   3.596  14.103  0.4166 -0.1131 -0.1606
 9802TIP3    H150897   0.581   3.660  14.065  1.8849 -0.4735  1.4681
 9802TIP3    H250898   0.579   3.527  14.137 -1.1198 -2.2622 -1.7940
 9803TIP3   OH250899   5.547   2.455  15.469  0.1947  0.2340 -0.2301
 9803TIP3    H150900   5.559   2.380  15.411 -0.1592  0.1962 -0.2607
 9803TIP3    H250901   5.487   2.424  15.536 -0.5860  0.7139 -0.6849
 9804TIP3   OH250902   5.240   4.752  12.144  0.4270  0.1218  0.0999
 9804TIP3    H150903   5.335   4.759  12.159  0.4195 -1.4284  0.9758
 9804TIP3    H250904   5.214   4.674  12.194 -1.5073  1.1861  0.7754
 9805TIP3   OH250905   2.952   4.374   3.392  0.3290  0.1827  0.4637
 9805TIP3    H150906   2.948   4.278   3.394 -0.4487  0.2308  3.0665
 9805TIP3    H250907   3.046   4.394   3.392  0.5106 -0.5755 -1.7073
 9806TIP3   OH250908   4.489   5.983  10.520  0.7497  0.3680 -0.0680
 9806TIP3    H150909   4.435   6.010  10.447  0.6574  0.5471  0.0629
 9806TIP3    H250910   4.561   5.934  10.481 -0.7688 -1.9278 -0.0309
 9807TIP3   OH250911   5.948   2.420  11.929 -0.2721 -0.1821 -0.0808
 9807TIP3    H150912   5.926   2.418  12.022  2.7295 -1.5228  0.6552
 9807TIP3    H250913   5.932   2.510  11.903 -0.3512  0.4231  1.9670
 9808TIP3   OH250914   5.975   1.474   5.126  0.1730  0.0950 -0.0438
 9808TIP3    H150915   5.887   1.436   5.120  0.2573 -0.5645  2.3489
 9808TIP3    H250916   5.963   1.565   5.101 -1.2296  0.0399  0.3455
 9809TIP3   OH250917   2.744   0.717   3.718 -0.0237 -0.1352 -0.2193
 9809TIP3    H150918   2.779   0.734   3.630  2.0965 -2.3652  0.1385
 9809TIP3    H250919   2.651   0.700   3.704  0.1379  0.2948 -1.9291
 9810TIP3   OH250920   2.524   3.694  15.078 -0.1240  0.0966  0.1575
 9810TIP3    H150921   2.504   3.699  15.171  0.5984  1.0383  0.2747
 9810TIP3    H250922   2.441   3.671  15.036 -0.2381 -1.2295  1.1204
 9811TIP3   OH250923   2.032   5.118   4.944  0.0176 -0.0107 -0.3156
 9811TIP3    H150924   2.093   5.055   4.983  1.0538  1.7770  1.0145
 9811TIP3    H250925   2.011   5.178   5.015 -0.6496  1.3714 -1.6632
 9812TIP3   OH250926   1.222   0.959  10.973  0.1766 -0.1049  0.3129
 9812TIP3    H150927   1.128   0.956  10.988 -0.1258  0.0113 -1.4478
 9812TIP3    H250928   1.244   0.872  10.940  0.3797  0.3902 -0.8928
 9813TIP3   OH250929   4.048   6.125   5.635  0.2190 -0.1866 -0.1423
 9813TIP3    H150930   4.001   6.086   5.710 -1.2687 -0.5559 -1.2474
 9813TIP3    H250931   4.086   6.205   5.670  0.1607 -0.7299  1.2080
 9814TIP3   OH250932   1.931   5.268  16.214  0.1928 -0.4220  0.3583
 9814TIP3    H150933   1.984   5.282  16.135  0.8895 -1.3942  0.6457
 9814TIP3    H250934   1.964   5.332  16.277 -0.0860  0.0773  0.0024
 9815TIP3   OH250935   6.439   1.239   6.178 -0.3632  0.5886 -0.1408
 9815TIP3    H150936   6.502   1.210   6.112  0.4115  0.0607  0.8195
 9815TIP3    H250937   6.385   1.162   6.195 -0.6530  0.7649 -0.2544
 9816TIP3   OH250938   3.981   2.188  11.290 -0.1807  0.2878  0.5764
 9816TIP3    H150939   4.034   2.248  11.343  0.0597  0.3856  0.2338
 9816TIP3    H250940   4.003   2.212  11.199  0.7586 -1.0513  0.4313
 9817TIP3   OH250941   3.507   1.045  14.537 -0.1980  0.4992 -0.0367
 9817TIP3    H150942   3.537   1.103  14.467 -1.2961  0.1613 -0.7975
 9817TIP3    H250943   3.419   1.076  14.557 -0.3580 -0.2081  0.3369
 9818TIP3   OH250944   4.823   0.528  15.622  0.3411  0.3001 -0.0749
 9818TIP3    H150945   4.905   0.532  15.574 -0.9151 -1.0333 -2.4031
 9818TIP3    H250946   4.756   0.550  15.558 -1.4320 -1.9584  0.9203
 9819TIP3   OH250947   1.800   2.775  17.235 -0.1227 -0.2725  0.5941
 9819TIP3    H150948   1.819   2.682  17.252  1.0287 -0.1736 -0.0853
 9819TIP3    H250949   1.814   2.785  17.141  0.6803  0.7968  0.8239
 9820TIP3   OH250950   6.222   6.621  15.766 -0.1045 -0.3128  0.0333
 9820TIP3    H150951   6.137   6.578  15.766  0.0434 -0.6080  0.2410
 9820TIP3    H250952   6.260   6.599  15.851 -0.2799  0.7413  0.3881
 9821TIP3   OH250953   2.382   1.656  12.863  0.2183 -0.1199 -0.3690
 9821TIP3    H150954   2.433   1.643  12.943 -1.7464  0.6044  1.0612
 9821TIP3    H250955   2.443   1.694  12.800  0.6998  3.8291  2.2982
 9822TIP3   OH250956   5.526   5.667  11.895 -0.0909  0.3645  0.3739
 9822TIP3    H150957   5.446   5.614  11.904 -0.7698  1.4534  0.8333
 9822TIP3    H250958   5.563   5.640  11.811  1.0805 -2.8727  1.8408
 9823TIP3   OH250959   3.813   4.163  12.589  0.1258 -0.5369 -0.0008
 9823TIP3    H150960   3.847   4.108  12.519 -1.6163 -0.1237 -1.2007
 9823TIP3    H250961   3.737   4.207  12.551  0.2697  1.1376  1.5688
 9824TIP3   OH250962   0.054   4.306   5.268  0.0988 -0.4074 -0.2487
 9824TIP3    H150963   0.053   4.398   5.242  0.0833 -0.4870 -0.5295
 9824TIP3    H250964   0.142   4.291   5.302 -0.0520 -0.1609  0.2597
 9825TIP3   OH250965   0.172   5.847  13.442 -0.1180  0.3234  0.9183
 9825TIP3    H150966   0.235   5.802  13.385  0.4555 -0.0386  1.8298
 9825TIP3    H250967   0.114   5.894  13.381  0.4834 -0.0589  0.0389
 9826TIP3   OH250968   5.022   3.150  12.917 -0.1195 -0.0013  0.3201
 9826TIP3    H150969   4.975   3.183  12.841  1.4445  1.1323 -0.1862
 9826TIP3    H250970   5.107   3.193  12.913  0.5977 -1.2251  1.7708
 9827TIP3   OH250971   6.103   6.794   5.929  0.2306 -0.2324 -0.7397
 9827TIP3    H150972   6.149   6.731   5.984 -0.1657  1.1613  1.2463
 9827TIP3    H250973   6.028   6.822   5.981 -1.6263 -0.7961 -3.0515
 9828TIP3   OH250974   5.415   2.153   2.617  0.6575 -0.1662  0.3491
 9828TIP3    H150975   5.348   2.096   2.655  1.1689 -1.8451 -1.2106
 9828TIP3    H250976   5.368   2.232   2.592 -0.1407 -0.0389  2.2021
 9829TIP3   OH250977   3.476   3.598   1.335  0.1789 -0.2687 -0.3672
 9829TIP3    H150978   3.534   3.529   1.301 -0.6880 -1.5417  0.6846
 9829TIP3    H250979   3.390   3.556   1.340 -0.4098  0.9836  0.0329
 9830TIP3   OH250980   0.621   4.414  17.028 -0.5896 -0.1063  0.0368
 9830TIP3    H150981   0.618   4.437  16.935 -0.0808 -1.2348 -0.2661
 9830TIP3    H250982   0.631   4.319  17.029  2.2089  0.1537  1.2178
 9831TIP3   OH250983   2.493   4.307  13.777 -0.1585  0.4490  0.1389
 9831TIP3    H150984   2.434   4.233  13.788  2.2994 -1.3443  1.8753
 9831TIP3    H250985   2.461   4.372  13.840 -0.1014 -0.6232  1.2865
 9832TIP3   OH250986   4.161   0.630   3.670 -0.1455  0.2228 -0.3377
 9832TIP3    H150987   4.217   0.604   3.597  0.2984 -0.4637  0.2486
 9832TIP3    H250988   4.073   0.630   3.632  0.0271 -0.5761 -0.7621
 9833TIP3   OH250989   4.119   5.483   1.363  0.5107  0.0790  0.0134
 9833TIP3    H150990   4.176   5.424   1.314  2.1710  2.9167 -1.6117
 9833TIP3    H250991   4.177   5.530   1.423 -0.9129 -0.5525  1.9308
 9834TIP3   OH250992   3.460   0.675   1.091  0.0911  0.4534 -0.1444
 9834TIP3    H150993   3.516   0.705   1.163 -1.1353  0.2642  0.8959
 9834TIP3    H250994   3.473   0.580   1.088  1.2519  0.6297 -1.1317
 9835TIP3   OH250995   3.649   5.174  16.202 -0.6407 -0.1278 -0.1421
 9835TIP3    H150996   3.669   5.263  16.173 -0.7684 -0.0651 -0.0364
 9835TIP3    H250997   3.622   5.128  16.122 -0.7825 -0.0146 -0.1595
 9836TIP3   OH250998   5.556   3.951  15.202  0.3370  0.4071 -0.1579
 9836TIP3    H150999   5.624   3.934  15.136  0.3002  1.6579 -0.5178
 9836TIP3    H251000   5.604   3.968  15.283  0.4456  0.9150 -0.3282
 9837TIP3   OH251001   1.687   5.334  12.657 -0.7632 -0.0641 -0.0635
 9837TIP3    H151002   1.668   5.318  12.565 -1.1286 -0.4151  0.0723
 9837TIP3    H251003   1.698   5.429  12.663  0.3440 -0.1380 -0.6671
 9838TIP3   OH251004   5.630   4.699   5.208 -0.0068  0.2539 -0.3082
 9838TIP3    H151005   5.713   4.681   5.164 -0.1538 -1.4495  0.0915
 9838TIP3    H251006   5.580   4.618   5.200 -0.0375 -0.1192  2.9943
 9839TIP3   OH251007   1.372   5.133  14.194  0.0847 -0.0865 -0.3519
 9839TIP3    H151008   1.427   5.071  14.241 -0.1890 -0.5944 -0.6860
 9839TIP3    H251009   1.412   5.218  14.209  2.0246 -0.6472 -2.0825
 9840TIP3   OH251010   4.443   6.083  15.249  0.9585  0.2232  0.4588
 9840TIP3    H151011   4.430   6.133  15.168  1.3641 -0.3646  0.0307
 9840TIP3    H251012   4.356   6.048  15.269  1.2057 -1.1349 -0.7226
 9841TIP3   OH251013   1.103   5.708  15.897  0.0437 -0.0195  0.6978
 9841TIP3    H151014   1.060   5.773  15.842  1.7276  0.1351 -0.4671
 9841TIP3    H251015   1.189   5.746  15.917 -0.0033 -0.6956  2.2532
 9842TIP3   OH251016   2.444   4.722  16.019 -0.2853 -0.0198 -0.1477
 9842TIP3    H151017   2.440   4.632  15.986  0.8861  0.0830 -0.5863
 9842TIP3    H251018   2.420   4.776  15.944 -1.4325  0.0169  0.2419
 9843TIP3   OH251019   2.261   5.648  16.124  0.0606 -0.0091  0.1620
 9843TIP3    H151020   2.250   5.714  16.191  1.8623 -0.3835  0.8683
 9843TIP3    H251021   2.343   5.672  16.080  1.1933 -2.2207  0.9919
 9844TIP3   OH251022   4.898   1.401   3.868  1.2420  0.0128  0.1689
 9844TIP3    H151023   4.848   1.446   3.800  0.2030 -1.1188  0.1766
 9844TIP3    H251024   4.914   1.313   3.832  0.2949 -0.7468  1.5526
 9845TIP3   OH251025   2.466   4.550   0.346  0.2856 -0.2786  0.4454
 9845TIP3    H151026   2.436   4.621   0.403  2.2600  0.3468  0.7506
 9845TIP3    H251027   2.442   4.579   0.258  0.2205  0.3236  0.6548
 9846TIP3   OH251028   0.229   2.190   5.287  0.0518  0.0978 -0.0737
 9846TIP3    H151029   0.144   2.233   5.271 -1.1399 -2.4478 -0.7375
 9846TIP3    H251030   0.272   2.247   5.351 -1.0867  2.7722 -1.6053
 9847TIP3   OH251031   0.905   1.267  17.072  0.2443  0.1339 -0.3915
 9847TIP3    H151032   0.997   1.264  17.045 -0.3583 -1.9939 -2.3678
 9847TIP3    H251033   0.900   1.344  17.129  3.7087 -1.0241  1.6586
 9848TIP3   OH251034   2.076   5.290   4.071  0.0156 -0.2526  0.2528
 9848TIP3    H151035   2.099   5.277   3.979  0.6947 -0.5815  0.4641
 9848TIP3    H251036   2.082   5.384   4.085 -0.8570 -0.1237 -0.2397
 9849TIP3   OH251037   2.075   5.086  15.893 -0.5271 -0.1250 -0.0841
 9849TIP3    H151038   2.144   5.135  15.939  0.0091 -0.8252 -0.1445
 9849TIP3    H251039   2.095   4.994  15.910 -2.7202 -0.2981  1.7318
 9850TIP3   OH251040   3.657   2.644   6.021  0.3339  0.0897 -0.3801
 9850TIP3    H151041   3.646   2.730   6.060  0.4705 -0.4307  0.8282
 9850TIP3    H251042   3.640   2.583   6.093 -0.8429 -0.9150 -1.4818
 9851TIP3   OH251043   2.728   5.431  11.556 -0.0910 -0.1478  0.3952
 9851TIP3    H151044   2.799   5.442  11.492 -0.5015 -0.0577 -0.0457
 9851TIP3    H251045   2.686   5.348  11.532 -1.2763  0.6868 -0.4636
 9852TIP3   OH251046   5.069   1.692   1.613 -0.1881 -0.1683  0.3581
 9852TIP3    H151047   4.980   1.708   1.643 -0.4282 -1.4954  0.4111
 9852TIP3    H251048   5.070   1.722   1.522 -0.8667 -0.6980  0.1727
 9853TIP3   OH251049   1.968   4.352   2.849 -0.3940  0.4663  0.1029
 9853TIP3    H151050   2.063   4.351   2.839 -0.2384 -1.2908  1.6382
 9853TIP3    H251051   1.935   4.308   2.771 -0.0274  2.1946 -1.0495
 9854TIP3   OH251052   0.007   6.113   0.514  0.1288 -0.0850  0.0199
 9854TIP3    H151053   0.029   6.029   0.553  0.6824 -0.3418 -0.8259
 9854TIP3    H251054  -0.083   6.102   0.482  0.7475 -0.9077 -1.5202
 9855TIP3   OH251055   4.474   0.524   3.163 -0.0654  0.2589  0.4168
 9855TIP3    H151056   4.502   0.441   3.202 -0.0588  1.4149  2.9841
 9855TIP3    H251057   4.543   0.586   3.187 -0.5599  1.2359 -0.6324
 9856TIP3   OH251058   5.028   6.734  10.993 -0.2279 -0.3843  0.1055
 9856TIP3    H151059   5.087   6.796  10.949 -0.3854 -0.4923 -0.2601
 9856TIP3    H251060   4.940   6.770  10.977 -0.3015 -0.5553  0.1197
 9857TIP3   OH251061   4.475   0.477  14.382 -0.3669  0.3712  0.2964
 9857TIP3    H151062   4.551   0.432  14.345 -1.2790 -0.1182 -1.0201
 9857TIP3    H251063   4.428   0.409  14.432 -0.7848  0.2904 -0.2037
 9858TIP3   OH251064   0.325   0.712  10.887  0.0521  0.3519  0.1895
 9858TIP3    H151065   0.315   0.647  10.957 -0.4609 -0.0123 -0.2165
 9858TIP3    H251066   0.270   0.680  10.816 -0.8784  1.6641  0.2866
 9859TIP3   OH251067   3.135   0.390  13.764 -0.2625  0.2636 -0.2056
 9859TIP3    H151068   3.189   0.319  13.730 -0.4582  0.0544 -0.0853
 9859TIP3    H251069   3.123   0.450  13.690 -0.6988 -0.1938 -0.5012
 9860TIP3   OH251070   3.954   1.570  10.556  0.2380 -0.2988 -0.3675
 9860TIP3    H151071   4.050   1.573  10.554  0.2555 -1.1041 -1.7781
 9860TIP3    H251072   3.933   1.481  10.583 -0.0972 -0.4525 -1.1053
 9861TIP3   OH251073   0.423   4.114   3.918 -0.1237 -0.6345 -0.3688
 9861TIP3    H151074   0.329   4.129   3.907 -0.4951 -1.3952  1.5311
 9861TIP3    H251075   0.436   4.114   4.012  1.8989  0.0442 -0.6346
 9862TIP3   OH251076   3.316   5.023   1.090  1.1074  0.2147  0.3861
 9862TIP3    H151077   3.354   4.997   1.007  2.5126 -0.5374  1.2521
 9862TIP3    H251078   3.274   4.943   1.123  0.9539  0.3929  0.6274
 9863TIP3   OH251079   3.212   0.190  16.129  0.1428  0.1428  0.3089
 9863TIP3    H151080   3.174   0.115  16.082 -0.1304 -0.2105  1.0848
 9863TIP3    H251081   3.183   0.267  16.080 -0.0500 -0.2283 -0.1613
 9864TIP3   OH251082   2.316   1.895   5.874  0.3897 -0.0340  0.2261
 9864TIP3    H151083   2.346   1.826   5.814  0.8724 -0.4979  0.9884
 9864TIP3    H251084   2.371   1.884   5.951  0.7321  1.4663  0.1991
 9865TIP3   OH251085   2.702   1.110   1.778 -0.2929  0.4584  0.2703
 9865TIP3    H151086   2.771   1.053   1.814 -2.5217 -0.8258  2.6558
 9865TIP3    H251087   2.731   1.199   1.800  1.3637  0.0389 -0.1345
 9866TIP3   OH251088   4.199   2.108  15.766 -0.0351  0.0725 -0.1706
 9866TIP3    H151089   4.133   2.044  15.794  1.3206 -0.8790  0.9005
 9866TIP3    H251090   4.262   2.056  15.716  1.4722  0.4182  1.3309
 9867TIP3   OH251091   5.056   3.248   1.661 -0.1189  0.6446  0.4222
 9867TIP3    H151092   5.097   3.200   1.733  1.3639 -1.3133 -1.6441
 9867TIP3    H251093   5.052   3.339   1.692  1.5947  0.0593  2.4904
 9868TIP3   OH251094   4.422   6.715  11.361  0.3553  0.3257  0.8214
 9868TIP3    H151095   4.479   6.722  11.284 -0.8288 -0.7254 -0.1633
 9868TIP3    H251096   4.335   6.735  11.328  0.0252  1.1461  2.1678
 9869TIP3   OH251097   4.161   2.065  14.042  0.2447  0.0384 -0.7816
 9869TIP3    H151098   4.102   2.132  14.008  0.6613 -0.0937 -1.7721
 9869TIP3    H251099   4.108   2.017  14.105 -0.2285  0.9359 -0.4740
 9870TIP3   OH251100   6.449   0.130   1.251 -0.4168 -0.4375  0.3253
 9870TIP3    H151101   6.381   0.116   1.317  0.1055  1.1543  1.2512
 9870TIP3    H251102   6.531   0.109   1.297 -0.0351  0.8685  0.2648
 9871TIP3   OH251103   5.297   0.321  13.289 -0.4371  0.6912 -0.5863
 9871TIP3    H151104   5.387   0.337  13.260 -0.2190  0.9450  0.2082
 9871TIP3    H251105   5.306   0.261  13.363 -1.0049 -0.1386 -1.1824
 9872TIP3   OH251106   6.112   5.032  13.149  0.6675  0.2989 -0.1649
 9872TIP3    H151107   6.102   4.952  13.200  0.6896  0.0120 -0.6046
 9872TIP3    H251108   6.148   5.003  13.065 -0.1001  0.6616 -0.6348
 9873TIP3   OH251109   6.371   5.612  14.165  0.2304  0.2712 -0.2219
 9873TIP3    H151110   6.376   5.523  14.201  0.8082 -0.0359 -1.0339
 9873TIP3    H251111   6.280   5.637  14.175  0.1729 -0.2114  0.5002
 9874TIP3   OH251112   0.952   0.560   5.538 -0.3983  0.3598 -0.7071
 9874TIP3    H151113   0.903   0.628   5.586  0.2708 -0.0589  0.5912
 9874TIP3    H251114   1.032   0.548   5.589 -0.6412 -1.6281 -0.7523
 9875TIP3   OH251115   2.811   2.652  15.953 -0.1565 -0.2446 -0.3175
 9875TIP3    H151116   2.883   2.666  15.891  2.3756 -3.3815  1.7218
 9875TIP3    H251117   2.845   2.686  16.036 -1.6765 -0.3391  0.3562
 9876TIP3   OH251118   3.693   2.558  15.937 -0.6039  0.1171  0.0103
 9876TIP3    H151119   3.679   2.486  15.876 -2.5232  0.9083 -0.5330
 9876TIP3    H251120   3.757   2.525  16.000  0.7145 -1.0295 -1.8860
 9877TIP3   OH251121   6.659   1.546   1.469 -0.4655 -0.0461 -0.1614
 9877TIP3    H151122   6.588   1.488   1.440 -1.4295  0.7030  0.6734
 9877TIP3    H251123   6.625   1.588   1.548  0.7086  0.7309 -0.0570
 9878TIP3   OH251124   5.909   4.820   4.151  0.3577  0.2688  0.0617
 9878TIP3    H151125   5.912   4.748   4.089 -0.7083  0.4470 -0.2037
 9878TIP3    H251126   5.853   4.788   4.222  0.5901  0.5149  0.3592
 9879TIP3   OH251127   2.020   0.177   0.962  0.2552  0.1147  0.1267
 9879TIP3    H151128   2.084   0.200   1.030  0.1223 -0.2664  0.3785
 9879TIP3    H251129   1.942   0.229   0.984  0.6683  1.0151 -0.5078
 9880TIP3   OH251130   1.966   1.100  14.653 -0.5702 -0.3759  0.4029
 9880TIP3    H151131   2.060   1.095  14.636 -0.5075  1.0751  0.3076
 9880TIP3    H251132   1.934   1.171  14.597 -2.0018 -1.8387 -0.7022
 9881TIP3   OH251133   3.723   5.311  14.841  0.5512  0.0074 -0.2137
 9881TIP3    H151134   3.715   5.272  14.929  0.1171 -0.0199 -0.2651
 9881TIP3    H251135   3.633   5.333  14.817  0.6448 -0.1964 -0.7470
 9882TIP3   OH251136   5.826   4.164  11.804  0.0719  0.1059  0.4640
 9882TIP3    H151137   5.904   4.185  11.752  0.9424 -0.5247  1.4750
 9882TIP3    H251138   5.861   4.145  11.891 -1.2516  0.0573  0.9850
 9883TIP3   OH251139   5.700   5.747  15.882 -0.3049 -0.2716  0.6216
 9883TIP3    H151140   5.610   5.715  15.880  0.1134 -1.4638  0.3335
 9883TIP3    H251141   5.722   5.765  15.791 -0.6001  1.0197  0.8069
 9884TIP3   OH251142   0.155   2.376  16.659  0.2316 -0.6670  0.5303
 9884TIP3    H151143   0.065   2.407  16.668  0.6898  0.7797  0.2898
 9884TIP3    H251144   0.160   2.300  16.717 -1.1934 -0.8757  0.3950
 9885TIP3   OH251145   1.185   6.215  16.627 -0.0776  0.0627  0.7157
 9885TIP3    H151146   1.240   6.173  16.561  0.2485 -1.8306  2.1531
 9885TIP3    H251147   1.125   6.146  16.655 -2.2091  1.6824  0.2460
 9886TIP3   OH251148   2.413   0.040   3.605 -0.2717 -0.3451  0.8519
 9886TIP3    H151149   2.384   0.117   3.557 -1.0095 -0.2963  1.3578
 9886TIP3    H251150   2.424  -0.028   3.539 -2.7169 -0.7024  0.7679
 9887TIP3   OH251151   4.936   2.091   4.831  0.9107  0.3248  0.7019
 9887TIP3    H151152   5.020   2.114   4.791  1.2189  0.2423  1.3033
 9887TIP3    H251153   4.952   2.096   4.925  0.1319  0.7054  0.8194
 9888TIP3   OH251154   4.060   1.953   1.981 -0.1264 -0.3036 -0.4188
 9888TIP3    H151155   4.068   1.920   2.070  4.9195 -2.3822 -1.4622
 9888TIP3    H251156   4.011   1.885   1.934  0.5637 -1.0410 -0.0776
 9889TIP3   OH251157   3.240   5.016  10.840 -0.3239  0.4281  0.4909
 9889TIP3    H151158   3.255   5.038  10.748  1.8313  1.4633  1.0490
 9889TIP3    H251159   3.147   4.992  10.845 -0.7871  1.6851 -1.6935
 9890TIP3   OH251160   5.770   6.143   2.017 -0.6334 -0.5123  0.0189
 9890TIP3    H151161   5.696   6.104   2.063 -0.0973 -2.5878 -0.8361
 9890TIP3    H251162   5.821   6.186   2.086 -2.2637  0.3703  0.6922
 9891TIP3   OH251163   3.237   0.263  13.996  0.2903 -0.6872 -0.1776
 9891TIP3    H151164   3.296   0.203  13.951 -0.8173 -1.8758 -0.0771
 9891TIP3    H251165   3.224   0.336  13.935  0.8365 -1.0404 -0.7132
 9892TIP3   OH251166   1.829   5.264  11.957  0.3149 -0.2128  0.2975
 9892TIP3    H151167   1.821   5.290  12.049 -0.5356 -1.0926  0.4867
 9892TIP3    H251168   1.908   5.308  11.926  1.8030 -1.6213  2.0342
 9893TIP3   OH251169   0.846   6.554   2.453 -0.1470  0.1512 -0.3360
 9893TIP3    H151170   0.808   6.468   2.437 -2.1879  0.9694 -0.0289
 9893TIP3    H251171   0.892   6.545   2.536 -0.8927 -0.4734  0.0155
 9894TIP3   OH251172   1.348   0.348   3.540  0.2389 -0.0645  0.0752
 9894TIP3    H151173   1.261   0.351   3.580  0.4459 -1.3055  0.6441
 9894TIP3    H251174   1.335   0.296   3.460  0.3500  0.2014 -0.1145
 9895TIP3   OH251175   2.920   4.787  12.892 -0.1785 -0.1006 -0.0758
 9895TIP3    H151176   2.934   4.712  12.833 -2.4152 -0.5162 -0.1181
 9895TIP3    H251177   2.826   4.804  12.887  0.2411  2.4892  0.2359
 9896TIP3   OH251178   6.780   4.901   2.117  0.7126 -0.1307  0.2376
 9896TIP3    H151179   6.818   4.825   2.162 -0.5523  0.0408  1.6572
 9896TIP3    H251180   6.714   4.934   2.178  0.4521  1.4285 -0.8598
 9897TIP3   OH251181   6.665   0.434   4.293 -0.0426 -0.1790 -0.0290
 9897TIP3    H151182   6.635   0.370   4.357 -2.9412 -1.1876 -2.2503
 9897TIP3    H251183   6.650   0.519   4.334  0.2600 -0.8429  1.4730
 9898TIP3   OH251184   0.498   1.200   1.959  0.2917 -0.6354  0.2728
 9898TIP3    H151185   0.587   1.177   1.934 -0.2183 -1.8025 -0.5034
 9898TIP3    H251186   0.469   1.260   1.890  0.7967  0.5135  1.0387
 9899TIP3   OH251187   1.743   1.682  11.535  0.2694 -0.1980 -0.4944
 9899TIP3    H151188   1.804   1.674  11.462 -1.1477  0.4863 -1.7804
 9899TIP3    H251189   1.683   1.609  11.525  2.0613 -2.1126  1.9743
 9900TIP3   OH251190   2.274   4.607  17.075 -0.4864  0.4104  0.4128
 9900TIP3    H151191   2.302   4.689  17.116 -1.0226  0.7101  0.1920
 9900TIP3    H251192   2.354   4.569  17.040 -0.5930  2.1971 -1.9087
 9901TIP3   OH251193   3.082   2.914  16.341  0.7340  0.1453  0.4033
 9901TIP3    H151194   3.040   2.843  16.291  1.7901 -0.7071  0.7161
 9901TIP3    H251195   3.012   2.978  16.354  0.0782 -0.2684 -0.9594
 9902TIP3   OH251196   4.932   6.274  14.330  0.0151 -0.2594 -0.0589
 9902TIP3    H151197   4.843   6.306  14.347  0.1890  0.0342  0.2957
 9902TIP3    H251198   4.945   6.290  14.236 -1.2966 -2.7562 -0.7105
 9903TIP3   OH251199   2.637   1.247   5.821  0.1632  0.5249  0.3388
 9903TIP3    H151200   2.567   1.193   5.858  0.5786  0.5425  1.1611
 9903TIP3    H251201   2.709   1.187   5.807 -0.1139  0.4524 -0.7859
 9904TIP3   OH251202   5.056   2.238   1.481 -0.0429 -0.2643 -0.3466
 9904TIP3    H151203   5.116   2.198   1.417  0.3117  0.2142 -0.3223
 9904TIP3    H251204   4.971   2.198   1.463 -0.0419  0.1617 -1.4058
 9905TIP3   OH251205   0.205   2.868  12.149 -0.2232 -0.4183 -0.1698
 9905TIP3    H151206   0.219   2.960  12.126  2.1514 -1.1483 -1.7540
 9905TIP3    H251207   0.174   2.827  12.069  2.7856 -1.8401 -0.6808
 9906TIP3   OH251208   4.188   0.690  17.161 -0.1078 -0.1502 -0.2388
 9906TIP3    H151209   4.250   0.617  17.168  0.7472  0.5760 -0.1472
 9906TIP3    H251210   4.239   0.761  17.123 -0.4255  0.9752  1.3911
 9907TIP3   OH251211   1.630   0.026  12.263 -0.1475  0.1727 -0.4204
 9907TIP3    H151212   1.604   0.025  12.355 -0.2951  1.5090 -0.4481
 9907TIP3    H251213   1.687  -0.050  12.254 -0.1396  0.0287  0.7669
 9908TIP3   OH251214   0.435   3.754   0.012  0.0204 -0.5315 -0.2676
 9908TIP3    H151215   0.344   3.780   0.003  0.1699  0.3329  0.6273
 9908TIP3    H251216   0.479   3.791  -0.065 -0.4482 -1.2743 -0.8974
 9909TIP3   OH251217   0.741   5.038   5.298 -0.2764 -0.0693  0.4950
 9909TIP3    H151218   0.764   5.106   5.362 -0.2860  0.9900 -0.5893
 9909TIP3    H251219   0.815   5.037   5.237 -0.8328 -0.1495 -0.1946
 9910TIP3   OH251220   1.665   3.113   0.438  0.9356 -0.1147 -0.4100
 9910TIP3    H151221   1.605   3.038   0.435 -0.7728  1.1054  1.9612
 9910TIP3    H251222   1.608   3.190   0.436  2.5341  1.0960 -0.1943
 9911TIP3   OH251223   1.432   5.733  13.156  0.0830 -0.1967 -0.3629
 9911TIP3    H151224   1.373   5.722  13.081 -0.5474 -0.4449  0.1676
 9911TIP3    H251225   1.381   5.784  13.219  0.8493  0.5937 -0.3660
 9912TIP3   OH251226   3.837   2.250   2.121 -0.3695  0.0676  0.1180
 9912TIP3    H151227   3.792   2.166   2.117 -0.5919  0.1880  0.1216
 9912TIP3    H251228   3.866   2.266   2.031 -0.8539  0.2778 -0.0020
 9913TIP3   OH251229   2.506   2.776  16.162  0.2686 -0.3304  0.2674
 9913TIP3    H151230   2.590   2.731  16.168  0.5395 -0.1086 -1.5457
 9913TIP3    H251231   2.524   2.855  16.111 -0.5515  0.9883  1.9690
 9914TIP3   OH251232   0.136   1.771   6.238 -0.0027 -0.0651  0.0716
 9914TIP3    H151233   0.113   1.843   6.180  1.5304  0.1662 -0.2713
 9914TIP3    H251234   0.056   1.753   6.287 -1.0403  0.3649 -1.4416
 9915TIP3   OH251235   3.367   2.842   6.042 -0.8131  0.1286 -0.3619
 9915TIP3    H151236   3.451   2.835   6.088 -0.3877  0.1245 -1.1237
 9915TIP3    H251237   3.310   2.888   6.103 -1.4659 -3.3806  1.8307
 9916TIP3   OH251238   3.552   2.094   0.485  0.9670  0.0509 -0.2076
 9916TIP3    H151239   3.512   2.017   0.526 -0.0359  0.7984  0.2429
 9916TIP3    H251240   3.543   2.163   0.551  0.3375  0.9856 -1.2594
 9917TIP3   OH251241   6.596   1.207   4.226 -0.0158 -0.1058 -0.2144
 9917TIP3    H151242   6.652   1.225   4.150  0.2949 -2.2779 -0.5350
 9917TIP3    H251243   6.531   1.277   4.225  2.9520  2.7904  0.4341
 9918TIP3   OH251244   0.862   5.711  16.718 -0.4387  0.0379 -0.0067
 9918TIP3    H151245   0.860   5.635  16.776 -0.7669  1.0162  1.3140
 9918TIP3    H251246   0.848   5.676  16.630 -1.2535 -1.3463  0.6660
 9919TIP3   OH251247   1.145   4.638  12.448  0.7532  0.3773  0.0102
 9919TIP3    H151248   1.061   4.637  12.493  0.1830  0.0490 -1.0478
 9919TIP3    H251249   1.207   4.601  12.511 -0.0102  0.0289  0.5598
 9920TIP3   OH251250   2.696   5.951   2.491  0.8195  0.5053 -0.2361
 9920TIP3    H151251   2.634   5.923   2.423  1.3344 -1.1176 -0.0515
 9920TIP3    H251252   2.777   5.903   2.471  1.2810  0.7927  0.9257
 9921TIP3   OH251253   0.855   0.462  13.921  0.1586 -0.0371  0.3778
 9921TIP3    H151254   0.797   0.447  13.845 -0.6185 -0.7013  1.0946
 9921TIP3    H251255   0.795   0.490  13.990  1.1787  3.3877 -0.0321
 9922TIP3   OH251256   4.963   0.186   1.296  0.1144 -0.3343  0.7798
 9922TIP3    H151257   4.980   0.237   1.217  0.3147  0.9322  1.6378
 9922TIP3    H251258   5.041   0.132   1.307  0.1736 -0.3635  0.2398
 9923TIP3   OH251259   5.497   2.268  15.815 -0.2965  0.2091 -0.8131
 9923TIP3    H151260   5.511   2.235  15.904  0.1695  1.3670 -0.4389
 9923TIP3    H251261   5.488   2.190  15.761 -0.3204 -0.5080  0.2176
 9924TIP3   OH251262   0.200   2.016  12.562 -0.0065 -0.2711  0.5543
 9924TIP3    H151263   0.148   1.949  12.607 -1.5621  0.5824  0.0821
 9924TIP3    H251264   0.157   2.099  12.584  0.7220  0.3873 -0.4529
 9925TIP3   OH251265   1.186   6.122   5.281 -0.2426 -0.2105 -0.2189
 9925TIP3    H151266   1.110   6.162   5.323 -0.1714 -0.0869 -0.2061
 9925TIP3    H251267   1.159   6.107   5.191  0.0311  0.7062 -0.4629
 9926TIP3   OH251268   6.045   0.494  15.906 -0.5742 -0.4014  0.5619
 9926TIP3    H151269   6.093   0.431  15.959  0.3444 -1.5713 -1.5705
 9926TIP3    H251270   5.993   0.544  15.968  1.8350 -0.5111  2.7033
 9927TIP3   OH251271   6.489   5.518  11.171 -0.4284 -0.2906 -0.4403
 9927TIP3    H151272   6.535   5.444  11.210 -1.3440 -0.8154 -0.3489
 9927TIP3    H251273   6.532   5.595  11.209  0.7734 -0.7644 -0.8341
 9928TIP3   OH251274   0.671   6.138   3.541  0.6380  0.2145  0.4041
 9928TIP3    H151275   0.585   6.175   3.561  0.8496 -0.4344  2.6959
 9928TIP3    H251276   0.727   6.168   3.613  2.0577 -0.3299 -0.4507
 9929TIP3   OH251277   5.553   1.228  14.684 -0.1703 -0.0439 -1.0141
 9929TIP3    H151278   5.582   1.146  14.644 -0.9906 -1.4176  1.1581
 9929TIP3    H251279   5.603   1.296  14.638  1.9254 -1.8907 -1.5310
 9930TIP3   OH251280   0.352   2.353  14.651 -0.0656  0.5193 -0.2970
 9930TIP3    H151281   0.320   2.382  14.566  1.2907  2.2963 -0.2438
 9930TIP3    H251282   0.445   2.334  14.636  0.1858  0.8629  0.7714
 9931TIP3   OH251283   2.158   0.136  13.540  0.9376  0.0512 -0.2711
 9931TIP3    H151284   2.160   0.177  13.626  3.1776 -0.0189 -0.2597
 9931TIP3    H251285   2.185   0.046  13.555 -0.0567 -0.3632 -0.8686
 9932TIP3   OH251286   4.562   5.020  14.443  0.2364 -0.2749  0.1092
 9932TIP3    H151287   4.578   5.010  14.537 -0.4685 -2.4663  0.0180
 9932TIP3    H251288   4.473   5.053  14.437  0.4304  0.2736  0.2173
 9933TIP3   OH251289   5.032   5.364   2.012 -0.3433  0.5191  0.2773
 9933TIP3    H151290   5.055   5.444   2.060 -0.4244  1.3787 -1.0846
 9933TIP3    H251291   5.113   5.337   1.970 -0.4576  0.2047  0.2586
 9934TIP3   OH251292   2.558   6.170  15.717 -0.1847  0.1756 -0.0337
 9934TIP3    H151293   2.581   6.242  15.775 -1.9769  0.5619  0.2078
 9934TIP3    H251294   2.643   6.138  15.684  0.5725  3.5226 -1.5464
 9935TIP3   OH251295   4.289   0.817  10.872  0.1374  0.0361 -0.5099
 9935TIP3    H151296   4.255   0.767  10.947  0.9110 -0.6111 -0.5749
 9935TIP3    H251297   4.365   0.766  10.843  0.1484  0.5646 -1.4096
 9936TIP3   OH251298   6.076   0.228  16.944 -0.2490 -0.2831  0.0008
 9936TIP3    H151299   6.067   0.228  17.039 -0.3606  0.9768 -0.0061
 9936TIP3    H251300   6.116   0.312  16.924  0.0415 -0.6663 -1.0461
 9937TIP3   OH251301   4.134   6.605  15.113  0.6046  0.1564 -0.1600
 9937TIP3    H151302   4.142   6.579  15.205  2.0471  0.0227 -0.3051
 9937TIP3    H251303   4.195   6.678  15.104 -0.0097  0.5849 -0.8612
 9938TIP3   OH251304   5.353   6.411  14.533  0.1070  0.6529  0.3229
 9938TIP3    H151305   5.258   6.397  14.533  0.2629 -0.5486  2.0074
 9938TIP3    H251306   5.388   6.337  14.582  1.9415  1.0151 -0.4085
 9939TIP3   OH251307   5.308   1.808  13.771 -0.4255  0.0913 -0.2578
 9939TIP3    H151308   5.268   1.779  13.689  1.6706 -3.2244 -0.1969
 9939TIP3    H251309   5.297   1.734  13.831 -0.3937  1.8093  1.9457
 9940TIP3   OH251310   1.076   4.173   6.019  0.0779  0.3582 -0.7194
 9940TIP3    H151311   1.128   4.238   6.066 -0.1738  1.6901 -2.2371
 9940TIP3    H251312   1.141   4.124   5.967  0.5416 -2.0510  1.9870
 9941TIP3   OH251313   3.199   1.051  14.785 -0.0751 -0.4063 -0.2810
 9941TIP3    H151314   3.133   1.046  14.854 -0.9994 -1.3058 -1.2028
 9941TIP3    H251315   3.232   0.961  14.778  0.3295 -0.2263 -0.7016
 9942TIP3   OH251316   5.876   4.123  15.237 -0.5123  0.4309 -0.0573
 9942TIP3    H151317   5.937   4.188  15.272 -0.3004  0.1285  0.1418
 9942TIP3    H251318   5.791   4.167  15.238  0.0002  1.5501 -2.1732
 9943TIP3   OH251319   6.213   4.475  11.524 -0.0931 -1.0471  0.2607
 9943TIP3    H151320   6.279   4.433  11.468 -0.3106  0.5788 -1.2737
 9943TIP3    H251321   6.161   4.528  11.463  0.6521  2.0469  2.2055
 9944TIP3   OH251322   1.816   2.707   2.643 -0.7757  0.5684 -0.1620
 9944TIP3    H151323   1.840   2.791   2.605 -0.2837  0.7021  0.4386
 9944TIP3    H251324   1.895   2.653   2.634 -0.1555  1.0680  1.9843
 9945TIP3   OH251325   2.092   2.169   3.218 -0.2681 -0.1935 -0.3846
 9945TIP3    H151326   2.014   2.114   3.221 -0.6519  0.2619 -1.8204
 9945TIP3    H251327   2.143   2.135   3.145  0.3366  0.2341 -0.1664
 9946TIP3   OH251328   2.488   2.068   3.933  0.1263  0.1442 -0.4490
 9946TIP3    H151329   2.426   2.075   3.860  1.4025 -0.1652 -1.5679
 9946TIP3    H251330   2.452   1.998   3.988 -0.8314  0.3719 -0.7725
 9947TIP3   OH251331   1.735   1.834  15.209 -0.3270 -0.0298 -0.3749
 9947TIP3    H151332   1.824   1.798  15.207 -0.9474 -1.6117 -0.2292
 9947TIP3    H251333   1.734   1.893  15.284  0.0152 -1.5944  0.8785
 9948TIP3   OH251334   6.622   5.660   2.780  0.3503 -0.1981 -0.6176
 9948TIP3    H151335   6.615   5.647   2.874  2.3303 -2.4234 -0.7515
 9948TIP3    H251336   6.565   5.593   2.742  0.8544 -0.3817 -1.0516
 9949TIP3   OH251337   1.251   0.687   1.358  0.1623 -0.1402 -0.0681
 9949TIP3    H151338   1.197   0.721   1.429  0.9676  2.9229 -0.8505
 9949TIP3    H251339   1.336   0.729   1.369  1.3806 -2.3476 -0.7941
 9950TIP3   OH251340   2.882   0.633  12.438 -0.1153  0.4084 -0.2192
 9950TIP3    H151341   2.838   0.572  12.379 -1.6598  1.1342  0.1727
 9950TIP3    H251342   2.903   0.580  12.516  1.2948 -0.3695 -1.0976
 9951TIP3   OH251343   5.703   3.077  17.242  0.0328  0.5069  0.3182
 9951TIP3    H151344   5.670   3.071  17.331  0.8941  0.7471  0.6524
 9951TIP3    H251345   5.626   3.099  17.189 -0.5795 -0.1591  0.9209
 9952TIP3   OH251346   3.974   5.005   1.939 -0.2644 -0.3070 -0.3022
 9952TIP3    H151347   4.031   5.006   2.016  1.4895 -3.5316 -1.4467
 9952TIP3    H251348   4.029   5.038   1.869 -1.5012  1.5384 -0.4233
 9953TIP3   OH251349   2.413   4.042  11.608  0.4099 -0.4910 -0.3248
 9953TIP3    H151350   2.414   4.122  11.556  0.7284  1.9809  3.2814
 9953TIP3    H251351   2.321   4.015  11.608 -0.0569  1.0229  0.0135
 9954TIP3   OH251352   3.744   1.404  15.920  0.0034  0.1551  0.1894
 9954TIP3    H151353   3.699   1.444  15.995 -0.2145 -1.5192  0.9860
 9954TIP3    H251354   3.683   1.337  15.889  0.7501 -0.2128 -0.4963
 9955TIP3   OH251355   4.629   3.124  12.820 -0.0797  0.6995  0.2299
 9955TIP3    H151356   4.716   3.161  12.831  0.0273  0.5757 -0.1826
 9955TIP3    H251357   4.625   3.054  12.885  0.7216 -0.3363 -0.7909
 9956TIP3   OH251358   3.248   3.797  16.040 -0.0340  0.1376 -0.6084
 9956TIP3    H151359   3.269   3.867  16.102 -3.3063 -0.7849  1.6703
 9956TIP3    H251360   3.169   3.829  15.996 -0.5497 -1.3720 -0.7802
 9957TIP3   OH251361   6.572   0.037  15.635 -0.1254 -0.3551  0.3418
 9957TIP3    H151362   6.569   0.019  15.729 -1.2796  0.2894  0.4414
 9957TIP3    H251363   6.526  -0.037  15.596 -1.1820  0.2434  0.4291
 9958TIP3   OH251364   1.280   0.724  12.223 -0.8630 -0.0221  0.0626
 9958TIP3    H151365   1.295   0.630  12.239  1.2496  0.2024 -0.4866
 9958TIP3    H251366   1.307   0.766  12.305 -1.1244  0.1789  0.0450
 9959TIP3   OH251367   3.865   5.023  15.961  0.3516 -0.0760  0.0116
 9959TIP3    H151368   3.805   5.085  15.919 -0.0279 -0.6178 -0.2507
 9959TIP3    H251369   3.947   5.071  15.969  0.3328  0.1330 -1.0621
 9960TIP3   OH251370   2.340   3.404   4.368  0.3958  0.4134 -0.0059
 9960TIP3    H151371   2.252   3.378   4.343 -0.1598  0.7274  1.5704
 9960TIP3    H251372   2.329   3.456   4.448  1.8764  1.6612 -0.5741
 9961TIP3   OH251373   3.314   2.912   2.520  0.5822 -0.2520  0.1369
 9961TIP3    H151374   3.277   2.983   2.572  1.6095  0.6602 -0.3202
 9961TIP3    H251375   3.243   2.850   2.507  0.0400  0.0383  1.7001
 9962TIP3   OH251376   2.949   0.818   1.097 -0.3392  0.3710  0.4968
 9962TIP3    H151377   2.905   0.826   1.182 -0.6366  1.9597  0.2059
 9962TIP3    H251378   3.039   0.794   1.119  0.1303  2.8713  1.3733
 9963TIP3   OH251379   1.854   4.616  16.149 -0.4594  0.6155  0.5648
 9963TIP3    H151380   1.873   4.656  16.234 -0.7078  2.8900 -0.4335
 9963TIP3    H251381   1.761   4.632  16.135  0.4112  3.9217 -1.9691
 9964TIP3   OH251382   3.857   5.976   3.842 -0.2507  0.1794 -0.5609
 9964TIP3    H151383   3.762   5.974   3.855 -0.3504  1.1676 -1.0959
 9964TIP3    H251384   3.892   6.014   3.922 -0.0991 -2.4136  0.6419
 9965TIP3   OH251385   6.427   2.894   1.814  0.0926 -0.3542 -0.1627
 9965TIP3    H151386   6.345   2.916   1.771  0.7664 -0.2993 -1.4805
 9965TIP3    H251387   6.482   2.971   1.803  0.7538 -0.8544 -0.4244
 9966TIP3   OH251388   0.806   3.025  16.441 -0.2328 -0.0636  0.6127
 9966TIP3    H151389   0.880   2.994  16.492  0.4993 -0.5890 -0.7344
 9966TIP3    H251390   0.821   3.119  16.431  1.1000 -0.4316 -0.9894
 9967TIP3   OH251391   5.944   4.956   3.127 -0.1714 -0.2727 -0.5040
 9967TIP3    H151392   5.932   4.943   3.033 -0.3485  0.8782 -0.6476
 9967TIP3    H251393   5.887   5.029   3.148 -1.5707 -1.7115  0.8708
 9968TIP3   OH251394   2.477   4.873  11.884 -0.4748 -0.3723  0.0184
 9968TIP3    H151395   2.422   4.815  11.935  0.0834 -0.2919  0.7219
 9968TIP3    H251396   2.513   4.817  11.814  0.1679 -0.9147  0.7709
 9969TIP3   OH251397   4.434   4.839  15.336 -0.2132 -0.2047  0.2188
 9969TIP3    H151398   4.522   4.876  15.341 -0.2763  0.4415 -2.6601
 9969TIP3    H251399   4.448   4.744  15.330  0.2571 -0.1411  0.3134
 9970TIP3   OH251400   1.153   4.817   3.678 -0.0419  0.2418 -0.1878
 9970TIP3    H151401   1.092   4.889   3.698 -0.5078 -0.3674  0.6191
 9970TIP3    H251402   1.234   4.841   3.723  0.4386  1.2456 -1.5831
 9971TIP3   OH251403   2.335   6.539  10.916  0.0698  0.0988 -0.0648
 9971TIP3    H151404   2.383   6.507  10.839  0.0808  0.4555 -0.2102
 9971TIP3    H251405   2.250   6.566  10.882  0.2742  0.7774 -0.0528
 9972TIP3   OH251406   1.632   0.898   2.027  0.2751  0.2143  0.0680
 9972TIP3    H151407   1.629   0.913   2.122  1.2047 -0.4770  0.2167
 9972TIP3    H251408   1.667   0.979   1.991  1.3322 -0.0518  0.4696
 9973TIP3   OH251409   6.392   5.954  12.979  0.2815 -0.0608  0.2490
 9973TIP3    H151410   6.458   5.916  12.921 -0.7798 -1.3356 -0.1330
 9973TIP3    H251411   6.330   5.883  12.995 -1.0721  1.1532  0.4952
 9974TIP3   OH251412   0.474   6.525   3.638 -0.1078 -0.5775  0.1784
 9974TIP3    H151413   0.442   6.435   3.629 -0.7464 -0.2148 -1.2291
 9974TIP3    H251414   0.406   6.569   3.689 -0.6003 -0.4665 -0.5740
 9975TIP3   OH251415   1.944   4.561  10.726  0.3812 -0.0063  0.1298
 9975TIP3    H151416   1.968   4.469  10.715 -0.7120 -0.1845 -0.8746
 9975TIP3    H251417   1.850   4.563  10.707 -0.0644  0.9529  2.3057
 9976TIP3   OH251418   0.586   2.623  11.931 -0.4793  0.5275 -0.0051
 9976TIP3    H151419   0.591   2.669  12.015 -0.0533  2.0588 -0.8548
 9976TIP3    H251420   0.508   2.659  11.889 -0.3443  0.2060 -0.5327
 9977TIP3   OH251421   0.414   2.998   5.718  0.4669 -0.5736 -0.1539
 9977TIP3    H151422   0.338   3.056   5.709 -0.0037 -1.1312  0.2234
 9977TIP3    H251423   0.385   2.928   5.776  1.4388 -0.5100  0.4283
 9978TIP3   OH251424   5.487   4.164   2.245 -0.1550  0.3271  0.4351
 9978TIP3    H151425   5.458   4.078   2.274  1.2559 -0.2780  0.0843
 9978TIP3    H251426   5.556   4.146   2.181 -0.0634  1.7115  0.1271
 9979TIP3   OH251427   3.993   5.450  11.387 -0.4981  0.2494  0.4560
 9979TIP3    H151428   3.921   5.390  11.372 -0.6960  0.1306  1.8367
 9979TIP3    H251429   3.958   5.515  11.448 -0.0185  1.2675 -0.3424
 9980TIP3   OH251430   1.192   1.172  13.842  0.4629 -0.5198  0.5870
 9980TIP3    H151431   1.182   1.109  13.913  0.0733 -0.3972  0.6374
 9980TIP3    H251432   1.263   1.229  13.870  0.4444 -0.5961  0.7866
 9981TIP3   OH251433   0.281   6.677   1.010  0.1836 -0.2145 -0.2268
 9981TIP3    H151434   0.316   6.710   0.927  4.2041 -1.8795  0.6673
 9981TIP3    H251435   0.292   6.750   1.071 -1.1044  0.4016 -0.7131
 9982TIP3   OH251436   5.523   3.262  13.463 -0.4227 -0.0692 -0.0438
 9982TIP3    H151437   5.576   3.232  13.537  0.7915 -0.8307 -1.1980
 9982TIP3    H251438   5.582   3.318  13.413 -0.9927 -0.2236 -0.8872
 9983TIP3   OH251439   0.154   5.039   6.134  0.5742 -0.3981  0.0791
 9983TIP3    H151440   0.108   5.116   6.101  0.1815 -0.4760  0.4387
 9983TIP3    H251441   0.095   4.966   6.113 -0.3236 -0.3084  2.1618
 9984TIP3   OH251442   0.429   0.880   2.385 -0.6965 -0.2452 -0.3806
 9984TIP3    H151443   0.497   0.862   2.450 -0.5745 -0.6181 -0.6143
 9984TIP3    H251444   0.475   0.925   2.314 -0.7523 -0.2211 -0.4015
 9985TIP3   OH251445   4.389   0.623   5.031  0.2515  0.2326 -0.4638
 9985TIP3    H151446   4.389   0.719   5.030 -1.6985  0.2639  0.6150
 9985TIP3    H251447   4.423   0.601   5.118 -0.9045 -0.0137 -0.0646
 9986TIP3   OH251448   5.265   6.258  16.358  0.2176  0.0518 -0.7869
 9986TIP3    H151449   5.244   6.215  16.441  0.9402  2.8063  0.8911
 9986TIP3    H251450   5.357   6.236  16.342  0.3424  0.2597 -0.3702
 9987TIP3   OH251451   3.202   3.252  12.002 -0.1425  0.1752  0.3345
 9987TIP3    H151452   3.286   3.298  11.995  0.8093 -1.7095 -1.2913
 9987TIP3    H251453   3.192   3.233  12.095  1.1352  0.6074  0.5686
 9988TIP3   OH251454   1.039   4.874   5.355 -0.4610 -0.0514  0.2505
 9988TIP3    H151455   1.019   4.808   5.422 -0.5208  0.5035  0.7846
 9988TIP3    H251456   1.002   4.838   5.274  0.5160 -1.2183  0.2950
 9989TIP3   OH251457   5.801   3.166  13.178  0.7484  0.3998 -0.0776
 9989TIP3    H151458   5.854   3.193  13.103  1.4855 -0.0720  0.2672
 9989TIP3    H251459   5.826   3.074  13.193 -0.9474 -0.1588 -0.5780
 9990TIP3   OH251460   2.347   1.817   4.519 -0.3120 -0.1968 -0.1577
 9990TIP3    H151461   2.276   1.826   4.582  1.0253  1.1112  1.2142
 9990TIP3    H251462   2.331   1.733   4.476 -0.5719 -1.6733  2.7489
 9991TIP3   OH251463   4.675   4.408  14.614 -0.5534 -0.1086 -0.5573
 9991TIP3    H151464   4.743   4.342  14.625 -1.5663 -1.2563 -1.0703
 9991TIP3    H251465   4.600   4.373  14.661 -0.9635  0.9097 -0.4302
 9992TIP3   OH251466   5.582   1.445  16.738  0.6589  0.6521 -0.3655
 9992TIP3    H151467   5.490   1.439  16.761  0.7424  2.0506  0.3595
 9992TIP3    H251468   5.620   1.363  16.769 -0.0386  0.7419  0.7424
 9993TIP3   OH251469   1.377   4.854   4.196  0.4029 -0.1018 -0.7212
 9993TIP3    H151470   1.310   4.816   4.253 -0.5928  1.6951 -0.6542
 9993TIP3    H251471   1.335   4.860   4.111  0.3978  1.2599 -0.6255
 9994TIP3   OH251472   6.448   1.201  11.761 -0.4191  0.7583 -0.5682
 9994TIP3    H151473   6.503   1.153  11.698  1.2101  1.9143 -0.0422
 9994TIP3    H251474   6.426   1.283  11.716 -0.9435  0.7072 -0.4075
 9995TIP3   OH251475   4.976   2.015   2.965  0.0434 -0.4758 -0.2215
 9995TIP3    H151476   4.927   2.007   2.883 -0.7714 -0.6846  0.2799
 9995TIP3    H251477   4.948   1.939   3.016 -1.5325  1.1352  1.3463
 9996TIP3   OH251478   4.988   1.638  16.467  0.0388  0.1375 -0.5139
 9996TIP3    H151479   4.907   1.629  16.518 -1.2034 -0.8252 -2.5891
 9996TIP3    H251480   5.057   1.646  16.533 -2.0083  3.7525  1.3122
 9997TIP3   OH251481   5.611   2.415   2.499  0.0359 -1.1630 -0.2771
 9997TIP3    H151482   5.517   2.428   2.513 -0.2368 -1.5957 -1.6566
 9997TIP3    H251483   5.626   2.440   2.408  0.9330 -2.7569 -0.5899
 9998TIP3   OH251484   3.098   1.909  13.783  0.0662  0.0822  0.4168
 9998TIP3    H151485   3.065   1.853  13.854  0.7475  0.2324  0.8601
 9998TIP3    H251486   3.033   1.900  13.713 -0.1041 -0.8441  0.6896
 9999TIP3   OH251487   5.291   5.658   1.963 -0.0241 -0.2658 -0.6812
 9999TIP3    H151488   5.364   5.702   2.008  0.6022 -1.0612 -0.9120
 9999TIP3    H251489   5.235   5.627   2.034  0.9323 -1.4698 -0.4301
10000TIP3   OH251490   4.114   2.087   5.131 -0.4235  0.2537  0.4996
10000TIP3    H151491   4.132   2.052   5.044 -1.1639 -1.8093  1.1380
10000TIP3    H251492   4.176   2.159   5.141 -1.8450  1.9838 -2.5802
10001TIP3   OH251493   1.669   5.135  10.568 -0.7490  0.5701 -0.0845
10001TIP3    H151494   1.581   5.099  10.569 -0.4536 -0.1643 -0.1841
10001TIP3    H251495   1.663   5.214  10.515 -1.1916  0.1235 -0.7009
10002TIP3   OH251496   6.125   0.231   0.815 -0.1359 -0.2580 -0.0486
10002TIP3    H151497   6.117   0.303   0.878 -0.5092  2.5021 -3.1592
10002TIP3    H251498   6.048   0.176   0.832 -1.8072  2.0466 -0.0447
10003TIP3   OH251499   1.113   2.189   5.211  0.0565 -0.2011  0.3024
10003TIP3    H151500   1.045   2.132   5.177  0.2493 -0.1262 -0.2237
10003TIP3    H251501   1.193   2.137   5.206  0.2975  0.2317 -0.5274
10004TIP3   OH251502   3.692   1.787  13.095 -0.6288 -0.5100 -0.2423
10004TIP3    H151503   3.682   1.773  13.001  4.1337 -1.4834 -0.7431
10004TIP3    H251504   3.627   1.730  13.136  1.3676 -4.8601 -2.8734
10005TIP3   OH251505   3.913   5.411   6.067 -0.0442 -0.3468 -0.1870
10005TIP3    H151506   3.831   5.454   6.091  0.1048  0.3668 -0.9190
10005TIP3    H251507   3.924   5.432   5.974  0.4633 -1.2741 -0.3406
10006TIP3   OH251508   3.477   2.885   3.128 -0.0953 -0.2106 -0.7038
10006TIP3    H151509   3.395   2.933   3.116  0.5132  0.5474 -1.8974
10006TIP3    H251510   3.543   2.953   3.142  0.4770 -0.7853 -0.5468
10007TIP3   OH251511   5.943   5.236  13.929  0.5410  0.3440 -0.3648
10007TIP3    H151512   5.955   5.328  13.950 -1.6451  0.4483  0.5601
10007TIP3    H251513   5.848   5.224  13.925  0.6512 -2.5052  2.6643
10008TIP3   OH251514   6.527   5.789   4.734 -0.1090 -0.3885  0.0748
10008TIP3    H151515   6.468   5.747   4.797  0.4423 -1.9231 -0.4300
10008TIP3    H251516   6.603   5.815   4.786 -0.4472  0.0055  0.3827
10009TIP3   OH251517   5.168   1.851   4.706  0.5748  0.2035 -0.7758
10009TIP3    H151518   5.108   1.897   4.647  1.6110  1.5319 -0.8154
10009TIP3    H251519   5.215   1.921   4.751  1.9007 -0.8177 -0.5495
10010TIP3   OH251520   1.217   4.912  15.069 -0.3559  0.0309  0.0502
10010TIP3    H151521   1.211   4.822  15.102 -1.1262  0.3297  0.7335
10010TIP3    H251522   1.127   4.942  15.064 -0.0162  1.3114  1.3118
10011TIP3   OH251523   5.081   1.435  13.571  0.1106  0.2973 -0.5769
10011TIP3    H151524   4.997   1.399  13.602 -0.6459  2.6230  0.1502
10011TIP3    H251525   5.147   1.376  13.608 -1.1326 -0.7337  0.0428
10012TIP3   OH251526   3.465   4.890  16.701  0.1127  0.0412 -0.5368
10012TIP3    H151527   3.414   4.960  16.661  1.7499  0.9094 -1.1443
10012TIP3    H251528   3.526   4.862  16.632 -0.3120 -1.7799 -0.2092
10013TIP3   OH251529   2.903   1.810   2.167 -0.2285  0.2057 -0.4083
10013TIP3    H151530   2.970   1.809   2.099 -0.7389  3.0892 -1.0249
10013TIP3    H251531   2.934   1.875   2.230 -1.0767 -0.4775  0.7374
10014TIP3   OH251532   0.944   2.841  10.895  0.3916 -0.5405  0.2654
10014TIP3    H151533   1.004   2.775  10.929 -0.8524 -1.9887 -0.3304
10014TIP3    H251534   0.955   2.838  10.800 -0.0862 -0.2935  0.1979
10015TIP3   OH251535   2.412   2.548   1.421  0.2719  0.1381 -0.0362
10015TIP3    H151536   2.365   2.622   1.380 -1.2201 -0.2309  0.9640
10015TIP3    H251537   2.470   2.516   1.352 -0.7440  0.7990 -1.2346
10016TIP3   OH251538   2.289   6.038  12.988 -0.5730 -0.1040  0.1704
10016TIP3    H151539   2.245   6.057  13.071 -1.6281 -1.4234 -0.0561
10016TIP3    H251540   2.317   5.947  12.996  0.6436  0.2197 -0.3475
10017TIP3   OH251541   5.565   4.818  14.604  0.7388 -0.3236 -0.3646
10017TIP3    H151542   5.630   4.836  14.672  0.7268  0.6622 -0.6039
10017TIP3    H251543   5.505   4.893  14.607 -0.3759 -1.2182 -0.1595
10018TIP3   OH251544   1.238   4.050   4.242 -0.0461  0.4502  0.3580
10018TIP3    H151545   1.299   4.106   4.291 -0.1983 -0.9853  2.2242
10018TIP3    H251546   1.258   3.962   4.271 -0.8839 -0.3370 -1.4014
10019TIP3   OH251547   4.277   6.345  12.953  0.1339  0.4150  0.2858
10019TIP3    H151548   4.227   6.345  12.871  0.1334  1.3227  0.2795
10019TIP3    H251549   4.236   6.276  13.006  0.8912 -0.9864 -0.9245
10020TIP3   OH251550   0.459   3.560  12.907  0.2620 -0.3236 -0.5588
10020TIP3    H151551   0.505   3.501  12.848  0.1340  0.0992 -1.0824
10020TIP3    H251552   0.518   3.635  12.919 -0.1083  0.0296 -0.9096
10021TIP3   OH251553   5.453   4.708   3.332 -0.5026 -0.2656  0.4638
10021TIP3    H151554   5.447   4.624   3.286 -0.2623 -0.1370  0.1975
10021TIP3    H251555   5.436   4.774   3.265 -1.1453 -0.1201  0.7686
10022TIP3   OH251556   0.633   0.460  14.911  0.3505 -0.3132 -0.3027
10022TIP3    H151557   0.635   0.467  15.006 -0.8300 -1.1850 -0.2062
10022TIP3    H251558   0.578   0.533  14.882 -0.7508 -1.1014 -0.1983
10023TIP3   OH251559   4.101   1.976   2.458  0.5503  1.0404 -0.2842
10023TIP3    H151560   4.196   1.971   2.469  0.6770  1.9931 -0.9357
10023TIP3    H251561   4.079   2.066   2.480 -0.3752  0.4968  1.0865
10024TIP3   OH251562   0.996   2.154   0.856  0.0411  0.1922  0.5596
10024TIP3    H151563   0.984   2.090   0.926  2.4329 -0.8313  0.0774
10024TIP3    H251564   0.958   2.114   0.778 -1.1986  0.6679  0.9062
10025TIP3   OH251565   5.719   6.584   3.638  0.5642 -0.3866  0.4253
10025TIP3    H151566   5.682   6.586   3.727  2.4861 -1.9843  1.2942
10025TIP3    H251567   5.790   6.649   3.640 -0.1187  0.3992 -0.3064
10026TIP3   OH251568   0.106   1.926  17.216  0.1842 -0.5250  0.1318
10026TIP3    H151569   0.104   2.004  17.272  0.7225 -1.2097  1.1237
10026TIP3    H251570   0.048   1.864  17.259 -1.5378 -0.1088 -1.5346
10027TIP3   OH251571   2.198   5.278  16.090  0.5821 -0.0067  0.2249
10027TIP3    H151572   2.270   5.224  16.123  0.5306  0.0639  0.4524
10027TIP3    H251573   2.241   5.351  16.045  0.6548  1.0683  2.0074
10028TIP3   OH251574   4.580   2.967  12.013  0.4898  0.1603 -0.6154
10028TIP3    H151575   4.537   3.048  12.041 -0.9164 -0.6630 -0.3619
10028TIP3    H251576   4.617   2.930  12.093  0.2707  0.0444 -0.5675
10029TIP3   OH251577   4.495   6.234  11.821  0.5929 -0.5308  0.7202
10029TIP3    H151578   4.551   6.164  11.852 -0.5343 -1.7555  0.0400
10029TIP3    H251579   4.551   6.286  11.763  1.3038 -1.1163  0.8768
10030TIP3   OH251580   2.718   2.956  16.339 -0.4910 -0.7176  0.3857
10030TIP3    H151581   2.769   2.888  16.384 -0.8094 -2.3081 -1.6297
10030TIP3    H251582   2.741   2.947  16.247  0.7790  3.0574  0.2193
10031TIP3   OH251583   3.600   2.402   0.412 -0.1904 -0.8940 -0.1934
10031TIP3    H151584   3.581   2.383   0.504  0.4421  0.3322  0.1989
10031TIP3    H251585   3.520   2.377   0.366 -1.3406  0.5569  0.9689
10032TIP3   OH251586   4.854   5.334   3.202 -0.2876 -0.1533 -0.5800
10032TIP3    H151587   4.907   5.288   3.138  0.0768  0.5428 -0.7887
10032TIP3    H251588   4.866   5.286   3.284  2.0073  0.9527 -0.2238
10033TIP3   OH251589   3.264   5.802   2.132 -0.0906  0.5196 -0.0384
10033TIP3    H151590   3.349   5.790   2.088 -1.0297  1.0803 -2.0710
10033TIP3    H251591   3.255   5.725   2.188  1.2183 -0.1561 -0.7218
10034TIP3   OH251592   0.518   5.878   1.446 -0.2189  0.9426 -0.5964
10034TIP3    H151593   0.428   5.896   1.472 -0.1470  0.3580  0.0880
10034TIP3    H251594   0.570   5.944   1.493 -0.1919  0.5890 -0.1261
10035TIP3   OH251595   1.078   4.271   1.246 -0.2477  0.6201 -0.1803
10035TIP3    H151596   1.135   4.264   1.323  0.2977  1.9745 -0.4415
10035TIP3    H251597   1.017   4.341   1.268 -0.2744  0.8148 -0.8540
10036TIP3   OH251598   4.175   1.660  14.133  0.0713 -0.5553  0.2181
10036TIP3    H151599   4.225   1.680  14.054  0.6852  0.6499  0.9083
10036TIP3    H251600   4.138   1.744  14.160 -1.0640 -1.1612  0.5814
10037TIP3   OH251601   4.900   6.573   3.891 -0.1298  0.2736 -0.0633
10037TIP3    H151602   4.845   6.585   3.813 -0.5104  0.0505  0.1705
10037TIP3    H251603   4.859   6.502   3.939 -0.1199  0.6749  0.5422
10038TIP3   OH251604   2.844   6.728   5.175  0.2060  0.2446 -0.6351
10038TIP3    H151605   2.801   6.809   5.148  1.7675  0.6128 -2.1657
10038TIP3    H251606   2.833   6.725   5.270 -0.6809  1.7708 -0.6672
10039TIP3   OH251607   3.680   0.980   3.829  0.9058  0.4956 -0.3680
10039TIP3    H151608   3.626   1.009   3.756 -0.9009 -1.0229  0.3376
10039TIP3    H251609   3.641   1.023   3.906  0.5062 -0.8243  0.1812
10040TIP3   OH251610   4.499   3.030   2.510 -0.0198 -0.2277 -0.4715
10040TIP3    H151611   4.517   3.098   2.445  0.1141 -0.4238 -0.6406
10040TIP3    H251612   4.522   3.071   2.594 -0.3839  0.0944 -0.5252
10041TIP3   OH251613   1.863   1.045   2.288  0.2616 -0.0618  0.2956
10041TIP3    H151614   1.790   0.989   2.314  0.9537 -0.2613  1.8562
10041TIP3    H251615   1.821   1.127   2.260 -0.9353 -2.1298 -4.4487
10042TIP3   OH251616   2.987   4.845   0.936  0.4626 -0.3031 -0.7736
10042TIP3    H151617   2.942   4.871   1.016  1.4610 -0.7483 -0.0587
10042TIP3    H251618   3.041   4.770   0.962  2.0050  0.5475 -1.5022
10043TIP3   OH251619   4.837   4.372  10.559 -0.1477 -0.1844  0.2475
10043TIP3    H151620   4.762   4.425  10.584  1.1387  1.5854  0.4849
10043TIP3    H251621   4.909   4.434  10.552  0.6116 -1.3071 -3.2187
10044TIP3   OH251622   4.509   0.094  16.923  0.0887  0.2432  0.6258
10044TIP3    H151623   4.504   0.168  16.862  0.6066 -0.2411 -0.0076
10044TIP3    H251624   4.524   0.018  16.867  0.0990 -0.2727  1.3238
10045TIP3   OH251625   4.045   0.562   0.882 -0.0732  0.4861  0.1588
10045TIP3    H151626   4.022   0.516   0.801  0.6038  1.3197 -0.5035
10045TIP3    H251627   3.964   0.560   0.933 -0.5486  0.0803 -0.5910
10046TIP3   OH251628   2.487   4.382   0.583 -0.7425  0.0614  0.0402
10046TIP3    H151629   2.569   4.429   0.591 -0.2445 -0.7193 -0.4411
10046TIP3    H251630   2.449   4.413   0.500 -0.3716 -0.4475 -0.3216
10047TIP3   OH251631   5.075   5.484   3.067  0.2158  0.2075  0.1936
10047TIP3    H151632   5.129   5.557   3.095  0.8668 -0.3546  0.4094
10047TIP3    H251633   5.086   5.418   3.135  0.4981 -0.5160 -0.5435
10048TIP3   OH251634   1.948   3.356   1.758 -0.3362  0.4706 -0.6114
10048TIP3    H151635   1.957   3.411   1.680  0.0684  1.0241 -0.1709
10048TIP3    H251636   1.859   3.372   1.789 -0.6308 -0.0382 -1.1720
10049TIP3   OH251637   6.165   3.103  11.652 -0.8751  0.3833 -0.0610
10049TIP3    H151638   6.107   3.106  11.575 -0.1155  3.2248 -0.5636
10049TIP3    H251639   6.107   3.121  11.726 -1.4316 -1.4134 -0.0177
10050TIP3   OH251640   3.940   1.463   0.986  0.4642 -0.1591  0.1851
10050TIP3    H151641   3.987   1.429   0.910  0.2416  0.4837 -0.2405
10050TIP3    H251642   3.966   1.555   0.991  1.0284 -0.3664  1.3009
10051TIP3   OH251643   1.351   6.261   4.103 -0.1641 -0.3100 -0.0371
10051TIP3    H151644   1.378   6.175   4.133  2.5443 -0.2092 -1.9013
10051TIP3    H251645   1.385   6.266   4.013 -0.6605  2.4945 -0.1182
10052TIP3   OH251646   5.285   6.093   2.101  0.4911 -0.0213  0.3329
10052TIP3    H151647   5.266   6.183   2.077 -0.5263 -0.8312 -2.1437
10052TIP3    H251648   5.202   6.059   2.137  0.1709 -0.5988 -0.9031
10053TIP3   OH251649   6.377   0.635   2.247  0.0480 -0.5135  0.1222
10053TIP3    H151650   6.363   0.611   2.155 -0.7512 -1.7335  0.5486
10053TIP3    H251651   6.472   0.639   2.257  0.1382  0.0291 -0.8529
10054TIP3   OH251652   5.740   5.896   2.255 -0.3722 -0.1738  0.1304
10054TIP3    H151653   5.734   5.965   2.321 -0.0113  0.1696 -0.1896
10054TIP3    H251654   5.670   5.915   2.193 -0.5480 -0.3474  0.2748
10055TIP3   OH251655   4.138   0.361   2.838 -0.1597 -0.0997  0.0375
10055TIP3    H151656   4.108   0.435   2.890 -1.9317  0.3200 -1.4925
10055TIP3    H251657   4.176   0.300   2.902 -0.1025  1.4277  1.4916
10056TIP3   OH251658   0.077   2.496  11.266 -0.3196  0.6221  0.1840
10056TIP3    H151659   0.052   2.572  11.213  0.2196 -0.6498 -1.9451
10056TIP3    H251660   0.005   2.434  11.253  1.3225 -0.9522 -1.6694
10057TIP3   OH251661   6.644   6.494   4.022  0.0893  0.4140 -0.0084
10057TIP3    H151662   6.619   6.493   4.115  2.1133  1.3427  0.5932
10057TIP3    H251663   6.591   6.564   3.984 -1.6916 -0.8205  0.1399
10058TIP3   OH251664   4.710   4.123  12.355  0.0087 -0.0050 -0.0944
10058TIP3    H151665   4.747   4.114  12.442 -0.3114 -1.2294 -0.0714
10058TIP3    H251666   4.615   4.124  12.368 -0.0716 -1.3439 -0.5140
10059TIP3   OH251667   2.560   0.049   2.918 -0.3223 -0.1464  0.2189
10059TIP3    H151668   2.528  -0.027   2.967  3.1819 -2.5585 -1.0394
10059TIP3    H251669   2.569   0.018   2.828  1.1152  1.7592 -0.3341
10060TIP3   OH251670   1.420   1.113   6.109  0.1341 -0.1564 -0.4497
10060TIP3    H151671   1.327   1.134   6.113  0.0728 -0.7517  2.8596
10060TIP3    H251672   1.425   1.039   6.048 -1.5726 -0.1738 -0.6026
10061TIP3   OH251673   0.030   3.162   6.644  0.0278  0.1309  0.2028
10061TIP3    H151674   0.056   3.078   6.681 -0.2186  0.4430  1.0982
10061TIP3    H251675  -0.030   3.139   6.572  1.3977 -0.5206 -0.7428
10062TIP3   OH251676   3.710   2.478  11.905  0.4186  0.0927 -0.0415
10062TIP3    H151677   3.640   2.414  11.888 -2.6668  2.9756  1.1352
10062TIP3    H251678   3.704   2.494  11.999  1.1336  2.1244 -0.3361
10063TIP3   OH251679   3.263   0.063  17.019 -0.0190  0.2981  0.3006
10063TIP3    H151680   3.276   0.096  16.930 -1.2976  0.4763  0.1753
10063TIP3    H251681   3.186   0.006  17.012  0.1828 -0.0898  1.1917
10064TIP3   OH251682   3.598   3.991  10.688 -0.4075 -0.3455  0.2088
10064TIP3    H151683   3.517   4.010  10.735 -0.4535 -1.4352  0.5917
10064TIP3    H251684   3.650   3.940  10.750 -0.3898 -1.6388 -0.8429
10065TIP3   OH251685   4.712   1.337   6.078 -0.0186  0.4284 -0.0471
10065TIP3    H151686   4.750   1.425   6.076 -0.7745  0.7547 -0.5188
10065TIP3    H251687   4.621   1.350   6.050 -0.0399 -0.5484 -0.4571
10066TIP3   OH251688   1.002   1.706  12.721 -0.0514 -0.1375  0.0476
10066TIP3    H151689   0.978   1.798  12.708 -2.0225 -0.7853 -1.1375
10066TIP3    H251690   1.044   1.680  12.639 -2.2335 -1.1111 -0.7858
10067TIP3   OH251691   0.983   3.364   3.484  0.6124 -0.8712  0.4995
10067TIP3    H151692   1.044   3.390   3.553  1.1271  1.0115 -0.6310
10067TIP3    H251693   0.930   3.442   3.467 -0.7292 -1.8621  0.0231
10068TIP3   OH251694   4.663   0.582   2.335  0.3003 -0.0562 -0.4359
10068TIP3    H151695   4.634   0.505   2.384 -0.5968  0.0812 -0.7448
10068TIP3    H251696   4.714   0.633   2.399  2.1506 -1.5962 -0.6233
10069TIP3   OH251697   4.228   0.008   5.100  0.0586  0.2542  0.5852
10069TIP3    H151698   4.283   0.021   5.024 -0.4442  0.1360  0.1958
10069TIP3    H251699   4.289  -0.004   5.173  0.5421 -0.3167  0.0870
10070TIP3   OH251700   1.264   6.165  12.264 -0.1144 -0.0936 -0.0175
10070TIP3    H151701   1.337   6.213  12.305 -0.0173 -0.7291  0.5641
10070TIP3    H251702   1.229   6.111  12.335 -1.3869  0.4678 -0.1972
10071TIP3   OH251703   1.806   0.642  11.268 -0.2795 -0.1704 -1.0216
10071TIP3    H151704   1.835   0.562  11.225  0.8080 -0.2169 -0.2360
10071TIP3    H251705   1.720   0.620  11.304 -0.8215 -0.3872 -2.4102
10072TIP3   OH251706   2.678   3.713  11.351 -0.5968 -0.5556  0.1580
10072TIP3    H151707   2.674   3.763  11.433 -1.6031 -0.1094 -0.1601
10072TIP3    H251708   2.772   3.709  11.331 -0.5569  2.6092 -0.6494
10073TIP3   OH251709   2.778   0.791   2.873 -0.3421 -0.0350 -0.6359
10073TIP3    H151710   2.791   0.762   2.783 -2.0470  0.6316 -1.1020
10073TIP3    H251711   2.789   0.886   2.869 -0.3276 -0.0143 -0.1107
10074TIP3   OH251712   0.064   3.154  16.084  0.0899 -0.8480  0.9225
10074TIP3    H151713   0.013   3.149  16.165 -1.2767 -0.8895  0.0761
10074TIP3    H251714   0.029   3.082  16.030  1.1739 -0.9902  0.4073
10075TIP3   OH251715   1.547   1.773   3.496 -0.1548 -0.1590 -0.3483
10075TIP3    H151716   1.555   1.784   3.402 -0.3298  0.7376 -0.2556
10075TIP3    H251717   1.504   1.688   3.506 -0.6848  0.0150 -1.0880
10076TIP3   OH251718   6.670   0.686   4.468  0.2115  0.3959  0.2688
10076TIP3    H151719   6.735   0.705   4.536  0.5623 -0.7092  0.2583
10076TIP3    H251720   6.716   0.704   4.386  0.4533 -0.1861  0.2692
10077TIP3   OH251721   1.877   2.162  12.883  0.7587 -0.2266 -0.2437
10077TIP3    H151722   1.790   2.142  12.850  1.2437  0.0397 -1.6892
10077TIP3    H251723   1.936   2.108  12.830  1.5926  0.7135 -0.2860
10078TIP3   OH251724   2.466   4.012  13.025  0.5759 -0.4987  0.1923
10078TIP3    H151725   2.531   4.030  12.957 -1.3932 -0.5123 -1.7390
10078TIP3    H251726   2.424   4.096  13.041  0.1049 -0.7718  0.4005
10079TIP3   OH251727   5.801   0.105  14.876 -0.1231 -0.5577  0.1112
10079TIP3    H151728   5.750   0.067  14.805 -1.2433  2.1724 -0.6362
10079TIP3    H251729   5.884   0.059  14.874 -1.7534 -3.6474 -0.0066
10080TIP3   OH251730   2.755   0.835   0.584  0.2667  0.1055  0.3639
10080TIP3    H151731   2.752   0.742   0.609 -1.8380 -0.4133 -1.5593
10080TIP3    H251732   2.818   0.874   0.644 -0.3613 -2.1471  2.5967
10081TIP3   OH251733   1.320   5.438   0.007  0.5503 -0.2616 -0.2713
10081TIP3    H151734   1.334   5.450   0.101  0.0422  1.5944 -0.4100
10081TIP3    H251735   1.314   5.527  -0.028  0.3488 -0.9367 -2.0049
10082TIP3   OH251736   5.716   1.139   4.506  0.8503  0.5466  0.0205
10082TIP3    H151737   5.735   1.180   4.422  0.1513  1.4728  0.2978
10082TIP3    H251738   5.770   1.060   4.508  1.0886  0.6774 -1.1646
10083TIP3   OH251739   3.878   1.922   0.087  0.3117  0.3896  0.0757
10083TIP3    H151740   3.943   1.960   0.146 -0.4987  1.5258  0.2585
10083TIP3    H251741   3.901   1.954   0.001 -0.3076  1.2273  0.2148
10084TIP3   OH251742   6.026   6.666   5.676  0.2564 -0.2263 -0.5300
10084TIP3    H151743   6.023   6.749   5.723  0.7609  0.4776 -1.6960
10084TIP3    H251744   6.024   6.599   5.744  1.2024  0.7676  0.5020
10085TIP3   OH251745   2.887   5.487  10.566 -0.6304  0.2959 -0.1032
10085TIP3    H151746   2.937   5.440  10.500 -1.9071  0.1465 -0.9687
10085TIP3    H251747   2.928   5.573  10.571  0.9500 -0.4816  0.6201
10086TIP3   OH251748   2.882   3.140   0.456 -0.3887 -0.0761  0.2143
10086TIP3    H151749   2.821   3.086   0.407  0.4868 -1.4932  0.6411
10086TIP3    H251750   2.832   3.171   0.532 -0.1645 -2.4976  1.3856
10087TIP3   OH251751   0.112   0.616   6.013  0.5206  0.1571 -0.4980
10087TIP3    H151752   0.090   0.706   6.037 -0.0236  0.2137 -1.1901
10087TIP3    H251753   0.028   0.569   6.016  1.0700 -0.7640  1.6724
10088TIP3   OH251754   2.337   5.317  11.276 -0.5232  0.2778 -0.0564
10088TIP3    H151755   2.334   5.236  11.327  1.8284  0.5083  0.5142
10088TIP3    H251756   2.360   5.289  11.187  0.7948  0.3415  0.2534
10089TIP3   OH251757   3.625   5.030   4.820  0.5623 -0.2597 -0.2451
10089TIP3    H151758   3.567   5.039   4.744  1.0959  0.1359 -0.6053
10089TIP3    H251759   3.703   4.986   4.786  0.8374 -0.0067  0.0635
10090TIP3   OH251760   4.090   5.024  14.192 -0.1757  0.0536  0.1061
10090TIP3    H151761   4.072   4.957  14.258  0.1903 -0.3370 -0.1757
10090TIP3    H251762   4.036   4.998  14.117 -0.7099  0.5833  0.3098
10091TIP3   OH251763   1.210   1.107   0.603 -0.4989 -0.3578 -0.2755
10091TIP3    H151764   1.197   1.200   0.619 -0.5397 -0.4758  0.3632
10091TIP3    H251765   1.137   1.064   0.648  1.4579 -0.9466  2.4282
10092TIP3   OH251766   5.025   1.202  15.517 -0.0190 -1.1716  0.0541
10092TIP3    H151767   5.047   1.226  15.427  0.9428  1.3788  0.9156
10092TIP3    H251768   4.967   1.272  15.547  0.0747 -1.7390  1.5714
10093TIP3   OH251769   6.188   6.301  11.460 -0.1098 -0.2335 -0.6158
10093TIP3    H151770   6.269   6.264  11.426  1.6886  2.8365  0.1927
10093TIP3    H251771   6.146   6.341  11.383  0.1366 -0.0075 -0.6303
10094TIP3   OH251772   0.747   6.067  15.133  0.6610  0.3939  0.2374
10094TIP3    H151773   0.720   6.007  15.063 -0.2991  1.5934 -0.4504
10094TIP3    H251774   0.840   6.084  15.115  0.0156  2.0220 -1.8041
10095TIP3   OH251775   1.932   4.995  13.997  0.1152  0.3422  0.1497
10095TIP3    H151776   1.900   5.015  14.085 -0.8500 -2.5008  0.5023
10095TIP3    H251777   1.852   4.986  13.944  0.5496 -1.0110 -0.3004
10096TIP3   OH251778   1.097   3.510  16.626 -0.5855 -0.2914  0.4145
10096TIP3    H151779   1.068   3.484  16.538 -0.9096  1.6973 -0.0954
10096TIP3    H251780   1.190   3.529  16.615 -0.0231 -2.5424  1.1019
10097TIP3   OH251781   5.382   2.012  13.560 -0.4535  0.3932  0.7665
10097TIP3    H151782   5.364   1.974  13.474  0.6451  0.7382  0.3736
10097TIP3    H251783   5.475   2.034  13.558 -0.5691  1.0396  1.7975
10098TIP3   OH251784   3.909   1.726   3.107 -0.2901  0.3987  0.1087
10098TIP3    H151785   3.933   1.807   3.061  1.2035 -0.0182  0.1177
10098TIP3    H251786   3.872   1.757   3.190  0.6908  1.0710  0.3045
10099TIP3   OH251787   3.443   3.155  14.859 -0.1024  0.6483  0.0436
10099TIP3    H151788   3.354   3.177  14.831 -0.4233 -1.8401 -1.0884
10099TIP3    H251789   3.499   3.192  14.790 -0.5717 -1.3696 -1.4498
10100TIP3   OH251790   2.187   5.611  15.496 -0.0890  0.4974 -0.1510
10100TIP3    H151791   2.281   5.629  15.503  0.1714 -0.2111 -1.6549
10100TIP3    H251792   2.162   5.579  15.583  1.1499  0.2815  0.1321
10101TIP3   OH251793   4.019   3.431   6.269 -0.1821 -0.3208  0.1004
10101TIP3    H151794   3.945   3.373   6.250 -0.8380  1.3462 -2.7778
10101TIP3    H251795   4.090   3.372   6.291 -1.8222 -2.0512  0.9001
10102TIP3   OH251796   6.627   4.205   2.173 -0.1102  0.6611  0.1769
10102TIP3    H151797   6.582   4.126   2.143 -0.1594  0.8306 -0.2068
10102TIP3    H251798   6.595   4.219   2.262 -1.4409  1.2318 -0.3703
10103TIP3   OH251799   1.015   4.782   1.763  0.3525 -0.1043  0.2603
10103TIP3    H151800   1.109   4.781   1.749  0.6216  0.9442  1.9297
10103TIP3    H251801   0.993   4.875   1.771 -0.8056 -0.3523  0.0487
10104TIP3   OH251802   2.329   5.747   6.398 -0.7241 -0.1414  0.1109
10104TIP3    H151803   2.417   5.786   6.396 -1.0279  0.5831  0.7329
10104TIP3    H251804   2.281   5.793   6.329 -0.4826 -0.8592 -0.5384
10105TIP3   OH251805   3.987   1.396  12.915  0.1904  0.4421  0.3439
10105TIP3    H151806   3.963   1.411  12.824  0.5944  0.0627  0.1694
10105TIP3    H251807   4.062   1.454  12.930 -0.1312  0.8060  0.5568
10106TIP3   OH251808   6.075   2.006  13.340 -0.4539 -0.0212  0.5618
10106TIP3    H151809   6.044   2.085  13.384  2.9825  1.3235  0.7409
10106TIP3    H251810   6.118   1.955  13.409  0.6432 -0.2455 -0.2666
10107TIP3   OH251811   6.289   5.012  12.462  0.2947  0.1101 -0.5081
10107TIP3    H151812   6.309   5.005  12.556 -0.0474 -0.3079 -0.4651
10107TIP3    H251813   6.375   5.016  12.420  0.4599 -0.6305 -0.2478
10108TIP3   OH251814   2.778   1.132   3.536 -0.3513 -0.0378 -0.1511
10108TIP3    H151815   2.687   1.117   3.562 -0.2228 -1.4863 -0.4928
10108TIP3    H251816   2.813   1.189   3.604 -1.7908  1.3388 -0.5364
10109TIP3   OH251817   2.207   3.123   0.952  0.5061 -0.1482  0.3189
10109TIP3    H151818   2.171   3.117   0.863  0.6540  1.4371  0.1242
10109TIP3    H251819   2.288   3.174   0.941  0.6629 -0.1707  1.3209
10110TIP3   OH251820   2.298   2.496  12.335  0.0232  0.2637  0.3189
10110TIP3    H151821   2.312   2.528  12.246 -1.6554 -0.7540 -0.3271
10110TIP3    H251822   2.314   2.572  12.390  1.2309  0.8667 -0.8290
10111TIP3   OH251823   6.651   6.207  16.771 -1.0648  0.6825 -0.6323
10111TIP3    H151824   6.571   6.238  16.728 -0.7977 -0.6363 -2.1176
10111TIP3    H251825   6.718   6.211  16.703  0.1617  1.8059  0.6116
10112TIP3   OH251826   4.734   4.965  15.551  0.5447  0.4739  0.2820
10112TIP3    H151827   4.719   4.911  15.475 -0.0312  0.6439  0.2772
10112TIP3    H251828   4.662   4.944  15.611  0.9392  0.4091  0.7378
10113TIP3   OH251829   3.614   3.836   0.126  0.3546  0.2061 -0.4372
10113TIP3    H151830   3.668   3.914   0.141  0.4708  0.0318  0.0845
10113TIP3    H251831   3.669   3.763   0.156  1.1780 -0.3247 -3.1009
10114TIP3   OH251832   4.320   2.623  13.391  0.1686  0.3245  0.3165
10114TIP3    H151833   4.369   2.672  13.325  0.1247 -0.7385 -0.5230
10114TIP3    H251834   4.345   2.663  13.474  0.1085  1.7852 -0.3498
10115TIP3   OH251835   1.699   2.083   3.609  0.3369 -0.0419  0.2572
10115TIP3    H151836   1.746   2.006   3.577 -1.3672 -0.1040 -2.2029
10115TIP3    H251837   1.766   2.134   3.656  2.6397 -0.6301 -2.2638
10116TIP3   OH251838   2.799   1.028   4.784  0.4520 -0.1161 -0.6913
10116TIP3    H151839   2.743   0.988   4.718  2.7426  0.3146 -3.0007
10116TIP3    H251840   2.780   1.122   4.778  0.0572 -0.1634 -0.1567
10117TIP3   OH251841   4.473   4.931  13.726 -0.0624 -0.3453  0.2668
10117TIP3    H151842   4.527   4.874  13.780  0.2544  0.1973  0.5295
10117TIP3    H251843   4.394   4.880  13.708  0.9312 -1.5062 -0.9133
10118TIP3   OH251844   3.161   6.307   2.274  0.5665 -0.0234 -0.5367
10118TIP3    H151845   3.197   6.320   2.362  3.0783 -1.5029 -1.2768
10118TIP3    H251846   3.112   6.225   2.281 -1.2634  1.0863  0.0349
10119TIP3   OH251847   0.492   4.698   2.135  0.6077  0.3315 -0.3265
10119TIP3    H151848   0.503   4.776   2.191 -0.0788 -0.4637  0.9486
10119TIP3    H251849   0.484   4.626   2.197  2.0603 -0.8874 -1.5212
10120TIP3   OH251850   6.245   2.359   0.613 -0.0539 -0.3265 -0.0499
10120TIP3    H151851   6.293   2.389   0.690  1.5392 -0.5005 -0.9591
10120TIP3    H251852   6.255   2.264   0.614  0.5118 -0.2848 -0.8011
10121TIP3   OH251853   0.387   0.444   4.645  0.1564  0.0459  0.5315
10121TIP3    H151854   0.391   0.366   4.590 -1.8594  0.3406 -0.0743
10121TIP3    H251855   0.445   0.425   4.719  0.4473 -1.6104 -0.1123
10122TIP3   OH251856   6.073   0.195  12.106  0.2807 -0.1223 -0.2049
10122TIP3    H151857   6.092   0.103  12.093 -0.3976 -0.2194 -0.4981
10122TIP3    H251858   6.151   0.241  12.073 -0.0685 -0.5103 -1.6067
10123TIP3   OH251859   0.998   5.141   0.543  0.0589 -0.3301  0.1080
10123TIP3    H151860   1.083   5.125   0.583  0.1949 -0.9675 -0.4467
10123TIP3    H251861   0.936   5.138   0.617  0.6048  0.9985  0.6419
10124TIP3   OH251862   5.875   2.530  14.523 -0.4970 -0.2566  0.6562
10124TIP3    H151863   5.891   2.618  14.558 -0.9475  0.7933 -1.6952
10124TIP3    H251864   5.786   2.508  14.553 -0.5245  0.2371  0.9455
10125TIP3   OH251865   1.480   6.144  15.388  0.4836 -0.1964  0.4014
10125TIP3    H151866   1.450   6.153  15.478  0.7683 -1.0847  0.5972
10125TIP3    H251867   1.554   6.084  15.394  0.5837 -0.1545 -0.4076
10126TIP3   OH251868   1.099   3.630  14.794  0.0389 -0.3120  0.2494
10126TIP3    H151869   1.064   3.718  14.778  1.8922  0.7499  1.8023
10126TIP3    H251870   1.040   3.591  14.858 -1.3857 -0.6279 -1.2088
10127TIP3   OH251871   2.614   2.012  12.276  1.0388 -0.1309 -0.3991
10127TIP3    H151872   2.635   2.004  12.183  0.2203 -0.6497 -0.5528
10127TIP3    H251873   2.666   2.087  12.306  0.3778  0.8345 -1.5664
10128TIP3   OH251874   4.665   2.339   4.045  0.1172  0.7586 -0.3995
10128TIP3    H151875   4.746   2.302   4.010 -0.4794  0.8464 -1.9137
10128TIP3    H251876   4.660   2.305   4.135  1.0744 -0.4350 -0.7841
10129TIP3   OH251877   4.215   2.269  16.346  0.2310  0.0969  0.1310
10129TIP3    H151878   4.223   2.274  16.251 -0.6517 -1.1915 -0.0233
10129TIP3    H251879   4.297   2.229  16.375 -0.1643 -0.9971 -0.2417
10130TIP3   OH251880   3.977   0.260  16.106 -0.1665 -0.1571  0.3062
10130TIP3    H151881   3.956   0.343  16.063  0.4075  0.2389  0.7758
10130TIP3    H251882   3.897   0.208  16.099 -0.9731  0.9334  1.1645
10131TIP3   OH251883   2.573   1.149  16.519  0.0932  0.9113  0.4287
10131TIP3    H151884   2.494   1.095  16.529  0.1725  0.8424  0.7071
10131TIP3    H251885   2.572   1.207  16.595 -0.3347  1.7528 -0.2108
10132TIP3   OH251886   0.973   4.282  14.707  0.4105 -0.2211  0.3645
10132TIP3    H151887   0.952   4.351  14.770 -0.8316 -1.1823  1.0214
10132TIP3    H251888   0.915   4.297  14.633 -1.2932 -1.7247  1.3564
10133TIP3   OH251889   6.116   3.955  13.104  1.0377 -0.3275  0.0869
10133TIP3    H151890   6.037   3.920  13.144  0.8010 -0.9518 -0.9061
10133TIP3    H251891   6.183   3.948  13.172  1.0289 -2.8516 -0.1294
10134TIP3   OH251892   6.759   3.240   5.148 -0.1198  0.6263 -0.5074
10134TIP3    H151893   6.751   3.320   5.199 -2.0996  1.2225 -1.7295
10134TIP3    H251894   6.725   3.262   5.062 -3.2527 -2.2368 -0.0841
10135TIP3   OH251895   0.038   1.451   0.077  0.0796 -0.0644 -0.0737
10135TIP3    H151896   0.000   1.367   0.053  2.0101 -0.4722 -1.8253
10135TIP3    H251897   0.120   1.429   0.122  0.2954  0.8553 -0.0028
10136TIP3   OH251898   2.794   6.615  16.191  0.1849 -0.0164 -0.3756
10136TIP3    H151899   2.868   6.612  16.252  0.7698  1.3236 -1.0212
10136TIP3    H251900   2.792   6.527  16.152 -0.8847 -1.2861  2.3529
10137TIP3   OH251901   3.908   1.944  10.599  0.7685  0.1778  0.3186
10137TIP3    H151902   3.997   1.947  10.635  1.4796 -2.0392 -1.1749
10137TIP3    H251903   3.918   1.974  10.508  0.1023 -0.6192 -0.0266
10138TIP3   OH251904   5.270   0.282  15.197 -0.3221  0.5164  0.0641
10138TIP3    H151905   5.176   0.284  15.179 -0.2370 -0.1885 -0.4586
10138TIP3    H251906   5.310   0.253  15.115  0.0322 -3.1103  1.4137
10139TIP3   OH251907   1.066   0.544  15.325 -0.3088 -0.9595 -0.0672
10139TIP3    H151908   1.067   0.449  15.320 -0.5104 -0.9286 -0.8481
10139TIP3    H251909   1.137   0.567  15.384  1.9037 -1.4471 -2.4439
10140TIP3   OH251910   0.816   1.662  13.750 -0.8153 -0.3747  0.4497
10140TIP3    H151911   0.878   1.720  13.794 -0.6604 -1.0330  1.0973
10140TIP3    H251912   0.808   1.586  13.807 -1.1769 -0.9101 -0.2955
10141TIP3   OH251913   1.013   4.709   5.589  0.3695  0.4767  0.6469
10141TIP3    H151914   0.922   4.695   5.616  0.8321 -0.9686  1.5117
10141TIP3    H251915   1.040   4.788   5.637  0.1422 -0.1454  1.8113
10142TIP3   OH251916   2.042   6.037   5.536 -0.3840 -0.3620 -0.0569
10142TIP3    H151917   2.107   6.083   5.484 -1.5153  1.7365  0.3303
10142TIP3    H251918   1.961   6.046   5.486 -1.2273  0.6346  1.4417
10143TIP3   OH251919   6.149   5.002  11.270  0.0247  0.0382 -0.0700
10143TIP3    H151920   6.163   5.078  11.214 -2.6938  0.8264  0.2531
10143TIP3    H251921   6.195   4.931  11.226 -0.8616  0.9638 -2.5781
10144TIP3   OH251922   4.697   3.569  15.080  0.5227  0.5081  0.1741
10144TIP3    H151923   4.783   3.584  15.120  0.3898  2.0773 -0.0905
10144TIP3    H251924   4.656   3.502  15.135  1.3574  0.7853  1.1481
10145TIP3   OH251925   4.091   1.569  16.034 -0.2826  0.0513  0.0180
10145TIP3    H151926   4.172   1.530  16.001 -0.0153  0.9472 -0.3993
10145TIP3    H251927   4.026   1.550  15.966 -0.2851 -0.1931  0.0926
10146TIP3   OH251928   4.706   2.496  15.223  0.3266  0.5395 -0.8685
10146TIP3    H151929   4.747   2.539  15.298 -1.1277  1.5012 -0.5938
10146TIP3    H251930   4.710   2.403  15.243  1.4168  0.6806 -0.3691
10147TIP3   OH251931   4.221   1.347  17.236 -0.2167  0.0587 -0.5436
10147TIP3    H151932   4.213   1.388  17.322  1.0085  0.2794 -0.5191
10147TIP3    H251933   4.166   1.400  17.179  1.1560  1.6322 -0.4557
10148TIP3   OH251934   0.825   2.743   0.643  0.2788  0.6775 -0.0422
10148TIP3    H151935   0.809   2.837   0.634 -0.2435  0.5940  0.0478
10148TIP3    H251936   0.827   2.710   0.554 -2.5553  0.2571  0.0253
10149TIP3   OH251937   6.398   5.223  13.264 -0.2338  0.2227 -0.4103
10149TIP3    H151938   6.441   5.207  13.348  0.3162  0.3025 -0.6738
10149TIP3    H251939   6.365   5.137  13.237 -1.7830  0.4705  0.6277
10150TIP3   OH251940   4.301   1.258   4.508 -0.2072 -0.1378  0.2284
10150TIP3    H151941   4.275   1.214   4.426 -3.1278  0.0024  1.0196
10150TIP3    H251942   4.249   1.338   4.509  2.3415  1.5692  0.6212
10151TIP3   OH251943   0.536   5.748   6.571 -0.5510 -0.3296  0.3832
10151TIP3    H151944   0.502   5.659   6.579 -0.5082 -0.3504  0.3363
10151TIP3    H251945   0.607   5.753   6.635 -1.8841  0.3124  1.8552
10152TIP3   OH251946   2.609   1.519  16.613 -0.4161  0.1294 -0.0705
10152TIP3    H151947   2.562   1.438  16.635 -1.8918  0.9638 -0.1229
10152TIP3    H251948   2.663   1.495  16.537 -0.7009 -0.8511  0.0272
10153TIP3   OH251949   0.850   5.141  16.981 -0.2021  0.5011 -0.1283
10153TIP3    H151950   0.831   5.234  16.993 -2.2143  0.1622 -0.4331
10153TIP3    H251951   0.812   5.098  17.058  0.2968 -0.1036 -0.2142
10154TIP3   OH251952   6.636   2.055  17.109  0.0196  0.3001  0.6940
10154TIP3    H151953   6.604   2.021  17.192  1.1828 -0.2247  0.9347
10154TIP3    H251954   6.671   2.142  17.130 -0.7006  0.6317  0.5368
10155TIP3   OH251955   1.055   3.083   0.639 -0.1762 -0.4060  0.3572
10155TIP3    H151956   1.079   3.065   0.548 -0.4680  1.6950 -0.1534
10155TIP3    H251957   0.973   3.132   0.633  0.4037  0.7610  1.6891
10156TIP3   OH251958   2.984   2.303   2.424 -0.0130 -0.0855  0.4573
10156TIP3    H151959   3.031   2.350   2.493  0.1482 -2.1938  1.8159
10156TIP3    H251960   2.928   2.370   2.383  0.3889  1.3237  2.1790
10157TIP3   OH251961   4.377   1.006  15.809  0.6761 -0.0620  0.1749
10157TIP3    H151962   4.334   0.959  15.737  0.8425  0.7961 -0.4992
10157TIP3    H251963   4.450   0.950  15.835 -0.3301 -1.1185  0.7379
10158TIP3   OH251964   3.797   1.032  16.645 -0.4060  0.4212  0.1720
10158TIP3    H151965   3.743   1.100  16.687 -0.7066 -0.2769  0.9187
10158TIP3    H251966   3.886   1.065  16.654 -0.6390  1.2158 -0.3845
10159TIP3   OH251967   0.703   0.153   4.346  0.6745  0.1379 -0.3623
10159TIP3    H151968   0.717   0.198   4.430  1.5567  1.0613 -0.9906
10159TIP3    H251969   0.624   0.101   4.360 -0.3213  1.7997  0.4309
10160TIP3   OH251970   2.735   6.263  13.479 -0.2568  0.1348 -0.6117
10160TIP3    H151971   2.769   6.213  13.405 -0.1541  0.0233 -0.4889
10160TIP3    H251972   2.793   6.338  13.487  2.0377 -1.7837  1.7172
10161TIP3   OH251973   4.721   1.619  15.658 -0.5889 -0.0685 -0.3884
10161TIP3    H151974   4.743   1.710  15.682 -1.7227  0.1014  0.0204
10161TIP3    H251975   4.659   1.591  15.725  0.1208 -1.3190 -0.2458
10162TIP3   OH251976   1.586   5.351  15.448 -0.1592 -0.0853 -0.3265
10162TIP3    H151977   1.599   5.334  15.542  2.7032  0.4914 -0.5762
10162TIP3    H251978   1.639   5.284  15.404  3.3256  3.1753 -1.3970
10163TIP3   OH251979   3.589   1.409  13.459 -0.0036 -0.1353  0.2257
10163TIP3    H151980   3.587   1.493  13.505  1.6010 -1.4430  2.8039
10163TIP3    H251981   3.595   1.343  13.529  0.8823 -2.2930 -1.8079
10164TIP3   OH251982   4.310   3.287  12.246  0.4305  0.5213  0.1290
10164TIP3    H151983   4.309   3.195  12.275 -2.4284  0.2419 -0.7295
10164TIP3    H251984   4.355   3.333  12.317 -0.2797 -1.1750  1.7387
10165TIP3   OH251985   6.113   4.108  10.527 -0.4455  0.5063 -0.6076
10165TIP3    H151986   6.157   4.092  10.444 -1.2832  0.0637 -0.9716
10165TIP3    H251987   6.119   4.203  10.540  0.3111  0.4873 -0.8118
10166TIP3   OH251988   6.343   2.151   5.865 -0.1485  0.0856 -0.3447
10166TIP3    H151989   6.387   2.077   5.823 -1.1160 -0.0411 -1.1669
10166TIP3    H251990   6.299   2.113   5.941  1.0742  0.2006  0.4407
10167TIP3   OH251991   0.164   1.700   2.450 -0.0092  0.0793  0.4292
10167TIP3    H151992   0.257   1.721   2.441 -0.0088 -0.7286 -1.7202
10167TIP3    H251993   0.162   1.628   2.513  0.7986  0.2205  0.6301
10168TIP3   OH251994   4.277   4.868  12.990 -0.3373 -0.1863  0.3819
10168TIP3    H151995   4.221   4.877  12.913 -1.1770  0.7371  1.0831
10168TIP3    H251996   4.365   4.882  12.957 -0.4746 -1.8318 -0.7716
10169TIP3   OH251997   6.801   2.110  11.372 -0.1420  0.2671 -0.0637
10169TIP3    H151998   6.745   2.188  11.371  2.3216  2.1201 -1.9779
10169TIP3    H251999   6.828   2.101  11.463 -0.7368  1.4576  0.2390
10170TIP3   OH252000   5.889   5.057   1.058 -0.5794  0.0553  0.4629
10170TIP3    H152001   5.955   5.016   1.003 -2.1401  0.9957 -2.2164
10170TIP3    H252002   5.884   5.001   1.135 -0.7348 -3.3096 -1.8763
10171TIP3   OH252003   6.407   0.635   6.532 -0.8274 -0.1550  0.0856
10171TIP3    H152004   6.500   0.619   6.546 -0.8075 -0.3594 -0.2725
10171TIP3    H252005   6.404   0.715   6.479 -0.8680  0.0463  0.3895
10172TIP3   OH252006   6.410   3.943   2.968 -0.0816  0.2598  0.1601
10172TIP3    H152007   6.392   3.978   2.881  0.5764 -0.0099 -0.0836
10172TIP3    H252008   6.361   3.861   2.972 -1.3246  0.9948  0.5959
10173TIP3   OH252009   2.894   1.954  11.843 -0.1114  0.1896  0.0094
10173TIP3    H152010   2.864   1.977  11.755 -0.8693  1.4407  0.5909
10173TIP3    H252011   2.864   1.864  11.856 -2.3957  0.9500  0.0502
10174TIP3   OH252012   2.595   5.754   1.189  0.1527  0.0342 -0.0449
10174TIP3    H152013   2.568   5.669   1.223  0.2212 -0.7893 -1.9523
10174TIP3    H252014   2.513   5.799   1.169  0.1201  0.2609  0.6047
10175TIP3   OH252015   0.307   2.863   3.944  0.9316 -0.3130  0.4891
10175TIP3    H152016   0.261   2.793   3.991  1.8285 -1.1223  0.1581
10175TIP3    H252017   0.240   2.931   3.932 -0.6983 -2.1769 -1.4933
10176TIP3   OH252018   1.588   4.745  17.210 -0.0271 -0.3887 -0.3263
10176TIP3    H152019   1.516   4.794  17.169 -0.8879 -0.7233  0.7693
10176TIP3    H252020   1.585   4.660  17.167 -0.2970 -0.4095 -0.2695
10177TIP3   OH252021   3.093   6.802  10.475 -0.4974  0.6436 -0.2344
10177TIP3    H152022   3.170   6.849  10.507 -2.1646  1.5518  2.5273
10177TIP3    H252023   3.082   6.834  10.385  1.5054  1.5298 -0.2039
10178TIP3   OH252024   0.873   2.301  16.746 -0.0608 -0.0128  0.2691
10178TIP3    H152025   0.880   2.334  16.836  2.1943 -0.0803  0.1301
10178TIP3    H252026   0.963   2.285  16.719 -0.6318  0.9010 -2.3519
10179TIP3   OH252027   2.543   6.405   3.561 -0.4208  0.6020  0.0499
10179TIP3    H152028   2.581   6.354   3.632 -1.3993 -0.6307 -0.2941
10179TIP3    H252029   2.615   6.460   3.529  1.2081 -2.0493 -0.9521
10180TIP3   OH252030   5.112   2.336   0.617  0.4389 -0.0285  0.3195
10180TIP3    H152031   5.116   2.282   0.696 -1.4193 -0.1126  0.3776
10180TIP3    H252032   5.080   2.420   0.648 -2.8677 -0.8568 -0.6942
10181TIP3   OH252033   0.011   4.049   4.212  0.1323 -0.0192 -0.3522
10181TIP3    H152034  -0.048   4.074   4.282  0.2565  2.3499 -1.0521
10181TIP3    H252035  -0.033   3.977   4.167 -1.4201  0.5905  0.1950
10182TIP3   OH252036   1.607   4.851   5.303 -0.3527  0.2519 -0.5765
10182TIP3    H152037   1.599   4.806   5.219 -0.9744 -1.0732  0.1937
10182TIP3    H252038   1.619   4.943   5.279 -0.1900 -0.1599 -2.1236
10183TIP3   OH252039   2.849   6.015  11.134  0.4934  0.3795  0.0842
10183TIP3    H152040   2.846   6.040  11.042 -0.8463  1.8578  0.5146
10183TIP3    H252041   2.757   6.000  11.158  0.9266 -1.2303  0.8658
10184TIP3   OH252042   4.747   6.252   2.159 -0.6178 -0.0426 -0.2528
10184TIP3    H152043   4.825   6.293   2.121  0.4055 -2.3023 -0.6942
10184TIP3    H252044   4.779   6.211   2.240 -1.1918 -1.5499 -0.7714
10185TIP3   OH252045   1.262   0.186   4.432 -0.3530 -0.0355  0.0544
10185TIP3    H152046   1.277   0.251   4.501  2.1722 -0.6990  0.1782
10185TIP3    H252047   1.167   0.173   4.432 -0.6850  2.0842  1.4574
10186TIP3   OH252048   0.358   2.218  17.114 -0.3400  0.2323  0.1519
10186TIP3    H152049   0.386   2.298  17.069  0.1039 -0.6682 -1.1768
10186TIP3    H252050   0.435   2.191  17.164 -0.1672  0.0814 -0.1936
10187TIP3   OH252051   4.101   6.133   3.339  0.0624 -0.3701  0.2184
10187TIP3    H152052   4.011   6.104   3.350  0.0544 -0.7416 -0.7996
10187TIP3    H252053   4.147   6.057   3.302  0.8749 -0.3043  1.0642
10188TIP3   OH252054   2.702   2.542  11.912 -0.0221 -0.1737  0.2565
10188TIP3    H152055   2.623   2.592  11.892 -0.9644 -1.4935  0.6152
10188TIP3    H252056   2.765   2.607  11.942 -0.9051  0.9175 -0.2210
10189TIP3   OH252057   0.566   0.019   5.383 -0.0943 -0.0831  0.2389
10189TIP3    H152058   0.504   0.075   5.336 -0.7557 -0.0321  1.1384
10189TIP3    H252059   0.533   0.018   5.473  0.1663 -1.5452  0.3392
10190TIP3   OH252060   2.532   3.984   2.334 -0.4545 -0.5920 -0.3304
10190TIP3    H152061   2.549   4.071   2.368  0.4535 -0.7756 -0.3197
10190TIP3    H252062   2.600   3.929   2.371 -1.0258 -1.3144 -0.3307
10191TIP3   OH252063   1.739   5.912  12.905 -0.2185  0.2660  0.0064
10191TIP3    H152064   1.746   6.008  12.902  1.0329  0.3054  2.7185
10191TIP3    H252065   1.645   5.895  12.912 -0.4355  1.3168 -0.2011
10192TIP3   OH252066   3.079   6.644   3.135 -0.4059  0.3557  0.0197
10192TIP3    H152067   3.011   6.671   3.072  0.5357  1.7393 -0.4230
10192TIP3    H252068   3.158   6.687   3.104  0.7948 -1.6015  0.2914
10193TIP3   OH252069   3.406   4.235   4.635 -0.1336  0.0799 -0.2274
10193TIP3    H152070   3.471   4.268   4.696  0.2880 -0.4865 -0.3615
10193TIP3    H252071   3.346   4.309   4.620  0.1856  0.4425  0.2865
10194TIP3   OH252072   3.371   0.887  15.561  0.7293 -0.7653 -0.8019
10194TIP3    H152073   3.351   0.962  15.505  0.0534 -0.4006 -0.0743
10194TIP3    H252074   3.356   0.918  15.650 -1.6036 -2.3725 -0.5894
10195TIP3   OH252075   1.091   1.366  15.065  0.3236  0.5206  0.4512
10195TIP3    H152076   1.054   1.431  15.124  0.2929  1.6832 -0.8051
10195TIP3    H252077   1.016   1.332  15.016  0.2273 -1.0984  1.7020
10196TIP3   OH252078   5.874   0.992   0.866 -0.1676  0.1280 -0.1193
10196TIP3    H152079   5.916   0.924   0.920 -0.2806 -0.0191 -0.2161
10196TIP3    H252080   5.946   1.050   0.841 -0.0095 -0.1666 -0.3499
10197TIP3   OH252081   1.049   2.911   3.764  0.2771  0.3253 -0.3288
10197TIP3    H152082   1.010   2.855   3.697 -0.1129  0.9166 -0.5996
10197TIP3    H252083   1.104   2.853   3.815  0.4366 -0.1654 -1.0603
10198TIP3   OH252084   2.357   6.693   2.779 -0.0103  0.2140  0.1247
10198TIP3    H152085   2.402   6.609   2.775 -0.9450 -0.3899  1.9886
10198TIP3    H252086   2.367   6.729   2.690  1.1740 -1.4251 -0.4441
10199TIP3   OH252087   4.325   3.579   1.737 -0.1033  0.6896 -0.4318
10199TIP3    H152088   4.370   3.524   1.800 -0.9776  0.8141  0.3143
10199TIP3    H252089   4.248   3.528   1.712  1.2574 -0.2298 -2.9132
10200TIP3   OH252090   6.339   3.598  14.080  0.1394 -0.3680  0.1726
10200TIP3    H152091   6.384   3.569  14.000  1.6693 -0.9665  1.2367
10200TIP3    H252092   6.328   3.692  14.068  0.6283 -0.4036 -0.6265
10201TIP3   OH252093   2.318   4.714   4.677  0.2015  0.5530  0.2925
10201TIP3    H152094   2.301   4.647   4.611  1.0457  0.2202  0.4011
10201TIP3    H252095   2.305   4.797   4.631  0.7758  0.3246 -0.2950
10202TIP3   OH252096   6.270   4.731   0.805 -0.2552 -0.5196  0.3979
10202TIP3    H152097   6.193   4.707   0.754 -0.0559 -0.0617 -0.1292
10202TIP3    H252098   6.275   4.665   0.874 -0.3695 -1.3148 -0.3490
10203TIP3   OH252099   5.652   2.881  11.092  0.6649 -0.2349 -0.2958
10203TIP3    H152100   5.713   2.821  11.050 -1.2466 -1.8958 -0.7529
10203TIP3    H252101   5.622   2.938  11.021  0.0131 -0.8655 -0.5405
10204TIP3   OH252102   4.790   3.956  16.360  0.3742 -0.0507 -0.0613
10204TIP3    H152103   4.868   3.901  16.360  0.1442 -0.3881  0.4580
10204TIP3    H252104   4.748   3.939  16.276  0.5213 -0.3612 -0.0727
10205TIP3   OH252105   6.710   0.614  14.209 -0.6753 -0.0265  0.3133
10205TIP3    H152106   6.647   0.590  14.141 -1.0402  2.1884 -0.1748
10205TIP3    H252107   6.691   0.706  14.228  1.5168  0.2908  1.1446
10206TIP3   OH252108   4.176   0.183   6.146  0.1484 -0.0536 -0.0737
10206TIP3    H152109   4.254   0.221   6.187 -0.1241  0.3966  0.0278
10206TIP3    H252110   4.200   0.092   6.130  0.6171  0.0245  0.1649
10207TIP3   OH252111   0.245   4.074  12.482  0.0601 -0.9780 -0.2938
10207TIP3    H152112   0.247   3.983  12.511 -0.5649 -1.0392 -0.4192
10207TIP3    H252113   0.325   4.113  12.517 -0.7471 -1.0105  1.6471
10208TIP3   OH252114   2.677   4.503   5.463 -0.1994  0.0952  0.0859
10208TIP3    H152115   2.600   4.479   5.514  0.2074  0.5339  0.9321
10208TIP3    H252116   2.708   4.584   5.504  1.2660 -0.6011  0.3959
10209TIP3   OH252117   1.518   4.108  15.802 -0.1534 -0.3484  0.0292
10209TIP3    H152118   1.529   4.076  15.712 -2.4519 -0.0458 -0.3947
10209TIP3    H252119   1.471   4.038  15.846  0.6073 -0.3167  0.8978
10210TIP3   OH252120   5.831   1.397   0.311  0.1391  0.6662  0.1679
10210TIP3    H152121   5.840   1.465   0.378 -0.6615  1.2894 -0.3513
10210TIP3    H252122   5.768   1.433   0.248 -1.0652 -0.9490  0.4014
10211TIP3   OH252123   1.998   4.034  13.507 -0.1138 -0.5982 -0.2837
10211TIP3    H152124   1.970   4.002  13.421 -0.3806 -1.9675  0.3039
10211TIP3    H252125   1.987   4.129  13.502 -1.1783 -0.7694 -1.3837
10212TIP3   OH252126   5.462   0.758   0.929  0.7200  0.3013 -0.2674
10212TIP3    H152127   5.549   0.743   0.893  1.2110  2.2332  0.0736
10212TIP3    H252128   5.455   0.853   0.939 -1.1957  0.1385  0.2768
10213TIP3   OH252129   6.426   0.140   6.338 -0.0030 -0.4358 -0.1128
10213TIP3    H152130   6.425   0.045   6.350  2.1323  0.0236  4.8166
10213TIP3    H252131   6.341   0.170   6.370 -0.3082 -0.5829 -0.7793
10214TIP3   OH252132   6.653   3.415   2.533 -0.6673  0.3692  0.3857
10214TIP3    H152133   6.660   3.400   2.438  1.7865  3.8881 -0.0992
10214TIP3    H252134   6.562   3.442   2.545 -1.8692 -3.1099 -0.4309
10215TIP3   OH252135   0.777   4.064  14.782  0.0850  0.2853  0.0046
10215TIP3    H152136   0.857   4.102  14.746 -0.9315  1.7757 -0.7228
10215TIP3    H252137   0.769   3.980  14.739  1.7831 -0.3279  0.8277
10216TIP3   OH252138   4.220   0.477  16.701 -0.5008 -0.3507 -0.0273
10216TIP3    H152139   4.203   0.391  16.664 -0.1838 -1.3585  2.1024
10216TIP3    H252140   4.138   0.501  16.744  0.0266 -0.4449  1.0343
10217TIP3   OH252141   4.811   3.512  16.415  0.2924 -0.9174 -0.7601
10217TIP3    H152142   4.731   3.542  16.373  0.0480 -1.3803 -0.6316
10217TIP3    H252143   4.788   3.425  16.450  0.6419 -0.7606 -0.1313
10218TIP3   OH252144   5.532   6.530  17.101 -0.1324 -0.5894 -0.4655
10218TIP3    H152145   5.609   6.482  17.071 -1.3157 -1.8847 -1.5024
10218TIP3    H252146   5.520   6.503  17.192  1.6977  1.0505  0.3126
10219TIP3   OH252147   2.354   3.953   2.135  0.2159 -0.0482 -0.2920
10219TIP3    H152148   2.277   3.908   2.168 -0.0978  0.2304 -0.6453
10219TIP3    H252149   2.414   3.956   2.210  0.7877 -2.2503 -0.6303
10220TIP3   OH252150   3.063   1.851  12.436 -0.3506 -0.2459 -0.5068
10220TIP3    H152151   3.140   1.796  12.423 -0.4299 -0.5485  0.2476
10220TIP3    H252152   2.990   1.799  12.403 -0.4722 -0.7551  0.5350
10221TIP3   OH252153   5.973   3.469  11.790 -0.3796 -0.4938 -0.2708
10221TIP3    H152154   5.889   3.423  11.794  0.7676 -2.6690 -0.3250
10221TIP3    H252155   6.038   3.401  11.810  1.2962  1.3819  0.8735
10222TIP3   OH252156   1.920   3.531  13.166  0.2430 -0.2004  0.8731
10222TIP3    H152157   1.964   3.515  13.082 -1.5620 -0.6362 -0.0155
10222TIP3    H252158   1.870   3.611  13.152 -0.1878 -0.3630  1.4911
10223TIP3   OH252159   4.557   0.836  11.089  0.3683 -0.0044 -0.1213
10223TIP3    H152160   4.573   0.882  11.006  1.2446  0.4797  0.3024
10223TIP3    H252161   4.467   0.859  11.112  0.3436  0.4041 -0.6086
10224TIP3   OH252162   6.674   1.615   2.448  0.0191 -0.1034 -0.6355
10224TIP3    H152163   6.621   1.682   2.490  0.6755  0.6592 -1.0202
10224TIP3    H252164   6.610   1.551   2.416 -0.4840 -0.7868  1.6293
10225TIP3   OH252165   5.675   3.287   5.912 -0.1460  0.4601  0.3866
10225TIP3    H152166   5.750   3.333   5.950 -1.7455  3.6793 -0.1743
10225TIP3    H252167   5.607   3.292   5.979 -0.6366 -0.2931 -0.0463
10226TIP3   OH252168   4.903   3.006   3.880 -0.1367  0.0260 -0.5559
10226TIP3    H152169   4.987   3.035   3.843 -0.7109  1.9284 -0.4200
10226TIP3    H252170   4.837   3.052   3.828 -1.0442 -0.1433  0.4325
10227TIP3   OH252171   3.912   1.176   3.358  0.5335  1.1013  0.3666
10227TIP3    H152172   3.890   1.122   3.433  1.0668  0.1592 -0.1441
10227TIP3    H252173   4.005   1.197   3.370  0.7181  0.6375 -0.2146
10228TIP3   OH252174   4.835   2.136   1.379  0.2872  0.2385  0.4285
10228TIP3    H152175   4.807   2.184   1.301  0.6357 -1.5399 -0.8220
10228TIP3    H252176   4.759   2.140   1.438 -0.9579 -0.6272 -1.0829
10229TIP3   OH252177   1.043   5.157   4.080 -0.1096 -0.2892 -0.1549
10229TIP3    H152178   0.966   5.197   4.120 -1.2611 -0.6250 -1.9991
10229TIP3    H252179   1.065   5.214   4.006  1.0128 -0.5643 -0.0505
10230TIP3   OH252180   1.082   6.751   2.829 -0.2933 -0.4987  0.4737
10230TIP3    H152181   1.090   6.819   2.762 -1.3363 -0.2807  0.5625
10230TIP3    H252182   1.018   6.786   2.891 -0.2288 -1.2146  0.9489
10231TIP3   OH252183   0.069   6.809  15.143 -0.2688 -0.2982 -0.4512
10231TIP3    H152184   0.079   6.714  15.142  0.6318 -0.2075 -0.1090
10231TIP3    H252185   0.010   6.826  15.216 -0.2597 -0.5694 -0.3803
10232TIP3   OH252186   0.744   1.825  10.628 -0.1180 -0.0019  0.2070
10232TIP3    H152187   0.719   1.774  10.706 -1.0263 -1.4319 -0.9975
10232TIP3    H252188   0.809   1.887  10.661  1.3112 -2.1757  1.6858
10233TIP3   OH252189   4.940   3.845  13.835  0.3470 -0.7802 -0.3864
10233TIP3    H152190   4.986   3.861  13.917 -1.1551  1.1841  0.0856
10233TIP3    H252191   5.011   3.828  13.772  1.5509 -1.2838  1.0701
10234TIP3   OH252192   0.633   3.871  14.310  0.8391 -0.3067 -0.3509
10234TIP3    H152193   0.725   3.869  14.337  0.2994 -0.9353  1.5264
10234TIP3    H252194   0.595   3.945  14.358  0.1961 -0.4493 -0.6305
10235TIP3   OH252195   1.956   6.587  17.284 -0.4715  0.0726 -0.0537
10235TIP3    H152196   2.039   6.607  17.329 -1.0070  0.0227  0.9678
10235TIP3    H252197   1.893   6.648  17.322 -0.9488 -0.0124 -0.7056
10236TIP3   OH252198   4.160   5.497  16.160  0.1843  0.2345 -0.2998
10236TIP3    H152199   4.246   5.471  16.195 -0.2260  0.3208  0.8069
10236TIP3    H252200   4.136   5.425  16.102  2.1966  1.4501 -2.7624
10237TIP3   OH252201   6.240   5.805   6.370  0.5668  0.2746  0.5146
10237TIP3    H152202   6.289   5.802   6.453 -0.1035 -2.4435  0.8527
10237TIP3    H252203   6.288   5.746   6.312  0.0826  0.8862 -0.5088
10238TIP3   OH252204   3.715   4.546   3.262 -0.2433 -0.4471  0.1461
10238TIP3    H152205   3.728   4.490   3.186 -0.8964 -0.6417  0.1785
10238TIP3    H252206   3.696   4.632   3.225 -2.1619 -0.8905  0.0676
10239TIP3   OH252207   1.681   4.785   2.794 -0.7939  0.1503 -0.6911
10239TIP3    H152208   1.645   4.851   2.854  0.5832  0.4618 -0.1963
10239TIP3    H252209   1.669   4.822   2.707 -0.4680  0.8296 -0.4454
10240TIP3   OH252210   4.091   5.949   2.814  0.2034 -0.3865  0.4213
10240TIP3    H152211   4.002   5.983   2.812  0.0836 -0.6343  1.1984
10240TIP3    H252212   4.095   5.897   2.895  0.9744 -0.5744  0.2675
10241TIP3   OH252213   5.086   2.547   2.879 -0.2593 -0.2115 -0.7496
10241TIP3    H152214   5.094   2.456   2.908  0.2388  0.3123  0.8052
10241TIP3    H252215   5.175   2.572   2.854 -0.4727 -0.2786 -1.6018
10242TIP3   OH252216   0.272   0.811  16.212  0.1543  0.0802  0.0152
10242TIP3    H152217   0.227   0.818  16.296 -0.4766 -0.8122 -0.2475
10242TIP3    H252218   0.219   0.750  16.161  0.5129  0.6465 -1.0479
10243TIP3   OH252219   0.884   0.062  17.267  0.3450  0.0316 -0.1589
10243TIP3    H152220   0.891   0.121  17.342  0.7735  0.6763 -0.7097
10243TIP3    H252221   0.921  -0.021  17.299 -2.0098 -0.5369  1.2314
10244TIP3   OH252222   0.329   5.543   0.141 -0.1887 -0.4584  0.2631
10244TIP3    H152223   0.276   5.613   0.180 -1.4320 -0.6829 -0.9947
10244TIP3    H252224   0.418   5.562   0.171 -0.6479  1.1210  0.7081
10245TIP3   OH252225   4.815   3.581   1.006  0.6099 -0.4615  0.2855
10245TIP3    H152226   4.828   3.489   1.029  2.1600 -0.5504 -0.8475
10245TIP3    H252227   4.761   3.578   0.927 -0.3394 -0.3435  0.9217
10246TIP3   OH252228   4.838   3.840   3.036 -0.3759 -0.2115 -0.0764
10246TIP3    H152229   4.771   3.775   3.013 -0.7394  0.9179 -2.3736
10246TIP3    H252230   4.917   3.810   2.992 -0.6091  1.0169 -1.3542
10247TIP3   OH252231   5.363   5.876   1.494  0.4791 -0.7360  0.0877
10247TIP3    H152232   5.390   5.960   1.457  3.5019 -1.1223  1.2803
10247TIP3    H252233   5.272   5.889   1.521  0.3712  1.5924 -1.3449
10248TIP3   OH252234   4.169   1.144  15.930  0.7896 -0.5356 -0.2929
10248TIP3    H152235   4.228   1.083  15.886  0.3276 -2.6168  1.8784
10248TIP3    H252236   4.199   1.145  16.021 -2.0150 -1.0155  0.6840
10249TIP3   OH252237   0.350   1.143  13.407 -0.2656 -0.4069 -0.2572
10249TIP3    H152238   0.255   1.146  13.418 -0.1626 -1.2996  0.9692
10249TIP3    H252239   0.363   1.087  13.330 -0.6730 -1.8682  0.7113
10250TIP3   OH252240   3.117   3.106  12.728  0.5271 -0.0822 -0.3628
10250TIP3    H152241   3.054   3.166  12.688 -0.8403  0.0109  1.8648
10250TIP3    H252242   3.171   3.075  12.655  0.3327  2.7360 -1.7490
10251TIP3   OH252243   2.442   0.225   3.089  0.1930 -0.1252 -0.5735
10251TIP3    H152244   2.473   0.154   3.032 -2.0829 -0.3530 -1.5514
10251TIP3    H252245   2.384   0.277   3.034  1.9809  2.6616  0.0854
10252TIP3   OH252246   3.825   6.734   2.823  0.3339  0.7844 -0.0686
10252TIP3    H152247   3.895   6.721   2.887 -0.0019  1.1014  0.3738
10252TIP3    H252248   3.865   6.716   2.738  0.3361 -1.3133  0.3617
10253TIP3   OH252249   5.651   2.166   6.536  0.4074 -0.1965  0.4599
10253TIP3    H152250   5.695   2.179   6.620  1.7107 -0.0334 -0.2297
10253TIP3    H252251   5.667   2.074   6.515  0.1736 -0.2097  0.3373
10254TIP3   OH252252   1.115   1.995   2.884  0.2311  0.1437  0.6884
10254TIP3    H152253   1.090   1.921   2.829 -0.8783 -0.0748  1.4596
10254TIP3    H252254   1.181   2.042   2.833  0.2844 -0.8699 -0.1901
10255TIP3   OH252255   2.343   0.406   2.896  0.2592 -0.1074 -0.8253
10255TIP3    H152256   2.418   0.458   2.924 -0.9815  1.2571  0.0350
10255TIP3    H252257   2.293   0.465   2.839 -1.5779 -0.0666  0.7885
10256TIP3   OH252258   4.085   0.668   2.292  0.4874  0.4730 -0.3624
10256TIP3    H152259   4.002   0.647   2.334  0.2546 -1.0730 -1.5768
10256TIP3    H252260   4.150   0.617   2.341  0.2169 -1.3222 -1.8121
10257TIP3   OH252261   5.651   4.386   4.916 -0.1691  0.2958 -0.2246
10257TIP3    H152262   5.709   4.345   4.851  0.6242  0.8887  0.1142
10257TIP3    H252263   5.701   4.385   4.997 -1.9117 -2.3108  0.9092
10258TIP3   OH252264   6.532   0.058  17.011  0.4012 -0.0632 -0.2098
10258TIP3    H152265   6.509  -0.002  17.082  2.7716 -0.1995  0.4725
10258TIP3    H252266   6.512   0.145  17.045 -1.3883 -0.3146 -0.5536
10259TIP3   OH252267   1.312   2.620  14.337  0.2128  0.3089 -0.3504
10259TIP3    H152268   1.301   2.550  14.272  1.0416 -0.5965  0.4815
10259TIP3    H252269   1.223   2.638  14.368  0.1998 -1.8763  0.9942
10260TIP3   OH252270   3.946   1.906  10.197 -0.3008  0.0268 -0.0329
10260TIP3    H152271   3.908   1.828  10.236 -0.5872  0.0307 -0.2971
10260TIP3    H252272   4.034   1.912  10.234 -0.2330 -0.4925 -0.1063
10261TIP3   OH252273   5.870   5.080   5.572  0.0271 -0.2329  0.0208
10261TIP3    H152274   5.838   5.130   5.497  0.8950 -1.5193 -1.2363
10261TIP3    H252275   5.822   5.116   5.647 -1.2194  0.7422 -1.2082
10262TIP3   OH252276   2.203   0.288  16.685 -0.4835 -0.2261  0.3455
10262TIP3    H152277   2.127   0.231  16.682 -1.4336  0.9717  1.3533
10262TIP3    H252278   2.168   0.376  16.673  0.9335  0.1935 -0.9236
10263TIP3   OH252279   3.929   2.166   5.295  0.1205  0.0872 -0.7281
10263TIP3    H152280   3.990   2.117   5.240  1.8040  0.0997  1.0701
10263TIP3    H252281   3.976   2.178   5.378 -1.5835  1.7914  0.0217
10264TIP3   OH252282   5.878   6.281  11.760 -0.2394 -0.2285 -0.0181
10264TIP3    H152283   5.799   6.277  11.706  0.4948 -1.8738 -1.0101
10264TIP3    H252284   5.919   6.365  11.737  1.1668 -1.8109 -3.6716
10265TIP3   OH252285   0.143   4.871   0.436 -0.3252  0.4017 -0.9250
10265TIP3    H152286   0.096   4.898   0.514  0.7178  0.0495 -0.1700
10265TIP3    H252287   0.224   4.832   0.468  0.1563  0.3304 -2.1770
10266TIP3   OH252288   6.348   1.914  12.191  0.3505 -0.4670 -0.2601
10266TIP3    H152289   6.369   2.004  12.218 -0.3232  0.2042 -1.8900
10266TIP3    H252290   6.427   1.883  12.147  0.3673 -0.4322 -0.2541
10267TIP3   OH252291   4.023   4.818   3.822 -0.2455  0.4362  0.4330
10267TIP3    H152292   4.118   4.820   3.832 -0.4252  1.3066  2.1425
10267TIP3    H252293   3.997   4.910   3.817 -0.6993  0.1791 -3.5917
10268TIP3   OH252294   2.517   0.235   5.662 -0.1431  0.4773 -0.0954
10268TIP3    H152295   2.491   0.195   5.579 -0.6118  0.3765  0.0988
10268TIP3    H252296   2.568   0.312   5.636  1.4831 -0.7056 -0.4548
10269TIP3   OH252297   0.815   0.456   2.802  0.6558  0.8580  0.4884
10269TIP3    H152298   0.782   0.486   2.886  1.1410 -0.0169  1.0037
10269TIP3    H252299   0.887   0.397   2.824 -0.5573 -1.0491 -0.4600
10270TIP3   OH252300   0.661   0.222  15.891 -0.3446 -0.6098 -0.6796
10270TIP3    H152301   0.595   0.278  15.850 -0.3785 -0.0961  0.0587
10270TIP3    H252302   0.615   0.142  15.913 -0.7847 -0.1733  0.0158
10271TIP3   OH252303   6.137   0.635  10.746  0.3740  0.3712  0.1127
10271TIP3    H152304   6.170   0.697  10.811 -0.1923 -1.0490  1.7830
10271TIP3    H252305   6.213   0.617  10.690  1.2322  0.6139  1.1747
10272TIP3   OH252306   1.657   5.067   1.867  0.0859  0.1091 -0.1925
10272TIP3    H152307   1.611   5.151   1.873 -1.5779 -0.7729 -0.3840
10272TIP3    H252308   1.680   5.060   1.774  2.3541  1.4349  0.2252
10273TIP3   OH252309   0.962   2.335  17.033  0.1075 -0.0371 -0.1028
10273TIP3    H152310   0.875   2.295  17.028  0.4354 -0.8323  0.4307
10273TIP3    H252311   0.991   2.318  17.122  0.6433  0.5901 -0.1564
10274TIP3   OH252312   3.945   2.736  11.492  0.0540  0.4148  0.4928
10274TIP3    H152313   3.967   2.705  11.404 -1.5753  0.7612 -0.0577
10274TIP3    H252314   3.850   2.723  11.499 -0.5536  4.2782  0.6287
10275TIP3   OH252315   0.263   1.952   4.126 -0.5373 -0.4265  0.0565
10275TIP3    H152316   0.198   1.913   4.185 -1.5709  1.0045 -0.1041
10275TIP3    H252317   0.236   1.924   4.038  0.4772 -1.8114  0.1704
10276TIP3   OH252318   3.022   0.482  16.115  0.2565 -0.2863  0.3171
10276TIP3    H152319   2.939   0.489  16.068  0.2663  0.0256  0.3511
10276TIP3    H252320   3.083   0.446  16.050  0.3376  0.4056  0.0023
10277TIP3   OH252321   0.379   0.699  16.634 -1.0251  0.3121  0.4450
10277TIP3    H152322   0.378   0.603  16.628 -0.8626  0.1547  2.6023
10277TIP3    H252323   0.289   0.723  16.656 -0.8573  0.5810  0.8474
10278TIP3   OH252324   0.896   3.653   6.664 -0.0513  0.2995 -0.9437
10278TIP3    H152325   0.942   3.594   6.724 -1.5376 -0.1948 -0.2572
10278TIP3    H252326   0.825   3.600   6.628 -1.6016  1.7585 -0.0876
10279TIP3   OH252327   4.962   3.654   3.393 -0.2861 -0.1126 -0.1112
10279TIP3    H152328   4.888   3.655   3.331  0.0257 -3.0129 -0.6497
10279TIP3    H252329   5.029   3.602   3.348 -0.5982 -3.6328  3.1753
10280TIP3   OH252330   5.655   4.236  14.150 -0.1809  0.0022  0.1304
10280TIP3    H152331   5.732   4.192  14.186  0.9115  2.7794  1.2946
10280TIP3    H252332   5.594   4.240  14.224 -1.0358 -1.1836 -0.4885
10281TIP3   OH252333   3.422   1.033   5.585 -0.2214  0.0833 -0.0430
10281TIP3    H152334   3.444   0.997   5.499  0.2275 -1.4649  0.6897
10281TIP3    H252335   3.506   1.062   5.621 -0.4178  0.7988 -0.1556
10282TIP3   OH252336   4.972   2.256   1.758 -0.0950 -0.4169  0.0482
10282TIP3    H152337   4.942   2.341   1.791 -0.7713 -1.0635  1.1255
10282TIP3    H252338   5.012   2.276   1.674  0.4866  1.0920  0.6619
10283TIP3   OH252339   4.444   3.999   2.603  0.1108  0.8162 -0.2633
10283TIP3    H152340   4.429   3.991   2.509 -0.3914 -1.4525 -0.0101
10283TIP3    H252341   4.366   4.043   2.637 -0.7585 -0.4707 -0.5869
10284TIP3   OH252342   6.138   5.854  15.104  0.1475  0.0565 -0.1719
10284TIP3    H152343   6.070   5.826  15.043  2.2254 -1.0042 -2.0559
10284TIP3    H252344   6.096   5.921  15.157 -2.1422 -0.0180 -1.8195
10285TIP3   OH252345   1.421   5.924   2.137 -0.1127 -0.0831  0.1702
10285TIP3    H152346   1.364   6.001   2.143 -0.2446 -0.2137  0.5744
10285TIP3    H252347   1.404   5.889   2.049 -0.0487  0.3511 -0.0171
10286TIP3   OH252348   0.438   1.608  14.440 -0.5138  0.6610 -0.0439
10286TIP3    H152349   0.500   1.677  14.460  0.0534  0.3540 -0.7478
10286TIP3    H252350   0.367   1.621  14.504  0.3492  0.8921  0.8880
10287TIP3   OH252351   4.122   4.117   4.419  0.3747  0.1655  0.1706
10287TIP3    H152352   4.165   4.032   4.430  1.0408  0.2834 -1.3109
10287TIP3    H252353   4.190   4.181   4.439  0.5676  0.3479 -1.0203
10288TIP3   OH252354   4.565   2.423  16.262 -0.4103 -0.2406 -0.3093
10288TIP3    H152355   4.558   2.345  16.318  1.0922 -0.6061 -0.6136
10288TIP3    H252356   4.604   2.391  16.181  1.2359  1.0211 -0.0358
10289TIP3   OH252357   4.330   5.434  15.176  0.1810 -0.0607 -0.7141
10289TIP3    H152358   4.416   5.460  15.144  0.1673  0.8984  0.0058
10289TIP3    H252359   4.298   5.511  15.224 -0.5870 -0.8088 -0.0062
10290TIP3   OH252360   2.758   5.244   0.916  0.2160 -0.0516  0.4104
10290TIP3    H152361   2.737   5.165   0.866 -0.4257 -1.6673  3.1443
10290TIP3    H252362   2.694   5.309   0.885 -1.5489 -1.6451  0.6060
10291TIP3   OH252363   0.761   4.156   3.555 -0.2518  0.3188 -0.0993
10291TIP3    H152364   0.724   4.244   3.543 -1.7667 -0.1937  0.6752
10291TIP3    H252365   0.695   4.109   3.605  1.0678 -0.9311  0.4942
10292TIP3   OH252366   1.653   1.153   5.529 -0.4755 -0.2953  0.2875
10292TIP3    H152367   1.723   1.155   5.465 -0.2504 -0.1884  0.5371
10292TIP3    H252368   1.575   1.179   5.480 -0.9480 -3.4741 -0.7226
10293TIP3   OH252369   5.545   3.132  12.617 -0.0069  0.1358  0.0793
10293TIP3    H152370   5.514   3.194  12.682 -0.3105 -0.3197  0.3710
10293TIP3    H252371   5.611   3.080  12.662 -1.0139 -0.9252  0.3696
10294TIP3   OH252372   6.275   2.657   5.646  0.0784  0.3437  0.7017
10294TIP3    H152373   6.217   2.715   5.695  0.1319  0.1891  0.9486
10294TIP3    H252374   6.358   2.659   5.695 -0.6090 -1.7199  2.0021
10295TIP3   OH252375   0.410   5.352  15.282  0.2284  0.7425  0.1652
10295TIP3    H152376   0.353   5.309  15.217  0.1407  1.5972 -0.3337
10295TIP3    H252377   0.393   5.305  15.363  0.1128 -0.1549 -0.3644
10296TIP3   OH252378   4.649   2.849   0.547 -0.4660 -0.0422 -0.3987
10296TIP3    H152379   4.719   2.908   0.520 -1.4238  1.5601  0.5357
10296TIP3    H252380   4.693   2.765   0.563  0.9089  0.3948 -1.7629
10297TIP3   OH252381   2.865   4.089   5.714 -0.3983  0.1626 -0.2998
10297TIP3    H152382   2.856   4.124   5.625 -0.3571  0.4051 -0.2080
10297TIP3    H252383   2.942   4.032   5.710 -0.5342 -0.0107 -0.4783
10298TIP3   OH252384   3.514   5.586   2.294 -0.0107  0.0486  0.2395
10298TIP3    H152385   3.573   5.646   2.339 -1.1275  1.4243 -0.0841
10298TIP3    H252386   3.440   5.576   2.354 -0.2694 -0.2557 -0.1261
10299TIP3   OH252387   1.340   3.366   0.163  0.3188 -0.1985 -0.3176
10299TIP3    H152388   1.343   3.430   0.091 -1.9133 -0.5396 -0.7419
10299TIP3    H252389   1.260   3.387   0.210  0.7223 -1.2892  0.8735
10300TIP3   OH252390   4.156   5.306  13.630 -0.1058 -0.6109 -0.3404
10300TIP3    H152391   4.191   5.379  13.682 -1.5237  1.8311 -2.6321
10300TIP3    H252392   4.064   5.301  13.654 -0.4101 -0.4926 -1.4189
10301TIP3   OH252393   4.378   3.164   5.475 -0.5270 -0.2487 -0.2392
10301TIP3    H152394   4.317   3.150   5.403  0.3533  0.7074 -1.1849
10301TIP3    H252395   4.402   3.256   5.469 -0.4328 -0.1525  1.2795
10302TIP3   OH252396   3.776   1.779   2.105  0.5928 -0.1513 -0.0533
10302TIP3    H152397   3.693   1.806   2.144 -0.6504  1.1754 -3.4722
10302TIP3    H252398   3.842   1.810   2.167 -1.3147  1.0390  1.4636
10303TIP3   OH252399   6.366   0.641   2.846  0.8059 -0.4160 -0.4953
10303TIP3    H152400   6.405   0.681   2.769 -0.2899  0.5541 -0.5670
10303TIP3    H252401   6.410   0.556   2.855  1.4766 -0.2023 -1.7206
10304TIP3   OH252402   4.874   0.679  16.171  0.3605 -0.5249  0.2382
10304TIP3    H152403   4.832   0.764  16.182  2.3277  0.2965  1.7903
10304TIP3    H252404   4.813   0.628  16.117 -1.0853  1.6754 -0.2486
10305TIP3   OH252405   2.908   0.971   0.389  0.0565  0.0714 -0.3746
10305TIP3    H152406   2.845   0.972   0.317 -2.5328  3.4844  1.7290
10305TIP3    H252407   2.858   0.936   0.463  2.1113 -1.6489  0.2474
10306TIP3   OH252408   6.260   5.620   4.372 -0.3081  0.3316  0.4389
10306TIP3    H152409   6.264   5.681   4.446 -0.6434 -2.0667  2.5259
10306TIP3    H252410   6.331   5.558   4.389  0.9902  0.9391 -2.4450
10307TIP3   OH252411   6.667   4.554   5.837 -0.1399 -0.4478 -0.0493
10307TIP3    H152412   6.588   4.580   5.790 -0.3083  0.1721  0.5748
10307TIP3    H252413   6.634   4.512   5.917  0.1622 -0.4823  0.0564
10308TIP3   OH252414   1.531   0.679  16.113 -0.2228 -0.2466 -0.6550
10308TIP3    H152415   1.570   0.721  16.036  0.4651 -1.7510 -1.1473
10308TIP3    H252416   1.444   0.651  16.084 -0.3482  0.0679 -0.5846
10309TIP3   OH252417   1.625   4.511   4.555 -0.2165 -0.4163 -0.2529
10309TIP3    H152418   1.598   4.591   4.600  3.3825 -0.5651  2.3450
10309TIP3    H252419   1.631   4.536   4.463 -1.2657  1.6783  0.2239
10310TIP3   OH252420   5.737   5.833   0.412 -0.6390  0.0209 -0.0263
10310TIP3    H152421   5.700   5.765   0.356 -1.3165  0.5550 -0.2407
10310TIP3    H252422   5.751   5.790   0.496 -0.0281 -0.6705 -0.4712
10311TIP3   OH252423   4.412   5.665   2.655 -0.4669  0.5569 -0.4758
10311TIP3    H152424   4.409   5.647   2.749  1.6210 -0.8190 -0.6454
10311TIP3    H252425   4.398   5.760   2.649 -0.4808  0.6824  1.2264
10312TIP3   OH252426   1.893   1.178  10.540  0.2191  0.0425 -0.4257
10312TIP3    H152427   1.943   1.170  10.621 -0.9380 -2.5565  0.0841
10312TIP3    H252428   1.931   1.112  10.481 -0.0075  0.7840 -1.4169
10313TIP3   OH252429   0.351   4.278   5.862  0.7522  0.1198 -0.1432
10313TIP3    H152430   0.277   4.217   5.868  0.0686  0.9274 -0.1433
10313TIP3    H252431   0.415   4.245   5.925 -0.4558  0.5358  1.3350
10314TIP3   OH252432   5.728   4.535  15.164  0.0956 -0.3287  0.4261
10314TIP3    H152433   5.770   4.508  15.246 -1.4352 -2.7114  0.4533
10314TIP3    H252434   5.767   4.477  15.098 -0.5124 -0.1001 -0.1288
10315TIP3   OH252435   0.852   2.053   3.539  0.4116 -0.0513 -0.2594
10315TIP3    H152436   0.882   1.988   3.475  1.0553 -1.8683  1.7910
10315TIP3    H252437   0.785   2.007   3.590 -1.9111  2.1793 -1.1859
10316TIP3   OH252438   1.997   2.835  15.727 -0.4684 -0.6496 -0.4682
10316TIP3    H152439   1.998   2.778  15.804 -0.1474  0.3750  0.3001
10316TIP3    H252440   2.059   2.796  15.666  0.4809 -0.5783  0.4527
10317TIP3   OH252441   2.139   0.828   0.806 -0.4363  0.3238 -0.1538
10317TIP3    H152442   2.074   0.816   0.875 -1.0408 -1.7758 -1.0578
10317TIP3    H252443   2.223   0.819   0.851 -0.8286 -3.6068 -0.0768
10318TIP3   OH252444   4.770   2.731   5.658 -0.1889 -0.0483  0.4211
10318TIP3    H152445   4.729   2.814   5.681  0.0145  0.2109 -0.1244
10318TIP3    H252446   4.697   2.670   5.647 -0.3837  0.2251  0.1862
10319TIP3   OH252447   0.614   4.456  16.233  0.1005  0.4910 -0.4299
10319TIP3    H152448   0.690   4.487  16.184 -0.4316 -0.1377 -1.7065
10319TIP3    H252449   0.640   4.369  16.265  0.5593  1.0340  0.6660
10320TIP3   OH252450   3.255   4.854   2.183  0.7592  0.1916 -0.4112
10320TIP3    H152451   3.277   4.763   2.204  0.8527  0.3986  0.3717
10320TIP3    H252452   3.216   4.849   2.095  0.5803 -0.6266 -0.2895
10321TIP3   OH252453   1.365   1.384   0.228 -0.7545 -0.1850 -0.5778
10321TIP3    H152454   1.312   1.313   0.263 -0.5464 -0.0224  0.0908
10321TIP3    H252455   1.455   1.359   0.250 -0.5424 -0.5315 -1.8324
10322TIP3   OH252456   0.363   4.449   4.074 -0.3182  0.2686 -0.3509
10322TIP3    H152457   0.387   4.527   4.125 -2.0373  0.6833 -0.1598
10322TIP3    H252458   0.302   4.402   4.131 -2.3437  0.7868 -2.0678
10323TIP3   OH252459   2.743   2.645  13.688 -0.1083 -0.0226  0.1306
10323TIP3    H152460   2.664   2.691  13.659  0.9738  0.2488 -2.5754
10323TIP3    H252461   2.796   2.636  13.608  1.4269 -2.5306  1.3557
10324TIP3   OH252462   4.915   2.867  16.128  0.6883 -0.1265 -0.3781
10324TIP3    H152463   4.945   2.834  16.043 -1.3360  0.7357 -1.4534
10324TIP3    H252464   4.948   2.957  16.132  1.8073 -0.5475  0.3092
10325TIP3   OH252465   6.476   1.518   4.165  0.1664 -0.2439 -0.1844
10325TIP3    H152466   6.399   1.526   4.222  1.5163  0.6965  1.5634
10325TIP3    H252467   6.520   1.603   4.172  1.8547 -1.0725 -0.4584
10326TIP3   OH252468   2.463   1.139   6.713 -0.0033  0.0581 -0.0301
10326TIP3    H152469   2.556   1.118   6.719  0.2036  0.9647  0.0588
10326TIP3    H252470   2.460   1.213   6.652 -0.4190  1.5640  1.7814
10327TIP3   OH252471   5.685   0.312   2.410  0.2677 -0.1266 -0.6083
10327TIP3    H152472   5.771   0.295   2.449  0.0089 -0.5320 -0.2140
10327TIP3    H252473   5.676   0.407   2.412  1.3457  0.0267 -2.0277
10328TIP3   OH252474   6.053   4.078  14.386 -0.1438 -0.0303 -0.3208
10328TIP3    H152475   6.113   4.032  14.445 -1.1027 -1.7481 -0.6426
10328TIP3    H252476   6.014   4.147  14.440  1.2529  0.3463  0.2082
10329TIP3   OH252477   3.932   3.285   4.410 -0.0623 -0.1244  0.0307
10329TIP3    H152478   3.915   3.379   4.419 -0.9753 -0.2237 -0.6175
10329TIP3    H252479   4.025   3.276   4.433 -0.2143  0.7885  1.0551
10330TIP3   OH252480   5.169   2.816  12.216 -0.2694  0.1532  0.1926
10330TIP3    H152481   5.103   2.749  12.200  1.4639 -0.9478 -2.7994
10330TIP3    H252482   5.252   2.769  12.214  0.6588  1.4372  4.4329
10331TIP3   OH252483   4.011   3.104   3.743 -0.3104  0.1095  0.6865
10331TIP3    H152484   4.037   3.149   3.663  0.8184 -1.1213  0.3449
10331TIP3    H252485   3.964   3.171   3.794  1.1968  1.6377  0.1239
10332TIP3   OH252486   3.566   2.304   5.679  0.3275  0.4188 -0.1574
10332TIP3    H152487   3.603   2.242   5.743 -2.4744 -0.7890  0.3743
10332TIP3    H252488   3.472   2.283   5.677 -0.1983  2.7495 -2.1354
10333TIP3   OH252489   6.107   5.434   3.267 -0.0791 -0.3942 -0.1077
10333TIP3    H152490   6.111   5.459   3.175 -0.4100 -0.6635 -0.1972
10333TIP3    H252491   6.156   5.502   3.313 -0.8935  0.3672 -0.3570
10334TIP3   OH252492   6.422   0.746  17.058 -0.0597  0.1946 -0.8103
10334TIP3    H152493   6.494   0.702  17.012  0.8681  1.0078 -0.1640
10334TIP3    H252494   6.346   0.733  17.002  0.7933  0.0988 -1.9654
10335TIP3   OH252495   3.437   1.927   4.112 -0.1347 -0.4737 -0.7821
10335TIP3    H152496   3.463   1.859   4.175  1.3940  1.0819  0.2868
10335TIP3    H252497   3.341   1.922   4.111 -0.2073 -0.3746  1.8508
10336TIP3   OH252498   0.285   1.653  15.519 -0.2560  0.1033 -0.4720
10336TIP3    H152499   0.379   1.673  15.523 -0.5548  2.1060 -2.3623
10336TIP3    H252500   0.281   1.557  15.521  1.7266  0.0247  1.1692
10337TIP3   OH252501   1.837   1.764  14.752 -0.6066 -0.1115 -0.8254
10337TIP3    H152502   1.878   1.813  14.681  2.7299 -1.7479 -0.1014
10337TIP3    H252503   1.813   1.832  14.816  0.8582  0.9223 -1.3316
10338TIP3   OH252504   3.662   3.414   1.112  0.6729 -0.0050 -0.6506
10338TIP3    H152505   3.699   3.347   1.170  0.6112  0.5924  0.0895
10338TIP3    H252506   3.735   3.441   1.057  0.0587 -2.7127 -2.9448
10339TIP3   OH252507   0.573   5.524  16.683 -0.2208  0.7184  0.6256
10339TIP3    H152508   0.626   5.510  16.605 -0.8947 -0.2786  0.3340
10339TIP3    H252509   0.563   5.619  16.689  0.8698  0.8678  0.2074
10340TIP3   OH252510   6.807   3.632  10.287 -0.0784  0.2312 -0.1959
10340TIP3    H152511   6.780   3.688  10.214  1.3707 -1.5862 -2.1943
10340TIP3    H252512   6.780   3.680  10.365 -3.1979  1.4508 -1.9304
10341TIP3   OH252513   6.090   0.932  14.946  0.1462  0.2743  0.5400
10341TIP3    H152514   6.121   0.842  14.953 -0.5909  0.0159  0.4939
10341TIP3    H252515   6.130   0.965  14.866  1.3446  0.3601  1.1659
10342TIP3   OH252516   4.067   2.728  15.017 -0.0871 -0.2610 -0.1519
10342TIP3    H152517   4.025   2.812  15.000  1.0717  0.4714  0.5645
10342TIP3    H252518   4.073   2.724  15.113  0.4833 -0.8477 -0.2126
10343TIP3   OH252519   3.837   2.468   3.815  0.2498 -0.0219  0.2396
10343TIP3    H152520   3.808   2.416   3.889 -1.2812  2.6997  1.6487
10343TIP3    H252521   3.763   2.466   3.754  0.0928  0.6744  0.4043
10344TIP3   OH252522   0.962   0.227  12.833 -0.6985 -0.2952 -0.1226
10344TIP3    H152523   0.950   0.207  12.925 -1.2370 -2.1808 -0.5751
10344TIP3    H252524   0.923   0.152  12.787 -1.4889  1.1494 -1.8836
10345TIP3   OH252525   5.019   3.917  11.739 -0.0515 -0.5782  0.1607
10345TIP3    H152526   5.059   3.944  11.657 -0.6276  1.0037  0.3764
10345TIP3    H252527   5.017   3.822  11.735 -1.0404 -0.4973 -2.1205
10346TIP3   OH252528   0.605   0.809  14.145  0.1236 -0.6296 -0.5560
10346TIP3    H152529   0.530   0.849  14.189 -0.5731 -0.2342 -2.0553
10346TIP3    H252530   0.569   0.777  14.062  0.9244 -3.3612  0.1362
10347TIP3   OH252531   2.921   1.416  14.949  0.0962 -0.0148  0.0984
10347TIP3    H152532   2.947   1.472  14.876 -1.0927  0.4025 -0.0176
10347TIP3    H252533   3.003   1.399  14.996  0.3794  2.4922  0.5941
10348TIP3   OH252534   2.458   3.367  13.025 -0.2352 -0.3480  0.2342
10348TIP3    H152535   2.408   3.286  13.036 -0.6223 -0.2562 -0.7798
10348TIP3    H252536   2.431   3.423  13.098 -1.8390 -0.1866 -0.4710
10349TIP3   OH252537   1.644   0.617   2.345 -0.3219 -0.6805  0.0132
10349TIP3    H152538   1.609   0.655   2.426 -0.5070  0.2619 -0.5075
10349TIP3    H252539   1.639   0.688   2.281  2.1420 -0.6772 -0.1967
10350TIP3   OH252540   3.565   4.047   3.420 -0.3637 -0.1985  0.0437
10350TIP3    H152541   3.507   4.084   3.354 -1.4293 -1.5132  0.2094
10350TIP3    H252542   3.638   4.109   3.426 -1.4835  1.2015 -0.5540
10351TIP3   OH252543   5.444   2.332  13.948 -0.1816  0.0846  0.4708
10351TIP3    H152544   5.504   2.313  14.020  0.0899  0.6911  0.4076
10351TIP3    H252545   5.419   2.246  13.914  0.2428 -0.1833  0.8376
10352TIP3   OH252546   2.825   4.780  13.846 -0.0033 -0.4563  0.2270
10352TIP3    H152547   2.858   4.741  13.927  0.2333  0.8638  0.7784
10352TIP3    H252548   2.884   4.853  13.829 -2.5058  1.8284  1.1066
10353TIP3   OH252549   3.078   0.796  10.406  0.6284 -0.7494  0.0683
10353TIP3    H152550   3.102   0.764  10.493 -1.5710 -0.9012  0.6673
10353TIP3    H252551   3.063   0.717  10.354 -0.7520 -0.6982  0.3631
10354TIP3   OH252552   3.072   6.764  11.888 -0.7981 -0.0673  0.5087
10354TIP3    H152553   3.109   6.802  11.808 -0.5365 -0.5640  0.3949
10354TIP3    H252554   3.045   6.676  11.862 -0.7720 -0.2053  0.9562
10355TIP3   OH252555   1.812   5.182  17.187  0.1988  0.0718 -0.0978
10355TIP3    H152556   1.719   5.176  17.207 -0.0532  0.8551 -0.9632
10355TIP3    H252557   1.816   5.172  17.091  1.0508 -0.4707 -0.0059
10356TIP3   OH252558   5.588   6.696  14.264 -0.0025 -0.0785 -0.2373
10356TIP3    H152559   5.680   6.704  14.289 -0.1017  0.7099 -0.1177
10356TIP3    H252560   5.551   6.783  14.280 -0.9647 -0.6121  0.5319
10357TIP3   OH252561   5.856   1.168  11.751  0.3145  0.1194 -0.1287
10357TIP3    H152562   5.853   1.258  11.783 -0.6592 -0.5472  1.6955
10357TIP3    H252563   5.948   1.143  11.762  0.1695  0.1916  1.3786
10358TIP3   OH252564   1.772   0.126  16.307  0.1562 -0.4845 -0.4122
10358TIP3    H152565   1.759   0.216  16.338 -0.0602 -0.3994 -0.7488
10358TIP3    H252566   1.739   0.071  16.379 -2.2522 -0.2642 -1.3194
10359TIP3   OH252567   6.073   0.703  11.869  0.5413 -0.0778  0.3476
10359TIP3    H152568   6.042   0.699  11.779  0.1406  1.3041  0.4019
10359TIP3    H252569   6.103   0.615  11.889 -1.5712 -0.9749 -0.3601
10360TIP3   OH252570   6.295   6.206  12.987 -0.1492 -0.3111 -0.2290
10360TIP3    H152571   6.333   6.119  12.982  1.4603  0.2588  1.6215
10360TIP3    H252572   6.365   6.265  12.957 -1.3899  0.3363 -1.9754
10361TIP3   OH252573   4.815   5.714  16.050  0.0444  0.2068 -0.2603
10361TIP3    H152574   4.806   5.687  16.141  1.7874  1.3657  0.2740
10361TIP3    H252575   4.844   5.635  16.004 -0.4729 -0.2801  0.2466
10362TIP3   OH252576   1.502   5.034   4.433 -0.1706 -0.5571 -0.0770
10362TIP3    H152577   1.428   4.991   4.477  0.2810 -1.0954  0.1628
10362TIP3    H252578   1.500   4.998   4.344  0.3851 -1.2963  0.2094
10363TIP3   OH252579   6.070   6.357   4.317  0.3676 -0.0494 -0.4342
10363TIP3    H152580   6.034   6.413   4.386  1.3568  1.9275 -1.4765
10363TIP3    H252581   5.995   6.339   4.260 -0.5869 -2.1898  1.4286
10364TIP3   OH252582   2.798   5.619  12.650  1.1731  0.1423 -0.2776
10364TIP3    H152583   2.857   5.587  12.581  1.7290 -1.4458  0.9176
10364TIP3    H252584   2.853   5.674  12.705  1.1118  0.0717 -0.1468
10365TIP3   OH252585   4.519   2.013   4.121 -0.1759 -0.0177  0.0640
10365TIP3    H152586   4.576   2.071   4.172 -0.2473  1.9340 -1.9913
10365TIP3    H252587   4.577   1.946   4.087  0.1874 -0.2811  1.1860
10366TIP3   OH252588   4.036   5.788   5.788 -0.3453 -0.3673 -0.3065
10366TIP3    H152589   4.119   5.742   5.801 -0.5037 -0.7523 -0.6652
10366TIP3    H252590   4.026   5.842   5.867  0.6497  0.3188 -0.6385
10367TIP3   OH252591   2.167   1.811   2.781 -0.2916  0.3880  0.2356
10367TIP3    H152592   2.206   1.723   2.785 -2.8639 -0.7665  0.6879
10367TIP3    H252593   2.222   1.863   2.840  1.2216 -0.9208  0.0370
10368TIP3   OH252594   6.139   4.416   0.325  0.5018  0.5183 -0.0725
10368TIP3    H152595   6.075   4.487   0.331 -0.3091 -0.2697  0.8709
10368TIP3    H252596   6.089   4.342   0.290  1.5309  0.6144 -1.8605
10369TIP3   OH252597   4.977   3.877   0.872 -0.1940  0.0258  0.6173
10369TIP3    H152598   4.984   3.807   0.807 -0.3276 -1.2147  1.9072
10369TIP3    H252599   4.980   3.958   0.821 -0.9059 -0.9284 -0.9754
10370TIP3   OH252600   4.812   6.084   2.396 -0.6328 -0.5467 -0.0149
10370TIP3    H152601   4.854   6.112   2.477  0.2815  0.0063 -0.6687
10370TIP3    H252602   4.839   5.993   2.385 -0.7504 -0.6182  0.2994
10371TIP3   OH252603   1.058   5.609   2.259 -1.2945 -0.5391 -0.3539
10371TIP3    H152604   1.047   5.703   2.277 -0.1387 -0.3901 -0.4277
10371TIP3    H252605   1.073   5.569   2.344  1.2746 -0.2290 -0.6329
10372TIP3   OH252606   2.665   2.541   0.527 -0.0966 -0.1789  0.1413
10372TIP3    H152607   2.626   2.584   0.602 -1.1038 -0.4719 -0.2001
10372TIP3    H252608   2.683   2.612   0.465  0.6701  0.0519  0.6341
10373TIP3   OH252609   4.465   2.784   0.314 -0.2732 -0.1353 -0.2124
10373TIP3    H152610   4.402   2.849   0.285 -0.5730 -0.4322 -0.2326
10373TIP3    H252611   4.497   2.816   0.398 -1.2929 -0.5544  0.3335
10374TIP3   OH252612   3.062   5.373   4.639  0.3254 -0.7786 -0.6452
10374TIP3    H152613   3.100   5.427   4.708  2.5393 -1.6581 -1.1217
10374TIP3    H252614   2.986   5.423   4.609  0.9362  0.9355  0.5435
10375TIP3   OH252615   5.417   2.701   1.873  0.2207  0.1265  0.1037
10375TIP3    H152616   5.358   2.630   1.900 -0.9901  1.5078  1.2059
10375TIP3    H252617   5.391   2.719   1.783 -0.5328  0.2166  0.3332
10376TIP3   OH252618   2.093   3.789  16.981 -0.1947 -0.4155 -0.4495
10376TIP3    H152619   2.130   3.732  16.914  0.5434 -1.3775  0.7740
10376TIP3    H252620   2.141   3.769  17.061 -2.0469 -0.3225  0.7371
10377TIP3   OH252621   4.842   4.380  11.280 -0.2659 -0.1926 -0.0863
10377TIP3    H152622   4.922   4.328  11.266 -1.1203 -1.5351 -0.0077
10377TIP3    H252623   4.848   4.410  11.371 -0.2312 -0.9337  0.1542
10378TIP3   OH252624   2.318   2.492  14.196 -0.1985 -0.6565 -0.1229
10378TIP3    H152625   2.259   2.528  14.129 -3.8167 -2.6518  1.8027
10378TIP3    H252626   2.310   2.553  14.270  0.2361 -0.9026  0.1266
10379TIP3   OH252627   6.215   6.621  14.152 -0.2470  0.1935 -0.1388
10379TIP3    H152628   6.300   6.644  14.190  0.0386 -0.1986 -0.5285
10379TIP3    H252629   6.172   6.705  14.138 -0.3330  0.3436  0.9889
10380TIP3   OH252630   2.513   3.108  12.549  0.0069 -0.3829 -0.3387
10380TIP3    H152631   2.563   3.084  12.627 -0.8349  0.8874  0.5983
10380TIP3    H252632   2.577   3.149  12.491  0.6274 -1.3067 -0.3137
10381TIP3   OH252633   5.308   5.257  12.265  0.5573 -0.5244  0.0772
10381TIP3    H152634   5.331   5.225  12.352  0.4876  2.9522  1.4514
10381TIP3    H252635   5.213   5.245  12.261  0.7091 -1.7671  0.0074
10382TIP3   OH252636   0.355   0.813  12.157  0.0837  0.2885  0.3976
10382TIP3    H152637   0.326   0.874  12.089 -0.0703 -0.2849 -0.0545
10382TIP3    H252638   0.301   0.835  12.234  0.0992  0.7838  0.2719
10383TIP3   OH252639   1.403   4.926  17.049  0.5094 -0.4486 -0.0503
10383TIP3    H152640   1.362   4.956  16.968  2.4332 -0.1990 -0.9597
10383TIP3    H252641   1.403   5.002  17.107  3.0015  0.6336 -1.3973
10384TIP3   OH252642   3.517   4.620  11.648 -0.8443 -0.2193 -0.5334
10384TIP3    H152643   3.582   4.690  11.644 -0.4441 -0.4286  1.7057
10384TIP3    H252644   3.473   4.623  11.563 -0.6278  2.5281 -0.5887
10385TIP3   OH252645   3.743   3.510   4.381 -0.0794  0.0931  0.5445
10385TIP3    H152646   3.748   3.601   4.352  2.2397 -0.0406  0.4614
10385TIP3    H252647   3.654   3.483   4.358 -0.4670  2.0251 -0.3512
10386TIP3   OH252648   4.420   3.036   5.942 -0.1699  0.6733  0.3274
10386TIP3    H152649   4.414   3.011   5.850 -1.7413 -0.6610  0.7687
10386TIP3    H252650   4.342   3.091   5.957 -0.5228 -0.0309  1.1259
10387TIP3   OH252651   2.636   2.737   4.131 -0.4824  0.4935 -0.6584
10387TIP3    H152652   2.644   2.831   4.146  2.9050  0.3203 -0.9174
10387TIP3    H252653   2.670   2.723   4.043  2.8334 -1.3653  0.7969
10388TIP3   OH252654   3.459   0.918  17.049  0.6762 -0.1925  0.0030
10388TIP3    H152655   3.497   0.867  16.978 -0.5941 -0.7605 -0.2847
10388TIP3    H252656   3.448   0.855  17.120 -0.4144 -0.2044 -0.1735
10389TIP3   OH252657   6.005   3.564  13.243 -0.2956  0.3687 -0.0335
10389TIP3    H152658   5.957   3.645  13.225  0.5118  1.1638  1.3121
10389TIP3    H252659   6.049   3.544  13.160 -0.3644  1.4066 -0.3260
10390TIP3   OH252660   1.075   4.404   6.148  0.1881  0.7130 -0.0966
10390TIP3    H152661   1.160   4.447   6.144  0.6864 -0.3158 -0.5458
10390TIP3    H252662   1.031   4.429   6.067  0.6514  0.0286 -0.5669
10391TIP3   OH252663   2.547   3.421  16.237 -0.1081  0.3625  0.1316
10391TIP3    H152664   2.518   3.419  16.328 -0.5496  0.8679  0.0073
10391TIP3    H252665   2.528   3.334  16.203  2.2998 -0.6336  1.1934
10392TIP3   OH252666   3.459   2.075   1.380 -0.3848  0.2210  0.4200
10392TIP3    H152667   3.480   2.163   1.349 -0.2477  0.4744  1.2282
10392TIP3    H252668   3.393   2.043   1.319  1.6398 -0.2268 -1.6275
10393TIP3   OH252669   1.780   3.491   5.736 -0.0545  0.5283  0.5537
10393TIP3    H152670   1.838   3.544   5.681 -1.2250  0.0076 -1.2194
10393TIP3    H252671   1.832   3.414   5.758  0.3649  0.6466 -0.0049
10394TIP3   OH252672   0.941   6.630  11.848  0.3367 -0.0414 -0.3818
10394TIP3    H152673   1.005   6.669  11.788  0.6038 -0.0901 -0.1325
10394TIP3    H252674   0.863   6.615  11.794  0.7409 -0.5352 -0.8380
10395TIP3   OH252675   2.645   4.763   1.195 -0.0344 -0.2152  0.3335
10395TIP3    H152676   2.668   4.720   1.113 -0.2913 -1.2007  0.7716
10395TIP3    H252677   2.728   4.797   1.228 -0.0804  1.0545 -0.8166
10396TIP3   OH252678   2.778   3.566   1.426 -0.7315 -0.1044  0.4334
10396TIP3    H152679   2.786   3.631   1.497  0.1186  0.8197 -0.4953
10396TIP3    H252680   2.795   3.482   1.469  0.5792  0.5245  1.1844
10397TIP3   OH252681   0.921   0.596   2.410  0.3471 -0.0986 -0.6243
10397TIP3    H152682   0.898   0.642   2.490  1.3624  0.3499 -0.5752
10397TIP3    H252683   0.941   0.665   2.347 -0.5488 -0.4465 -1.3020
10398TIP3   OH252684   6.284   3.439  15.943 -0.0077 -0.0466 -0.0505
10398TIP3    H152685   6.326   3.456  15.858  2.0558 -0.6908  0.8212
10398TIP3    H252686   6.240   3.355  15.932  0.8111 -0.4422 -0.2696
10399TIP3   OH252687   3.605   1.891  11.466 -0.4382  0.4915 -0.2251
10399TIP3    H152688   3.594   1.984  11.485  0.9571  0.8087 -0.8611
10399TIP3    H252689   3.630   1.888  11.373 -0.1414 -0.4823 -0.1204
10400TIP3   OH252690   1.995   6.664   6.565 -0.1754  0.2298 -0.0122
10400TIP3    H152691   2.058   6.736   6.566 -0.6935  0.6765  1.9026
10400TIP3    H252692   2.026   6.606   6.495  0.7180  1.8813 -1.0196
10401TIP3   OH252693   6.145   3.357   3.708 -0.1733 -1.1063 -0.3266
10401TIP3    H152694   6.091   3.282   3.732 -1.9780 -0.1256 -1.1526
10401TIP3    H252695   6.142   3.415   3.784 -3.7395  0.8087 -1.7865
10402TIP3   OH252696   2.235   2.326  16.205  0.3505  0.5251  0.9093
10402TIP3    H152697   2.142   2.345  16.217  0.0219 -0.3186 -0.1395
10402TIP3    H252698   2.280   2.379  16.270 -0.9065  0.5940  1.7220
10403TIP3   OH252699   1.496   4.228  13.719  0.4232  0.0924 -1.0822
10403TIP3    H152700   1.572   4.188  13.761 -1.8173 -1.4468  1.7104
10403TIP3    H252701   1.495   4.191  13.631  1.4195 -1.9695 -0.2659
10404TIP3   OH252702   4.084   6.564   1.079 -0.0357  0.2168  0.1025
10404TIP3    H152703   4.038   6.639   1.041  0.2036  0.2814 -0.0617
10404TIP3    H252704   4.148   6.602   1.139  1.9496  0.2983 -1.9813
10405TIP3   OH252705   3.753   1.298  14.116 -0.2832  0.1053  0.5669
10405TIP3    H152706   3.785   1.374  14.069  0.0856  0.1582  0.8974
10405TIP3    H252707   3.796   1.303  14.202  0.6420 -1.0880  0.1868
10406TIP3   OH252708   5.749   3.489  13.927  0.2529  0.6049 -0.2572
10406TIP3    H152709   5.724   3.397  13.929 -0.2931  0.7290 -1.1184
10406TIP3    H252710   5.794   3.503  14.010  0.5565 -0.4987 -0.2210
10407TIP3   OH252711   5.121   3.795   4.803 -0.6040  0.5143  0.3309
10407TIP3    H152712   5.162   3.708   4.800 -0.5059  0.5922 -3.1704
10407TIP3    H252713   5.193   3.856   4.816 -0.2580  0.2885 -0.5188
10408TIP3   OH252714   3.888   0.866   0.325  0.1472  0.7083  0.2154
10408TIP3    H152715   3.867   0.788   0.273 -1.8155  1.3156  0.0662
10408TIP3    H252716   3.938   0.922   0.266 -1.6300  1.1751 -0.8888
10409TIP3   OH252717   3.946   4.891  11.563 -0.0650 -0.6131 -0.5855
10409TIP3    H152718   3.962   4.877  11.656  3.4850  0.5365 -0.9546
10409TIP3    H252719   3.941   4.987  11.554 -1.8882 -0.7680 -1.3713
10410TIP3   OH252720   2.507   2.681   0.735  0.0559 -0.4616 -0.1994
10410TIP3    H152721   2.524   2.754   0.675 -0.6071 -0.5799 -0.5308
10410TIP3    H252722   2.488   2.722   0.819 -1.4499 -0.2148 -0.6591
10411TIP3   OH252723   4.683   6.185  15.315  0.3298 -0.1613 -0.5838
10411TIP3    H152724   4.598   6.146  15.295  1.4296 -2.6404 -0.5523
10411TIP3    H252725   4.696   6.168  15.408  1.0181 -0.1101 -0.6674
10412TIP3   OH252726   1.062   5.378   3.655  0.6634  0.2500 -0.0913
10412TIP3    H152727   1.117   5.441   3.702  2.4930 -0.5901 -1.0208
10412TIP3    H252728   1.121   5.305   3.637 -0.6891 -0.5256 -1.4341
10413TIP3   OH252729   2.945   1.963   0.541 -0.0820  0.6161 -0.0177
10413TIP3    H152730   2.897   1.980   0.623  0.9991 -0.7979  0.9331
10413TIP3    H252731   2.888   1.997   0.472 -0.8640  2.1474  1.3463
10414TIP3   OH252732   5.238   5.648  14.539  0.4943 -0.3135 -0.1031
10414TIP3    H152733   5.259   5.560  14.571 -1.4098 -0.9311 -0.5499
10414TIP3    H252734   5.148   5.663  14.565  0.5835  1.2558 -0.6248
10415TIP3   OH252735   5.792   0.030   3.528 -0.3965  0.1128 -0.1377
10415TIP3    H152736   5.761  -0.033   3.463  0.3075 -0.7987  0.3893
10415TIP3    H252737   5.752   0.113   3.503 -0.4265 -0.3058 -1.5124
10416TIP3   OH252738   2.767   3.129   6.332  0.3048 -0.6333 -0.8207
10416TIP3    H152739   2.836   3.190   6.304 -0.6840  0.3771 -1.0701
10416TIP3    H252740   2.781   3.119   6.426  0.3286  0.1459 -0.7421
10417TIP3   OH252741   4.912   6.213   1.327 -0.0423 -0.2782 -0.0674
10417TIP3    H152742   4.898   6.218   1.232 -0.7654  0.3773  0.0636
10417TIP3    H252743   4.986   6.154   1.337  0.6395  0.3667 -1.0943
10418TIP3   OH252744   3.646   3.320   5.885  0.3761 -0.1425 -0.1511
10418TIP3    H152745   3.686   3.266   5.817  2.7784  1.9811 -0.5215
10418TIP3    H252746   3.592   3.260   5.936  1.8798 -2.5912 -1.3784
10419TIP3   OH252747   6.017   5.653   0.936 -0.0258 -0.2121 -0.1731
10419TIP3    H152748   6.038   5.735   0.980 -0.0047 -0.6906  0.7149
10419TIP3    H252749   6.089   5.594   0.960 -0.2248 -0.5963 -0.5149
10420TIP3   OH252750   3.944   5.725   3.364  0.0040 -0.0512 -0.1386
10420TIP3    H152751   3.934   5.654   3.427 -0.5993 -0.2067 -0.4088
10420TIP3    H252752   3.965   5.681   3.281 -0.2788  0.0866 -0.2853
10421TIP3   OH252753   1.889   3.570  11.807  0.4421 -0.0747 -0.1548
10421TIP3    H152754   1.949   3.516  11.858 -0.1447  0.8713  1.5926
10421TIP3    H252755   1.808   3.519  11.803 -0.1535  0.6878  1.6056
10422TIP3   OH252756   6.434   2.830   3.708  0.0549 -0.0289 -0.5311
10422TIP3    H152757   6.473   2.808   3.623  2.1492  0.3142  0.2917
10422TIP3    H252758   6.509   2.855   3.762 -1.1946 -0.8332  1.6100
10423TIP3   OH252759   1.938   1.202  16.973  0.1580 -0.1690  0.4522
10423TIP3    H152760   2.030   1.200  17.001  1.0565  0.0493 -2.3150
10423TIP3    H252761   1.912   1.110  16.970  1.4707 -0.4919 -2.3441
10424TIP3   OH252762   2.774   4.965  15.385  0.0954  0.1548 -0.8651
10424TIP3    H152763   2.857   5.007  15.406 -0.4226  1.6225 -1.6915
10424TIP3    H252764   2.754   4.994  15.296 -2.8231  2.3884  0.4388
10425TIP3   OH252765   6.357   5.984  11.087  0.1909  0.2180  0.3563
10425TIP3    H152766   6.424   6.046  11.118  0.7948  0.0836 -0.6566
10425TIP3    H252767   6.294   5.979  11.159 -0.1264  2.3910  0.2470
10426TIP3   OH252768   1.584   0.034  13.745 -0.1816  0.0012  0.1135
10426TIP3    H152769   1.517   0.102  13.749 -0.5171 -0.1794 -2.1348
10426TIP3    H252770   1.579  -0.001  13.656  2.3207 -0.5995  0.1539
10427TIP3   OH252771   2.906   1.269   5.363 -0.3446 -0.1237 -0.3258
10427TIP3    H152772   2.900   1.251   5.269 -2.0409  1.4343 -0.5451
10427TIP3    H252773   2.817   1.293   5.389  0.4944  1.3587  1.2843
10428TIP3   OH252774   1.247   1.211  14.223 -0.1563  0.3353 -0.6507
10428TIP3    H152775   1.162   1.172  14.202  0.0328  0.2104 -1.1799
10428TIP3    H252776   1.240   1.301  14.191 -0.0081  0.2607 -0.8880
10429TIP3   OH252777   2.278   3.309  14.822  0.2482 -0.1331  0.0335
10429TIP3    H152778   2.362   3.330  14.782  0.8288  0.2728  1.4399
10429TIP3    H252779   2.301   3.267  14.905 -0.9248 -2.3349 -0.7268
10430TIP3   OH252780   0.417   4.036  12.962  0.2923  0.1553 -0.3488
10430TIP3    H152781   0.377   3.975  13.023 -0.3942  0.9559  0.0168
10430TIP3    H252782   0.470   3.981  12.904  0.5224 -0.6621  0.6211
10431TIP3   OH252783   6.292   0.797   0.699  0.0243  0.1045  1.0111
10431TIP3    H152784   6.374   0.756   0.726  2.8368  2.7144 -3.1220
10431TIP3    H252785   6.283   0.873   0.756  2.8182  2.2428 -1.2788
10432TIP3   OH252786   6.051   0.812   4.684  0.2450 -0.1563  0.2245
10432TIP3    H152787   6.026   0.822   4.775 -0.0749 -0.5055  0.1782
10432TIP3    H252788   6.119   0.878   4.670  1.7562 -1.4598  1.2529
10433TIP3   OH252789   0.609   3.856  16.436  0.3510  0.4361 -0.4380
10433TIP3    H152790   0.609   3.781  16.376  0.9834 -0.0914  0.2294
10433TIP3    H252791   0.520   3.890  16.430  0.3961  0.3832 -1.6788
10434TIP3   OH252792   1.919   3.545  16.973  0.1787  0.0389 -0.3313
10434TIP3    H152793   1.861   3.469  16.972  0.0183  0.1457  0.7017
10434TIP3    H252794   1.884   3.601  17.043 -0.3432  1.5526 -1.7694
10435TIP3   OH252795   5.310   2.410  16.916 -0.5137 -0.3971  0.8828
10435TIP3    H152796   5.338   2.324  16.946  0.0646 -0.6464 -0.3424
10435TIP3    H252797   5.369   2.430  16.843 -1.3800  0.5352  0.4338
10436TIP3   OH252798   0.185   2.074   4.914  0.2809  0.0844 -0.5616
10436TIP3    H152799   0.149   2.138   4.853 -2.2820 -0.7434  0.0231
10436TIP3    H252800   0.119   2.004   4.918  1.9997 -1.5266  0.4929
10437TIP3   OH252801   6.247   2.739   4.344 -0.0043 -1.0093 -0.3961
10437TIP3    H152802   6.206   2.716   4.428  0.8257  0.3537  0.3926
10437TIP3    H252803   6.314   2.672   4.332  1.2221 -0.0588  1.0346
10438TIP3   OH252804   4.225   0.767   2.664  0.7022 -0.8607  0.8688
10438TIP3    H152805   4.140   0.725   2.651  0.3679  0.2848 -1.0171
10438TIP3    H252806   4.282   0.724   2.600  0.7988  0.2707  0.1714
10439TIP3   OH252807   6.261   6.449  11.961 -0.1730 -0.4326  0.2180
10439TIP3    H152808   6.278   6.543  11.959 -1.0392 -0.2729 -0.1564
10439TIP3    H252809   6.301   6.416  11.880 -0.8641 -0.1973 -0.2300
10440TIP3   OH252810   1.209   6.140   2.800 -0.3604 -0.3031  0.3661
10440TIP3    H152811   1.193   6.186   2.717  0.9434  0.3339  0.4585
10440TIP3    H252812   1.209   6.048   2.776  0.0651 -0.1219 -0.3552
10441TIP3   OH252813   4.752   0.803   5.483 -0.6943 -0.2546  0.5690
10441TIP3    H152814   4.803   0.726   5.506  0.1907  0.3393  0.5916
10441TIP3    H252815   4.781   0.871   5.543 -2.4909 -0.2804  1.5037
10442TIP3   OH252816   1.827   5.810  15.132  0.0783  0.4241  0.4718
10442TIP3    H152817   1.780   5.747  15.078  2.4523 -0.0698 -1.0751
10442TIP3    H252818   1.900   5.760  15.168  1.2769  1.9997  0.2321
10443TIP3   OH252819   6.370   5.298   2.065  0.2748  0.2630 -0.2170
10443TIP3    H152820   6.335   5.377   2.023  2.8008  1.8086  0.4534
10443TIP3    H252821   6.458   5.288   2.028  0.5567 -1.3904  0.8238
10444TIP3   OH252822   6.738   5.043   4.330 -0.1888 -0.0531  0.2355
10444TIP3    H152823   6.667   4.980   4.341  0.2645 -0.8685 -1.4349
10444TIP3    H252824   6.702   5.110   4.273  0.3593 -0.4508 -0.5868
10445TIP3   OH252825   6.495   6.400  12.954  0.1079 -0.4170 -0.3178
10445TIP3    H152826   6.488   6.364  12.866  1.5493  1.4299 -1.2124
10445TIP3    H252827   6.549   6.337  13.002 -0.4586 -1.2933 -0.8347
10446TIP3   OH252828   6.497   3.256   2.928 -0.0328 -0.3719  0.9354
10446TIP3    H152829   6.573   3.300   2.967 -0.0574  0.3538  0.1815
10446TIP3    H252830   6.429   3.323   2.927 -0.9305 -1.2435  2.2957
10447TIP3   OH252831   5.994   2.438   3.181 -0.0378  0.3789 -0.1245
10447TIP3    H152832   5.918   2.482   3.220  0.2230  0.2167  0.5691
10447TIP3    H252833   5.977   2.345   3.191  0.5137  0.3461  0.5398
10448TIP3   OH252834   5.465   4.598   1.317  0.5812  0.2775  0.4118
10448TIP3    H152835   5.424   4.515   1.341 -1.6395  1.6296  1.4270
10448TIP3    H252836   5.404   4.665   1.348  3.5646  2.3703  1.9402
10449TIP3   OH252837   0.767   4.335   5.411 -0.0318 -0.6675  0.0933
10449TIP3    H152838   0.707   4.260   5.408 -0.2062 -0.5331  0.2180
10449TIP3    H252839   0.817   4.323   5.492 -0.3454 -0.4286  0.3207
10450TIP3   OH252840   1.887   1.369   1.627 -0.5625  0.1077  0.3644
10450TIP3    H152841   1.820   1.309   1.593 -1.1371  1.4991 -1.0146
10450TIP3    H252842   1.947   1.313   1.675 -2.1905 -1.3041  0.8121
10451TIP3   OH252843   5.916   2.474   3.885 -0.0425 -0.4843  0.0186
10451TIP3    H152844   5.973   2.431   3.949  1.5257 -1.8095 -2.2007
10451TIP3    H252845   5.832   2.428   3.893 -0.0288 -0.2877  1.4654
10452TIP3   OH252846   6.415   5.873   2.248  0.0973  0.5637  0.1041
10452TIP3    H152847   6.413   5.793   2.301  1.0854  0.8202  0.5327
10452TIP3    H252848   6.352   5.931   2.290 -0.2441  0.2018  0.0965
10453TIP3   OH252849   3.302   0.034   3.587  0.4413 -0.0722  0.0884
10453TIP3    H152850   3.216   0.023   3.547  1.7113  1.9000 -3.3793
10453TIP3    H252851   3.317   0.128   3.587  2.2371 -0.3270  1.5160
10454TIP3   OH252852   1.175   4.167   5.099 -0.0697  0.2427  0.2273
10454TIP3    H152853   1.152   4.139   5.188 -0.5992  1.8473  0.5955
10454TIP3    H252854   1.096   4.210   5.067 -0.0742 -0.8442 -1.2491
10455TIP3   OH252855   2.305   5.616  15.755  0.1830  0.4463  0.4357
10455TIP3    H152856   2.394   5.643  15.734  0.4520  0.3031  1.3418
10455TIP3    H252857   2.317   5.547  15.821 -0.5326 -0.7817 -0.6862
10456TIP3   OH252858   1.299   3.910   0.896 -0.5012  0.2807 -0.0828
10456TIP3    H152859   1.235   3.921   0.966 -1.2800  1.5837 -0.9737
10456TIP3    H252860   1.318   4.000   0.867  1.6328 -0.0850  0.0779
10457TIP3   OH252861   3.856   1.490  11.780 -1.2767 -0.4688 -0.1337
10457TIP3    H152862   3.839   1.559  11.844 -1.0515  0.4146 -1.0063
10457TIP3    H252863   3.810   1.519  11.701  0.8471 -0.0507 -1.2808
10458TIP3   OH252864   1.886   5.101  16.644 -0.2706  0.0617  0.3708
10458TIP3    H152865   1.798   5.064  16.638 -0.8338  1.5199 -0.6707
10458TIP3    H252866   1.945   5.026  16.638 -1.3855 -0.6882 -1.4693
10459TIP3   OH252867   2.839   3.123  16.917  0.1213 -0.1901  0.0285
10459TIP3    H152868   2.765   3.063  16.923 -1.1359  1.3360  0.3000
10459TIP3    H252869   2.834   3.160  16.829  0.5542 -0.0928  0.0427
10460TIP3   OH252870   4.107   1.276  14.039 -0.1284  0.2015 -0.0910
10460TIP3    H152871   4.192   1.320  14.035  1.4889 -2.8272 -0.1363
10460TIP3    H252872   4.098   1.234  13.953  0.1018 -2.6033  1.2069
10461TIP3   OH252873   3.915   1.814   4.005 -0.1845 -0.5657  0.6653
10461TIP3    H152874   3.896   1.785   4.094  1.3370 -1.8493  0.6078
10461TIP3    H252875   3.971   1.745   3.969  0.7293  0.8210 -0.6561
10462TIP3   OH252876   4.384   5.725   3.765  0.0732  0.1845 -0.2347
10462TIP3    H152877   4.324   5.690   3.830 -0.3229  0.5587 -0.4035
10462TIP3    H252878   4.453   5.658   3.759 -0.5127 -0.4224 -0.3167
10463TIP3   OH252879   1.664   1.944  11.451  1.0214  0.2701  0.0546
10463TIP3    H152880   1.696   1.861  11.488  1.8742  0.7425  0.3845
10463TIP3    H252881   1.649   1.924  11.358 -2.5001 -1.3087  0.9041
10464TIP3   OH252882   3.406   2.160   4.897 -0.8707 -0.0240 -0.4593
10464TIP3    H152883   3.447   2.245   4.913  1.8483 -0.8330 -2.7144
10464TIP3    H252884   3.459   2.098   4.947 -0.1458 -0.9090 -2.2888
10465TIP3   OH252885   5.015   3.928   1.478 -0.0188  0.1954 -0.6371
10465TIP3    H152886   5.086   3.887   1.428  2.5218 -0.0885  3.0287
10465TIP3    H252887   4.989   3.862   1.542  0.0216  2.1368  1.4580
10466TIP3   OH252888   3.353   0.206   1.961 -0.2086 -0.3776  0.1424
10466TIP3    H152889   3.280   0.251   2.002 -0.0390  0.1802 -0.1714
10466TIP3    H252890   3.312   0.149   1.895 -0.4188 -0.6920  0.5388
10467TIP3   OH252891   6.580   6.004   0.477 -0.3817 -0.3058  0.4152
10467TIP3    H152892   6.517   6.005   0.405  1.0340  3.1059 -0.8881
10467TIP3    H252893   6.527   6.009   0.556 -1.8617 -1.5140 -0.4781
10468TIP3   OH252894   3.223   2.879   4.080 -0.3683  0.3136  0.4200
10468TIP3    H152895   3.186   2.800   4.040  0.4909  0.1555 -0.0841
10468TIP3    H252896   3.268   2.847   4.158 -0.3570  0.3597  0.4320
10469TIP3   OH252897   3.762   2.450   2.451  0.3252  1.1499  0.2433
10469TIP3    H152898   3.729   2.367   2.484 -0.0293  0.9277 -0.6703
10469TIP3    H252899   3.851   2.430   2.422 -0.3656  0.6602 -1.6242
10470TIP3   OH252900   0.343   4.805   1.915 -0.5848  0.0888 -0.0632
10470TIP3    H152901   0.320   4.897   1.928  0.4072  0.2507  0.5942
10470TIP3    H252902   0.414   4.789   1.978  0.2951 -0.7051 -1.2377
10471TIP3   OH252903   2.107   3.007   3.181  0.4521  0.4048 -0.0751
10471TIP3    H152904   2.101   2.955   3.100  1.7271  1.9652 -1.1990
10471TIP3    H252905   2.198   3.001   3.207 -0.3464 -1.7537  2.4248
10472TIP3   OH252906   5.809   3.626  15.578 -0.0476  0.4240 -0.4506
10472TIP3    H152907   5.792   3.549  15.632  0.5393  0.6365  0.0545
10472TIP3    H252908   5.746   3.692  15.609 -0.1459  0.3398 -0.4715
10473TIP3   OH252909   0.660   2.550   2.854  0.1609  0.3495 -0.2213
10473TIP3    H152910   0.620   2.474   2.812  0.2847 -1.2630  2.4333
10473TIP3    H252911   0.740   2.566   2.803  0.0393 -1.1912 -0.9247
10474TIP3   OH252912   0.436   2.596  12.668  0.1022  0.2291 -0.7165
10474TIP3    H152913   0.491   2.657  12.620 -0.0660 -0.1363 -1.3736
10474TIP3    H252914   0.351   2.600  12.624 -0.2693  0.4460  0.0029
10475TIP3   OH252915   0.695   3.971   0.681  0.3727 -0.5444 -0.1312
10475TIP3    H152916   0.700   3.910   0.755  1.0957 -0.1321  0.1648
10475TIP3    H252917   0.609   3.955   0.643 -0.3773 -0.1446  1.3398
10476TIP3   OH252918   6.192   5.825  16.020  0.5082  0.2479 -0.3235
10476TIP3    H152919   6.171   5.758  16.085  1.0063  0.4829  0.0843
10476TIP3    H252920   6.282   5.851  16.041  0.5736  0.5245 -0.9315
10477TIP3   OH252921   5.541   0.576   3.170 -0.2887  0.0971  0.1971
10477TIP3    H152922   5.476   0.508   3.187  0.4695 -0.3486  1.4013
10477TIP3    H252923   5.494   0.641   3.119 -2.0283  0.3323  2.0189
10478TIP3   OH252924   3.966   2.284  17.284 -0.6452  0.5000  0.4918
10478TIP3    H152925   4.006   2.348  17.343 -1.4231  0.9895  0.4916
10478TIP3    H252926   3.873   2.290  17.302 -0.7433 -0.4687  0.3140
10479TIP3   OH252927   3.138   6.401  10.546 -0.1891  0.0968 -0.3671
10479TIP3    H152928   3.194   6.326  10.564  0.5240  0.7534  0.1865
10479TIP3    H252929   3.069   6.366  10.490 -1.4044 -1.5826  2.0728
10480TIP3   OH252930   1.312   1.188   4.289 -0.4945  0.2022  0.2734
10480TIP3    H152931   1.332   1.094   4.296  1.0770  0.4364 -0.9069
10480TIP3    H252932   1.266   1.208   4.370 -3.0133 -2.1188 -0.4822
10481TIP3   OH252933   0.701   3.193  10.381  0.5957 -0.1178  0.4975
10481TIP3    H152934   0.708   3.113  10.434 -1.5149 -0.5873  0.1253
10481TIP3    H252935   0.649   3.253  10.435 -1.0244 -0.3688 -0.7604
10482TIP3   OH252936   3.869   4.601  12.032 -0.1178 -0.2081  0.5066
10482TIP3    H152937   3.828   4.517  12.014  0.0456 -0.2587  0.3726
10482TIP3    H252938   3.839   4.658  11.961 -0.5239 -0.0550  0.8059
10483TIP3   OH252939   1.945   2.452   1.754 -0.1020 -0.0582 -0.3675
10483TIP3    H152940   1.937   2.453   1.849  0.3466  2.7737 -0.3170
10483TIP3    H252941   2.020   2.395   1.737 -0.0772 -0.4560  0.9809
10484TIP3   OH252942   0.747   4.861   1.490  0.1145  0.1294  0.1206
10484TIP3    H152943   0.840   4.874   1.509  0.5191 -0.8464 -1.1261
10484TIP3    H252944   0.703   4.928   1.542  1.7006  2.4972 -1.4810
10485TIP3   OH252945   3.623   0.364  10.911  0.1813  0.7674  0.0250
10485TIP3    H152946   3.597   0.444  10.956 -0.0969  0.0265  1.1930
10485TIP3    H252947   3.569   0.362  10.832 -0.8080  1.0255  0.6853
10486TIP3   OH252948   3.504   3.077  13.650  0.1240  0.2654  0.5125
10486TIP3    H152949   3.505   3.049  13.742 -0.9378 -3.5989 -0.5583
10486TIP3    H252950   3.412   3.096  13.632  0.4312  1.7072  0.4082
10487TIP3   OH252951   2.475   2.765  13.652  0.1371 -0.2099 -0.3629
10487TIP3    H152952   2.507   2.855  13.640  0.9624 -0.2137  1.7458
10487TIP3    H252953   2.380   2.775  13.662  0.2992  0.5058  0.5413
10488TIP3   OH252954   4.937   5.972  15.898 -0.3022 -0.1958  0.5589
10488TIP3    H152955   4.934   6.022  15.817 -0.4311  0.6185  1.0636
10488TIP3    H252956   4.860   6.001  15.947  0.7719  0.6496  1.7589
10489TIP3   OH252957   0.251   6.299   5.994  0.1064  0.2852  0.1243
10489TIP3    H152958   0.209   6.300   5.909 -0.0574 -1.1534  0.1837
10489TIP3    H252959   0.185   6.332   6.054 -0.0925  0.4062 -0.1628
10490TIP3   OH252960   2.308   2.740  12.490 -0.0152  0.0362 -0.3158
10490TIP3    H152961   2.285   2.830  12.514  2.5549  0.1378  2.0380
10490TIP3    H252962   2.273   2.687  12.562  0.8694 -0.5294 -0.2928
10491TIP3   OH252963   3.169   0.523   1.630  0.1655  0.2746  0.0642
10491TIP3    H152964   3.105   0.534   1.561 -0.3149  0.7203  0.5749
10491TIP3    H252965   3.254   0.533   1.587 -0.1662  1.9475 -0.2116
10492TIP3   OH252966   4.486   6.078  12.593 -0.3999  0.2460 -0.0181
10492TIP3    H152967   4.533   6.063  12.512  0.1780  0.2436  0.3178
10492TIP3    H252968   4.499   5.998  12.644 -0.2920  0.4689  0.3060
10493TIP3   OH252969   1.778   3.550   2.452 -0.4568  0.3137  0.4334
10493TIP3    H152970   1.741   3.591   2.530 -1.1751 -1.5618  1.0869
10493TIP3    H252971   1.734   3.465   2.446  0.0237  0.1990 -1.6774
10494TIP3   OH252972   2.814   4.376   0.156  0.3536 -0.4349 -0.6368
10494TIP3    H152973   2.839   4.369   0.064  2.2088  1.2998 -0.2869
10494TIP3    H252974   2.884   4.332   0.204 -1.0426 -2.1065 -0.0741
10495TIP3   OH252975   1.714   5.251   4.769  0.2833  0.0542 -1.1758
10495TIP3    H152976   1.689   5.189   4.701  0.8558 -1.3861 -0.1249
10495TIP3    H252977   1.786   5.207   4.816  0.8105  1.5874 -0.5069
10496TIP3   OH252978   0.566   6.336  11.377  0.0435 -0.6376  0.3110
10496TIP3    H152979   0.578   6.362  11.468 -0.6076 -2.4834  0.9619
10496TIP3    H252980   0.628   6.264  11.364  2.9879  2.1982 -1.9181
10497TIP3   OH252981   0.242   5.721   2.350  0.0918  0.7060 -0.5238
10497TIP3    H152982   0.332   5.712   2.317 -0.4711  1.4015 -2.3195
10497TIP3    H252983   0.248   5.697   2.442  1.7715 -1.1578 -1.0761
10498TIP3   OH252984   4.009   1.832   2.235 -0.4851  0.2087  0.3073
10498TIP3    H152985   4.053   1.869   2.312 -2.1941  0.7257  1.0577
10498TIP3    H252986   4.062   1.755   2.213  2.0773  2.0315 -0.1858
10499TIP3   OH252987   1.120   5.371  11.869 -0.1794 -0.2835  0.1343
10499TIP3    H152988   1.210   5.349  11.893 -0.5550 -2.0958 -0.0822
10499TIP3    H252989   1.066   5.315  11.924 -1.1751  0.6113  0.0771
10500TIP3   OH252990   0.184   3.261   4.172 -0.5794 -0.1271 -0.1334
10500TIP3    H152991   0.121   3.200   4.134 -0.2271 -0.3677 -0.3272
10500TIP3    H252992   0.179   3.338   4.117  0.1131 -0.5692 -0.8170
10501TIP3   OH252993   6.564   0.973   4.370 -0.1997 -0.3540 -0.0428
10501TIP3    H152994   6.650   0.952   4.333 -0.2510 -0.2958 -0.1952
10501TIP3    H252995   6.560   1.068   4.366 -0.2643 -0.3562 -0.0202
10502TIP3   OH252996   3.455   5.027  16.338 -0.0971 -0.1112 -0.2754
10502TIP3    H152997   3.435   5.084  16.412 -1.1312 -1.7966  0.7637
10502TIP3    H252998   3.524   5.073  16.290 -1.1624  2.1675  0.3362
10503TIP3   OH252999   2.743   2.389   5.892 -0.2457  0.0283 -0.5660
10503TIP3    H153000   2.820   2.356   5.846  1.4929  0.0706  2.2252
10503TIP3    H253001   2.719   2.468   5.844  1.1872 -0.1861 -1.6925
10504TIP3   OH253002   2.101   6.680  13.717  0.0421 -0.6661 -0.3128
10504TIP3    H153003   2.182   6.714  13.679 -0.1384 -2.7960 -2.7295
10504TIP3    H253004   2.130   6.621  13.786  0.4587  0.1189  0.2008
10505TIP3   OH253005   5.762   2.290  17.148 -0.5593 -0.1221  0.0937
10505TIP3    H153006   5.838   2.306  17.204  0.1139 -3.3932  0.2179
10505TIP3    H253007   5.792   2.310  17.060  0.0615 -0.2428  0.2800
10506TIP3   OH253008   1.096   2.756   6.650  0.4215 -0.2562 -0.5607
10506TIP3    H153009   1.011   2.763   6.608  0.4483  1.7963 -0.3102
10506TIP3    H253010   1.149   2.705   6.588 -0.2717  0.5808 -1.8795
10507TIP3   OH253011   3.752   4.712  15.290  0.8323  0.2518  0.0371
10507TIP3    H153012   3.738   4.741  15.200 -0.1021  2.4693  0.8461
10507TIP3    H253013   3.745   4.617  15.286  0.9836  0.3053 -2.2526
10508TIP3   OH253014   4.248   3.476  16.074  0.8254  0.0722 -0.3250
10508TIP3    H153015   4.192   3.552  16.092  0.0720 -0.1964 -1.5225
10508TIP3    H253016   4.319   3.511  16.019  0.7813  0.0105 -0.4200
10509TIP3   OH253017   3.874   5.669  10.841 -0.3174  0.8870  0.2462
10509TIP3    H153018   3.791   5.696  10.880 -0.2724 -0.8415  1.5721
10509TIP3    H253019   3.939   5.685  10.909  0.3880  1.7286 -0.6037
10510TIP3   OH253020   4.069   1.204  13.518  0.3306  0.4357 -0.2520
10510TIP3    H153021   4.090   1.296  13.537  0.0164  0.7343 -1.3300
10510TIP3    H253022   3.994   1.208  13.459 -2.5639 -0.6263  3.1871
10511TIP3   OH253023   2.245   4.004   0.728  0.2265  1.5420 -0.8401
10511TIP3    H153024   2.285   4.088   0.748 -2.1858  2.9817 -1.7829
10511TIP3    H253025   2.168   4.001   0.785 -0.3423  0.5095 -1.6477
10512TIP3   OH253026   5.399   3.018   0.311  0.6577 -0.6901 -0.0593
10512TIP3    H153027   5.321   3.040   0.362  0.6151  0.6668 -0.6964
10512TIP3    H253028   5.366   3.000   0.223  0.9941 -0.7560 -0.1746
10513TIP3   OH253029   2.134   3.833  14.730 -0.8473  0.0839  0.1962
10513TIP3    H153030   2.094   3.917  14.706  1.5181  0.4175 -2.9268
10513TIP3    H253031   2.102   3.771  14.665  1.6076 -0.2017 -0.7889
10514TIP3   OH253032   5.313   4.770   2.155  0.4578 -0.3845 -0.0477
10514TIP3    H153033   5.362   4.780   2.237  2.2651  2.1652 -1.3474
10514TIP3    H253034   5.224   4.797   2.176  0.4911 -1.4003  1.4517
10515TIP3   OH253035   3.367   4.721   5.285  0.1940 -0.5433 -0.2431
10515TIP3    H153036   3.426   4.648   5.269 -1.7850 -2.1757 -0.3901
10515TIP3    H253037   3.352   4.719   5.380  0.7771  0.2055 -0.1284
10516TIP3   OH253038   3.822   4.871   2.164 -0.1378  0.5004  0.4515
10516TIP3    H153039   3.729   4.893   2.159 -0.4117 -0.9000 -1.1285
10516TIP3    H253040   3.866   4.942   2.117 -0.5444  0.3625 -0.1382
10517TIP3   OH253041   5.730   1.982  12.314  0.0974  0.3837 -0.2567
10517TIP3    H153042   5.640   1.965  12.289  0.3112 -0.8608 -0.2262
10517TIP3    H253043   5.779   1.908  12.279  1.3476  1.7913 -1.5935
10518TIP3   OH253044   2.743   3.976  14.286  0.2358  0.0101  0.3973
10518TIP3    H153045   2.714   3.884  14.285  3.9072 -1.2039 -2.2929
10518TIP3    H253046   2.693   4.018  14.217 -0.4864 -0.2811  0.7393
10519TIP3   OH253047   4.176   4.645   1.651  0.2394  0.5051 -0.1297
10519TIP3    H153048   4.266   4.615   1.636  0.0429 -0.1623  0.0045
10519TIP3    H253049   4.185   4.736   1.678  0.6622  1.6898 -3.9690
10520TIP3   OH253050   2.059   2.003   1.699  0.5084 -0.1564  0.0875
10520TIP3    H153051   2.013   1.944   1.759  0.2252  0.5254  0.5345
10520TIP3    H253052   2.151   1.979   1.709  0.4112 -0.4194  0.3830
10521TIP3   OH253053   3.472   2.615  12.696  0.0306  0.2757 -0.0312
10521TIP3    H153054   3.564   2.608  12.670  0.4411  3.0189  0.5227
10521TIP3    H253055   3.443   2.524  12.708  2.3582 -0.6566 -1.2314
10522TIP3   OH253056   5.148   1.134   2.865  0.0639 -0.1228  0.4662
10522TIP3    H153057   5.185   1.136   2.953 -1.0399  1.1046  0.9156
10522TIP3    H253058   5.056   1.158   2.877 -0.6064 -1.9250 -0.7641
10523TIP3   OH253059   4.163   1.994   6.009  0.4193  0.0559  0.0105
10523TIP3    H153060   4.203   2.053   5.945  0.1342  0.8750  0.5830
10523TIP3    H253061   4.138   1.917   5.958  2.2281 -0.2519 -0.4569
10524TIP3   OH253062   2.469   2.683   5.553  0.1536 -0.3710 -0.0559
10524TIP3    H153063   2.541   2.745   5.571 -0.3524 -0.1312  1.1836
10524TIP3    H253064   2.477   2.664   5.459  2.4341 -1.0894  0.2499
10525TIP3   OH253065   2.742   1.259   4.154  0.0870  0.2507 -0.1355
10525TIP3    H153066   2.833   1.231   4.164  0.1704  0.5255 -0.1128
10525TIP3    H253067   2.695   1.211   4.222 -0.2782 -2.0853 -1.9653
10526TIP3   OH253068   5.180   1.941   5.815  0.0241 -0.1397 -0.2628
10526TIP3    H153069   5.098   1.954   5.862  0.2260  0.2505 -0.0136
10526TIP3    H253070   5.215   1.860   5.850 -0.6594 -0.7386 -0.9642
10527TIP3   OH253071   0.407   5.379   4.016  0.2727 -0.1847  0.3341
10527TIP3    H153072   0.393   5.305   4.076 -1.6171 -0.4957 -0.4795
10527TIP3    H253073   0.409   5.339   3.929 -0.3945  0.6723 -0.0759
10528TIP3   OH253074   4.557   2.173   5.039 -0.4178 -0.0284  0.0333
10528TIP3    H153075   4.481   2.220   5.005  1.3322  1.2419 -2.3088
10528TIP3    H253076   4.581   2.220   5.119  0.9707  2.8275 -1.9778
10529TIP3   OH253077   2.560   0.175   3.361 -0.3159 -0.1320  0.2815
10529TIP3    H153078   2.475   0.130   3.362 -1.2297  1.4981 -0.4657
10529TIP3    H253079   2.551   0.242   3.429  0.7141 -0.5482  0.8264
10530TIP3   OH253080   3.448   4.229   2.050  0.3778  0.3156  0.9139
10530TIP3    H153081   3.462   4.201   2.141 -0.4281 -0.9242  0.6649
10530TIP3    H253082   3.380   4.170   2.017 -0.1210  1.4766 -0.1576
10531TIP3   OH253083   1.217   2.302  12.749 -0.6618  0.4239 -0.0242
10531TIP3    H153084   1.241   2.353  12.827 -0.5118 -0.0947  0.2666
10531TIP3    H253085   1.121   2.297  12.752 -0.7407  1.3540 -0.4771
10532TIP3   OH253086   6.572   4.620  16.957 -0.1338 -0.3938  0.0771
10532TIP3    H153087   6.501   4.674  16.992  1.1748  0.9064  0.7309
10532TIP3    H253088   6.583   4.550  17.022 -0.2594 -0.1494  0.3592
10533TIP3   OH253089   2.239   0.372  13.405  0.2548  0.0488 -0.4518
10533TIP3    H153090   2.198   0.295  13.444 -1.0413  0.6414 -0.6335
10533TIP3    H253091   2.196   0.383  13.320  0.3786  0.9978 -0.4033
10534TIP3   OH253092   0.537   3.226   2.855 -0.0487 -0.5019  0.0851
10534TIP3    H153093   0.451   3.265   2.843  0.2180 -0.0328 -0.3043
10534TIP3    H253094   0.565   3.255   2.942  0.3736  0.6013 -0.4191
10535TIP3   OH253095   2.118   5.739  12.193 -0.7146 -0.0082 -0.1918
10535TIP3    H153096   2.104   5.786  12.275 -0.3649 -1.8047  0.9321
10535TIP3    H253097   2.213   5.745  12.178 -0.4145 -1.7100  0.8370
10536TIP3   OH253098   6.436   1.265  15.371 -0.6134  0.0005 -0.0567
10536TIP3    H153099   6.382   1.233  15.299 -0.0557  0.8519 -0.8556
10536TIP3    H253100   6.474   1.185  15.409 -0.5979 -0.4153 -0.9442
10537TIP3   OH253101   6.465   4.986  12.170  0.1101 -0.1146 -0.6876
10537TIP3    H153102   6.396   4.920  12.182 -1.1389  1.2084 -0.4360
10537TIP3    H253103   6.467   5.001  12.075  0.3929 -0.5186 -0.7459
10538TIP3   OH253104   2.425   5.771   0.949  0.3826  0.6070  0.2403
10538TIP3    H153105   2.487   5.835   0.915  0.1737  0.2591 -0.7946
10538TIP3    H253106   2.339   5.814   0.940  0.3697  0.6921  0.7483
10539TIP3   OH253107   1.575   0.181   4.919 -0.7663  0.0767  0.1562
10539TIP3    H153108   1.610   0.267   4.942  0.1121 -0.3535  0.4422
10539TIP3    H253109   1.501   0.200   4.861  0.2321  0.9776 -0.8324
10540TIP3   OH253110   2.309   3.794  13.102 -0.6399  0.5249  0.0655
10540TIP3    H153111   2.261   3.778  13.021 -0.8350 -0.2599  0.3275
10540TIP3    H253112   2.348   3.881  13.091 -1.7267  0.9749 -0.3423
10541TIP3   OH253113   6.772   6.188  12.697 -0.4835 -0.0322 -0.4374
10541TIP3    H153114   6.683   6.220  12.679  0.0769  1.7460 -0.1302
10541TIP3    H253115   6.778   6.185  12.793 -0.4597 -0.8604 -0.4631
10542TIP3   OH253116   3.260   5.599   3.570  0.4608 -0.5476  0.1576
10542TIP3    H153117   3.335   5.638   3.615 -0.3271 -0.5465  1.4886
10542TIP3    H253118   3.184   5.624   3.623 -0.5827  0.0972 -1.5944
10543TIP3   OH253119   5.872   5.295   4.917  0.7457 -0.0838 -0.5857
10543TIP3    H153120   5.839   5.309   4.828 -0.4380 -0.1925 -0.1751
10543TIP3    H253121   5.922   5.213   4.911 -1.8968 -1.7682 -0.5178
10544TIP3   OH253122   6.587   5.300  13.098 -0.0938 -0.6720 -0.2339
10544TIP3    H153123   6.518   5.264  13.154 -0.7287 -0.9669 -1.1960
10544TIP3    H253124   6.642   5.225  13.077 -0.1734 -0.6654 -0.4643
10545TIP3   OH253125   3.346   6.518  16.637 -0.0071 -0.1127 -0.0439
10545TIP3    H153126   3.269   6.474  16.671 -1.6470  2.6830  0.0693
10545TIP3    H253127   3.411   6.509  16.707 -0.9956 -0.5123  0.8511
10546TIP3   OH253128   3.355   0.611  12.578 -0.5976 -1.0343 -0.3461
10546TIP3    H153129   3.436   0.562  12.588 -0.5900 -1.1950 -1.1714
10546TIP3    H253130   3.287   0.544  12.568 -0.4055 -0.8940 -2.8662
10547TIP3   OH253131   0.759   4.165   6.218 -0.2918  0.2457  0.1672
10547TIP3    H153132   0.801   4.246   6.245  0.8368 -1.1378  2.7140
10547TIP3    H253133   0.667   4.176   6.244  0.2197  0.0421  2.1621
10548TIP3   OH253134   4.587   3.906  12.909 -0.1630  0.2358 -0.6925
10548TIP3    H153135   4.524   3.974  12.886 -1.0024 -0.7617 -1.3983
10548TIP3    H253136   4.566   3.833  12.851  1.8731 -0.0065 -1.1875
10549TIP3   OH253137   4.624   5.054   1.444 -0.3516 -0.2944  0.7281
10549TIP3    H153138   4.611   5.141   1.483  1.8205  0.3676  0.0266
10549TIP3    H253139   4.539   5.032   1.406 -0.8187  1.7180  0.5496
10550TIP3   OH253140   0.251   3.014   4.320 -0.1903  0.2045  0.3540
10550TIP3    H153141   0.308   3.062   4.380 -1.2364 -0.9940  2.3853
10550TIP3    H253142   0.239   3.072   4.245 -0.4065  2.5897  2.1774
10551TIP3   OH253143   4.774   2.161  11.865  0.6789 -0.4395  0.1737
10551TIP3    H153144   4.744   2.245  11.829 -0.1466 -0.3094  1.1429
10551TIP3    H253145   4.842   2.184  11.927  0.6759 -0.5089  0.2024
10552TIP3   OH253146   4.080   3.455   3.098 -0.0399  0.3306 -0.2710
10552TIP3    H153147   4.090   3.549   3.112 -1.5099  0.3309  0.9457
10552TIP3    H253148   4.169   3.420   3.105  0.1140  1.1932  2.8086
10553TIP3   OH253149   4.829   4.940   0.971 -0.4647 -0.1231 -0.7425
10553TIP3    H153150   4.852   4.902   1.056  1.1874 -0.1535 -1.1921
10553TIP3    H253151   4.754   4.888   0.941 -2.0093  0.8510  1.3540
10554TIP3   OH253152   3.784   1.932  16.324 -0.2889  0.3252  0.1241
10554TIP3    H153153   3.849   1.879  16.278 -1.0811 -0.0246 -0.6059
10554TIP3    H253154   3.715   1.947  16.259 -1.6263 -0.5388  1.3132
10555TIP3   OH253155   6.800   2.974  16.733  0.2003  0.3023  0.5326
10555TIP3    H153156   6.787   2.929  16.816 -1.3326  0.4700  0.4032
10555TIP3    H253157   6.825   2.905  16.671 -0.6593 -0.1440  0.6785
10556TIP3   OH253158   4.072   1.616  14.441 -0.3534  0.2362 -0.0188
10556TIP3    H153159   4.138   1.553  14.468 -1.6072 -0.1831  2.2146
10556TIP3    H253160   4.099   1.699  14.481  0.3961  0.7796 -1.5851
10557TIP3   OH253161   6.276   0.542   3.822  0.6581  0.1301  0.3584
10557TIP3    H153162   6.231   0.560   3.740  2.8136 -0.6639 -1.0565
10557TIP3    H253163   6.219   0.579   3.890 -0.6599  1.7232 -1.5526
10558TIP3   OH253164   0.124   1.052  13.872  0.0419  0.0867 -0.2329
10558TIP3    H153165   0.180   1.125  13.843  0.8712 -1.0838 -1.6459
10558TIP3    H253166   0.186   0.984  13.897 -0.7268 -1.3739 -2.1861
10559TIP3   OH253167   5.591   2.149  15.008  0.4621 -0.1426  0.2250
10559TIP3    H153168   5.552   2.133  14.922 -0.5214  0.5217  0.5323
10559TIP3    H253169   5.554   2.233  15.035  1.6959  0.2339  0.7727
10560TIP3   OH253170   3.141   2.843   5.043  0.2683  0.2712 -0.2854
10560TIP3    H153171   3.126   2.864   4.951  1.8264 -0.6065 -0.7485
10560TIP3    H253172   3.065   2.789   5.067 -0.9764  1.8714 -0.5860
10561TIP3   OH253173   6.751   6.201   1.405 -0.1308  0.0430 -0.2444
10561TIP3    H153174   6.703   6.122   1.431 -0.7114  0.8927  1.3274
10561TIP3    H253175   6.843   6.178   1.418 -0.3081 -0.2993  0.4078
10562TIP3   OH253176   3.634   5.165   0.168 -0.6738 -0.0906  0.8087
10562TIP3    H153177   3.724   5.138   0.186 -0.4562  0.6960  0.9482
10562TIP3    H253178   3.601   5.102   0.105 -1.0665 -2.2855  3.1153
10563TIP3   OH253179   3.545   1.945  16.177  0.4776  0.0444  0.1067
10563TIP3    H153180   3.472   1.893  16.210  0.4135 -1.3678 -2.1074
10563TIP3    H253181   3.504   2.011  16.121  0.6810  1.4535  1.5888
10564TIP3   OH253182   1.627   5.025  12.721  0.1961 -0.1008 -0.0453
10564TIP3    H153183   1.682   4.996  12.649  1.3240 -0.0797  0.8004
10564TIP3    H253184   1.684   5.024  12.797 -0.3598  2.0310  0.4452
10565TIP3   OH253185   5.673   3.677   1.521  0.2219 -0.5096 -0.2532
10565TIP3    H153186   5.585   3.648   1.547  1.3000 -1.9425  1.9259
10565TIP3    H253187   5.727   3.598   1.525  1.6277  0.3426 -1.6267
10566TIP3   OH253188   5.044   3.230   3.685  0.2302  0.2757 -0.0296
10566TIP3    H153189   5.105   3.174   3.732 -0.8920  0.2332  1.3830
10566TIP3    H253190   5.011   3.176   3.613 -0.1830 -0.5908  0.8091
10567TIP3   OH253191   5.852   0.158   0.141  0.1993  0.0432  0.2429
10567TIP3    H153192   5.864   0.099   0.066 -0.1010  0.5689 -0.2167
10567TIP3    H253193   5.758   0.178   0.141 -0.6016 -3.1306  3.1357
10568TIP3   OH253194   5.251   4.157   1.515  0.0307 -0.9352  0.2853
10568TIP3    H153195   5.305   4.086   1.480 -2.1326 -1.5741 -1.9148
10568TIP3    H253196   5.312   4.229   1.529  1.6551 -2.0257 -0.9636
10569TIP3   OH253197   4.050   5.225  14.928  0.0630 -0.1090  0.2375
10569TIP3    H153198   4.081   5.218  15.018 -0.5334 -0.1473  0.4426
10569TIP3    H253199   3.970   5.278  14.934 -0.9256 -1.5244 -0.0471
10570TIP3   OH253200   6.332   0.211   6.730 -0.1907 -0.0620 -0.6898
10570TIP3    H153201   6.403   0.151   6.707 -0.3490 -0.1999 -0.8192
10570TIP3    H253202   6.374   0.297   6.733  0.1895 -0.2732  0.2314
10571TIP3   OH253203   5.161   5.235  14.944 -0.2391  0.0917 -0.4285
10571TIP3    H153204   5.094   5.268  15.004 -0.7720 -1.3196 -0.2112
10571TIP3    H253205   5.203   5.164  14.992  0.9015  0.4609 -0.8619
10572TIP3   OH253206   5.245   1.799   5.586  0.1923  0.0141  0.9435
10572TIP3    H153207   5.326   1.848   5.596  0.6425 -0.8232  1.4431
10572TIP3    H253208   5.183   1.842   5.645  0.6272 -0.1273  1.4985
10573TIP3   OH253209   5.780   0.937   3.988 -0.4175  0.0214 -0.4119
10573TIP3    H153210   5.693   0.908   3.959 -0.4148  0.3002 -0.7036
10573TIP3    H253211   5.795   1.018   3.939 -0.2784  0.3242  0.1349
10574TIP3   OH253212   6.102   3.102  16.413  0.1375 -0.3387 -0.1200
10574TIP3    H153213   6.079   3.162  16.484  0.6591 -0.3264  0.0340
10574TIP3    H253214   6.196   3.087  16.422  0.3606  0.2677 -1.2573
10575TIP3   OH253215   3.775   4.972   0.773  0.2756  0.1233  0.1879
10575TIP3    H153216   3.803   4.931   0.691  2.0132  2.0692 -0.2724
10575TIP3    H253217   3.782   4.903   0.839  2.4843 -0.5090 -0.6593
10576TIP3   OH253218   3.765   3.276  15.864  0.0383  0.0339 -0.6962
10576TIP3    H153219   3.753   3.181  15.861  1.1283 -0.0679 -2.0900
10576TIP3    H253220   3.810   3.297  15.782  1.2833  1.5310  0.3510
10577TIP3   OH253221   2.248   6.435  13.119  0.3052 -0.7933 -0.7447
10577TIP3    H153222   2.198   6.502  13.165 -0.2691 -1.0275 -1.0209
10577TIP3    H253223   2.336   6.441  13.156  0.2214  0.0201 -0.6780
10578TIP3   OH253224   3.621   4.073   1.451 -0.2285  0.0550 -0.4934
10578TIP3    H153225   3.564   4.056   1.526  1.1473  2.8303  1.2731
10578TIP3    H253226   3.698   4.019   1.467 -0.4519 -0.2758 -0.5352
10579TIP3   OH253227   0.816   4.270   5.908  0.3511 -0.3032 -0.2587
10579TIP3    H153228   0.842   4.358   5.936 -0.6341  0.0530 -0.4473
10579TIP3    H253229   0.890   4.215   5.932 -0.3988  0.0062  2.9498
10580TIP3   OH253230   1.427   3.423   0.632  0.7158  0.3996  0.2764
10580TIP3    H153231   1.431   3.518   0.622 -0.7585  0.4169 -0.2188
10580TIP3    H253232   1.519   3.396   0.633  1.1425  1.5727 -1.9804
10581TIP3   OH253233   6.791   1.696   6.763  0.1013 -0.2728  0.4579
10581TIP3    H153234   6.788   1.751   6.685 -0.2956 -1.4902 -0.3862
10581TIP3    H253235   6.869   1.727   6.811  1.2297 -0.5365 -1.1730
10582TIP3   OH253236   2.208   3.053   6.530 -0.4300  0.1669  0.1391
10582TIP3    H153237   2.116   3.064   6.510 -0.6163 -2.5693 -0.7375
10582TIP3    H253238   2.240   2.992   6.463  1.7775  0.2968  1.0261
10583TIP3   OH253239   6.301   1.751   3.187  0.2391  0.5664  0.0168
10583TIP3    H153240   6.389   1.740   3.224  1.0097  1.0973 -1.5925
10583TIP3    H253241   6.285   1.669   3.139 -0.2961  0.3323  0.5864
10584TIP3   OH253242   3.476   2.722   1.880  0.3016  0.3195 -0.1390
10584TIP3    H153243   3.462   2.809   1.919  0.0674  0.8444 -1.3645
10584TIP3    H253244   3.556   2.690   1.921  1.6164  2.0507 -1.2424
10585TIP3   OH253245   6.640   6.055   2.778 -0.3236 -0.3225  0.0033
10585TIP3    H153246   6.643   6.003   2.697  0.7093 -2.0309  1.1119
10585TIP3    H253247   6.580   6.007   2.835 -0.5161  0.5096  0.5076
10586TIP3   OH253248   0.635   6.702  15.639 -0.1123 -0.2896 -0.3217
10586TIP3    H153249   0.592   6.639  15.581  0.1770 -1.4086  0.6564
10586TIP3    H253250   0.576   6.777  15.641 -1.3897 -1.2789 -0.0595
10587TIP3   OH253251   5.637   1.523  14.499  0.4420  0.0365  0.2831
10587TIP3    H153252   5.553   1.531  14.545  0.8448 -0.4833  1.1215
10587TIP3    H253253   5.618   1.550  14.409 -0.8763 -1.1523  0.1982
10588TIP3   OH253254   2.859   0.184  14.136 -0.3114 -0.4809  0.5943
10588TIP3    H153255   2.819   0.256  14.184  2.2734  0.6126  1.1768
10588TIP3    H253256   2.870   0.218  14.047 -1.1601 -0.9612  0.3070
10589TIP3   OH253257   5.919   5.580  15.905  0.1684 -0.2391 -0.0093
10589TIP3    H153258   5.862   5.657  15.912  0.6267  0.0029  1.0937
10589TIP3    H253259   5.922   5.544  15.993 -0.5085 -1.8805 -0.6326
10590TIP3   OH253260   4.733   5.548  11.998  0.8865 -0.1694 -0.2544
10590TIP3    H153261   4.662   5.508  11.948 -0.3549  0.2890  1.0849
10590TIP3    H253262   4.811   5.499  11.974  0.1049 -0.7119 -1.7207
10591TIP3   OH253263   2.889   2.461  16.292 -1.0051  0.5877  0.4752
10591TIP3    H153264   2.879   2.369  16.316 -0.1844  0.6749  1.1809
10591TIP3    H253265   2.809   2.482  16.244 -0.8717 -0.6907 -0.3327
10592TIP3   OH253266   4.098   6.699   0.720 -0.2818  0.9494 -0.3991
10592TIP3    H153267   4.154   6.722   0.646 -0.1858  0.8978 -0.3430
10592TIP3    H253268   4.153   6.714   0.797 -0.9541  2.6812 -0.2483
10593TIP3   OH253269   4.952   4.091   3.475 -0.2254 -0.3254 -0.3065
10593TIP3    H153270   4.924   4.138   3.553  1.3015 -0.1652  0.1505
10593TIP3    H253271   4.882   4.107   3.411 -0.5938  1.0582  0.4221
10594TIP3   OH253272   4.019   2.731   0.928 -0.2507 -0.3167  0.3266
10594TIP3    H153273   4.014   2.690   0.842  1.0957  0.6262 -0.2127
10594TIP3    H253274   4.100   2.697   0.967  1.0641  2.0428 -0.2620
10595TIP3   OH253275   0.549   4.855  15.067  0.2016  0.1342 -0.3355
10595TIP3    H153276   0.620   4.857  15.131 -0.4741  0.3841  0.4077
10595TIP3    H253277   0.577   4.789  15.003  0.2101 -1.1735  0.9949
10596TIP3   OH253278   2.883   5.583   2.951  0.2451 -0.0228 -0.6378
10596TIP3    H153279   2.849   5.659   2.998 -1.1913  0.2603 -2.0830
10596TIP3    H253280   2.898   5.615   2.862  1.8169 -0.8433 -0.6754
10597TIP3   OH253281   0.172   2.549  12.265 -0.0262 -0.6228 -0.0454
10597TIP3    H153282   0.140   2.460  12.281  0.3257 -0.8616 -0.6759
10597TIP3    H253283   0.097   2.595  12.228 -0.2183 -0.6424  0.3081
10598TIP3   OH253284   0.891   4.722   5.204  0.2343  0.1015  0.3846
10598TIP3    H153285   0.893   4.630   5.175  0.3214  0.3211 -0.2940
10598TIP3    H253286   0.798   4.743   5.210  0.2235  0.3182 -0.5489
10599TIP3   OH253287   0.203   1.918  13.710 -0.1592  0.2151 -0.0011
10599TIP3    H153288   0.278   1.978  13.706 -0.0491  0.0703 -0.1259
10599TIP3    H253289   0.228   1.845  13.654 -0.5544  0.3450 -0.3490
10600TIP3   OH253290   1.820   5.673  12.892  0.2130 -0.8285 -0.0244
10600TIP3    H153291   1.816   5.645  12.801  0.4067  1.5231 -0.7849
10600TIP3    H253292   1.784   5.762  12.892  1.8579 -0.1111  1.8910
10601TIP3   OH253293   3.383   6.210  16.458  0.0430 -0.1534  0.0165
10601TIP3    H153294   3.333   6.280  16.416 -0.6117 -0.5513  0.1280
10601TIP3    H253295   3.472   6.221  16.425 -0.0172  0.8330  0.1624
10602TIP3   OH253296   6.345   2.500  17.258 -0.0502 -0.3925  0.2472
10602TIP3    H153297   6.372   2.565  17.323  0.3446 -0.4961  0.1868
10602TIP3    H253298   6.410   2.507  17.188 -1.9468  1.5735 -1.3838
10603TIP3   OH253299   1.536   6.585   2.524  0.0487  0.5417  0.4895
10603TIP3    H153300   1.458   6.580   2.579  0.6640 -0.6661  1.2815
10603TIP3    H253301   1.606   6.611   2.585  0.5794 -0.0150  0.1235
10604TIP3   OH253302   5.284   3.138   5.566  0.5437 -0.3970 -0.0845
10604TIP3    H153303   5.343   3.212   5.576 -0.7692  0.6101  0.3228
10604TIP3    H253304   5.328   3.066   5.612  1.1760  0.4823  0.6934
10605TIP3   OH253305   0.287   3.833   3.941  0.4597  0.0474 -0.8831
10605TIP3    H153306   0.211   3.867   3.893  1.4192  2.7740 -0.5542
10605TIP3    H253307   0.256   3.825   4.031  0.6196  1.4052 -0.7000
10606TIP3   OH253308   4.657   5.485   1.267  0.3655 -0.0143  0.0092
10606TIP3    H153309   4.625   5.554   1.208 -0.3681 -0.6580 -0.3486
10606TIP3    H253310   4.659   5.526   1.353  1.6713  1.0131 -0.4857
10607TIP3   OH253311   6.458   4.120  11.123 -0.3993 -0.3401 -0.1409
10607TIP3    H153312   6.529   4.081  11.173 -0.2595  0.1661  0.0526
10607TIP3    H253313   6.395   4.048  11.112 -0.7083 -0.3086  1.2704
10608TIP3   OH253314   3.828   1.938  12.614 -0.3939  0.0014  0.2718
10608TIP3    H153315   3.743   1.897  12.597  0.6582 -1.4280 -1.8714
10608TIP3    H253316   3.843   1.993  12.537  2.1185 -2.4330 -1.0716
10609TIP3   OH253317   1.858   3.346   6.888  0.5733 -0.9768  0.1112
10609TIP3    H153318   1.847   3.259   6.926  0.1400 -0.6096  0.8407
10609TIP3    H253319   1.926   3.335   6.822  0.8219 -1.7757  0.4937
10610TIP3   OH253320   3.079   1.221   2.440 -0.2648  0.4260  0.0365
10610TIP3    H153321   3.146   1.212   2.508  1.3399 -0.4922 -1.6420
10610TIP3    H253322   3.009   1.161   2.467  2.0105 -2.8362 -1.0510
10611TIP3   OH253323   1.621   6.105   4.587  0.0688  0.4223  0.3555
10611TIP3    H153324   1.690   6.158   4.547 -0.1488  1.5639  1.4305
10611TIP3    H253325   1.602   6.037   4.523 -0.1428  2.0798 -1.4134
10612TIP3   OH253326   1.613   0.839   5.708  0.9993 -0.0895 -0.1314
10612TIP3    H153327   1.643   0.749   5.712 -0.3364 -0.4895  1.1641
10612TIP3    H253328   1.532   0.836   5.657 -0.3631  0.0007  1.9883
10613TIP3   OH253329   5.589   2.667  11.463 -0.8685  0.1850 -0.3992
10613TIP3    H153330   5.576   2.731  11.532  1.0679 -0.1237  0.2953
10613TIP3    H253331   5.538   2.591  11.491 -0.1423  0.0807  0.7019
10614TIP3   OH253332   4.527   3.460  13.558 -0.1416  0.0815 -0.5665
10614TIP3    H153333   4.540   3.509  13.477 -1.3214  1.7837  0.2451
10614TIP3    H253334   4.568   3.513  13.626  0.3253 -1.0482  0.0526
10615TIP3   OH253335   3.679   1.278   0.072 -0.0778  0.4266  0.3642
10615TIP3    H153336   3.644   1.203   0.121 -1.7977  0.3153 -1.0018
10615TIP3    H253337   3.768   1.289   0.108 -0.3748 -1.2199  1.7357
10616TIP3   OH253338   0.532   2.210  15.505  0.5330 -0.1551  0.4413
10616TIP3    H153339   0.525   2.115  15.513 -0.5243 -0.1891 -0.6800
10616TIP3    H253340   0.575   2.223  15.421  2.0788  0.3354  1.3038
10617TIP3   OH253341   6.718   2.928  14.541  0.3432 -0.6031 -0.6890
10617TIP3    H153342   6.798   2.961  14.500 -0.1000  1.0011 -0.3091
10617TIP3    H253343   6.698   2.848  14.493  1.2917 -0.1676 -1.8498
10618TIP3   OH253344   5.520   2.088   1.285  0.7225  0.1671  0.1117
10618TIP3    H153345   5.582   2.036   1.336 -0.1348 -1.1786 -0.1559
10618TIP3    H253346   5.573   2.130   1.218  1.7106  1.1503  1.4861
10619TIP3   OH253347   4.756   0.888  15.123 -0.5133  0.0910  0.0145
10619TIP3    H153348   4.675   0.933  15.098 -0.1942 -0.9331 -3.0607
10619TIP3    H253349   4.823   0.924  15.066  0.9480 -0.0899  1.5577
10620TIP3   OH253350   6.747   4.354   5.685  0.3373 -0.1513  0.2483
10620TIP3    H153351   6.724   4.430   5.739 -0.9968 -0.9886  0.8659
10620TIP3    H253352   6.809   4.305   5.739 -0.3222 -0.5295  0.6680
10621TIP3   OH253353   1.096   3.934  14.221 -0.2367  0.2368 -0.4255
10621TIP3    H153354   1.101   4.001  14.289 -0.4689 -1.2280  1.0704
10621TIP3    H253355   1.170   3.953  14.163  2.1594 -0.6031  2.2342
10622TIP3   OH253356   3.046   4.290   5.603  0.1541 -0.2101  0.1526
10622TIP3    H153357   3.100   4.249   5.536  0.4694 -1.6547  1.2501
10622TIP3    H253358   2.956   4.281   5.571  0.5122  1.8607 -1.4940
10623TIP3   OH253359   0.462   5.992  12.815  0.2864 -0.4523 -0.1247
10623TIP3    H153360   0.432   5.904  12.795 -0.0460 -0.3533 -0.0650
10623TIP3    H253361   0.556   5.983  12.828  0.1398 -0.9277  0.6280
10624TIP3   OH253362   5.485   4.842  14.333  0.1545 -0.8403 -0.3796
10624TIP3    H153363   5.423   4.856  14.404  2.3116  1.5309  1.1480
10624TIP3    H253364   5.511   4.751  14.340 -1.7665 -1.3774  0.0570
10625TIP3   OH253365   4.272   1.079  14.456 -0.8326 -0.2094 -0.3660
10625TIP3    H153366   4.336   1.147  14.438 -0.0677 -0.8864 -0.2166
10625TIP3    H253367   4.208   1.121  14.514  0.3042  0.0378  0.7349
10626TIP3   OH253368   5.183   3.781  13.663 -0.4896 -0.2028 -0.2353
10626TIP3    H153369   5.251   3.816  13.721 -1.7324  0.3009  0.9548
10626TIP3    H253370   5.220   3.788  13.575  0.9306  0.2021  0.3785
10627TIP3   OH253371   0.226   4.784  15.387  0.5139  0.3955 -0.0270
10627TIP3    H153372   0.177   4.848  15.335  0.5199  0.5401  0.1415
10627TIP3    H253373   0.159   4.734  15.433  0.5256  0.6548  0.2762
10628TIP3   OH253374   0.073   4.631   3.428  0.2911  0.4597  0.7019
10628TIP3    H153375   0.109   4.563   3.371 -1.5901 -0.2211  0.3055
10628TIP3    H253376   0.118   4.711   3.400  1.0856 -0.2737 -0.1564
10629TIP3   OH253377   4.207   2.457  11.080 -0.8576  0.3032  0.6623
10629TIP3    H153378   4.272   2.397  11.042 -0.7091  2.1787 -2.2444
10629TIP3    H253379   4.139   2.464  11.012 -1.9086  1.7643  1.8506
10630TIP3   OH253380   4.340   0.605   2.443 -0.1901 -0.5142  0.0183
10630TIP3    H153381   4.387   0.594   2.361 -1.1335  1.1424 -0.7708
10630TIP3    H253382   4.339   0.518   2.483 -0.4113 -1.4887 -2.0877
10631TIP3   OH253383   4.928   1.144   0.134  0.4730 -0.3247  0.0181
10631TIP3    H153384   4.977   1.190   0.066  0.4028 -1.1585 -0.5993
10631TIP3    H253385   4.860   1.207   0.160  0.3052 -0.1107 -0.9037
10632TIP3   OH253386   1.281   6.201  10.538 -0.6796  0.2933  0.3861
10632TIP3    H153387   1.276   6.172  10.447 -0.7120  0.2297  0.4067
10632TIP3    H253388   1.341   6.139  10.580  0.5824  1.2601  0.0510
10633TIP3   OH253389   3.538   0.286   2.287  0.3318 -0.4983 -0.2852
10633TIP3    H153390   3.602   0.222   2.319 -0.8324 -2.1439 -1.1301
10633TIP3    H253391   3.521   0.260   2.196 -1.3726  0.0253 -0.1418
10634TIP3   OH253392   4.257   3.050  13.733 -0.2128  0.3074 -0.3817
10634TIP3    H153393   4.248   3.138  13.770  0.6685  0.3027 -0.1559
10634TIP3    H253394   4.327   3.059  13.668 -1.1585  0.1206 -1.4466
10635TIP3   OH253395   2.824   3.867   5.373 -0.5331  0.5828 -0.1759
10635TIP3    H153396   2.915   3.838   5.367 -1.5302 -2.4770 -1.2003
10635TIP3    H253397   2.786   3.813   5.443 -1.7842  1.2666 -0.3149
10636TIP3   OH253398   0.699   3.290   6.056  0.0102 -0.2508  0.3990
10636TIP3    H153399   0.764   3.231   6.093 -1.6592 -3.4636 -1.5496
10636TIP3    H253400   0.649   3.322   6.131  0.0454 -2.4492  1.3835
10637TIP3   OH253401   5.289   5.863   3.390 -0.5886  0.0466  0.3885
10637TIP3    H153402   5.368   5.865   3.444  0.2850  0.6853 -0.8790
10637TIP3    H253403   5.224   5.913   3.439 -0.4671 -1.1527  1.8202
10638TIP3   OH253404   1.563   1.486   5.375  0.3660  0.3840 -0.3304
10638TIP3    H153405   1.634   1.459   5.433 -0.5356  0.7889  0.9899
10638TIP3    H253406   1.526   1.404   5.342  1.3151  0.1694 -0.8853
10639TIP3   OH253407   3.285   5.209  12.637  0.7738 -0.5449 -0.7076
10639TIP3    H153408   3.330   5.267  12.576  1.2643  0.6021  0.7263
10639TIP3    H253409   3.344   5.200  12.711 -0.6091 -0.3772  0.4512
10640TIP3   OH253410   1.160   6.415  11.731  0.0045 -0.7340 -0.6335
10640TIP3    H153411   1.238   6.363  11.712 -0.4409 -1.2301 -1.1128
10640TIP3    H253412   1.178   6.454  11.817  0.8624 -0.6777 -0.8336
10641TIP3   OH253413   2.813   2.326  15.977  0.0835 -0.0255 -0.4795
10641TIP3    H153414   2.734   2.291  16.019 -0.6337 -1.6738 -3.0949
10641TIP3    H253415   2.790   2.416  15.955 -1.3153 -0.6528 -1.7136
10642TIP3   OH253416   2.995   1.740   4.826  0.1089 -0.2617 -0.4495
10642TIP3    H153417   3.034   1.668   4.775  1.6791  0.6829 -0.6188
10642TIP3    H253418   3.025   1.724   4.915  0.0387 -0.0936 -0.3967
10643TIP3   OH253419   6.360   1.286   0.814 -0.3603  0.1434 -0.4418
10643TIP3    H153420   6.451   1.310   0.832  0.1376 -2.6266  0.8791
10643TIP3    H253421   6.357   1.277   0.718  0.6989  0.4569 -0.5137
10644TIP3   OH253422   5.296   4.802   1.118 -0.3152 -0.1088  0.0205
10644TIP3    H153423   5.326   4.889   1.092 -0.5986  0.2739  0.9594
10644TIP3    H253424   5.289   4.806   1.213 -1.5596 -0.7771 -0.0277
10645TIP3   OH253425   1.603   3.708   0.127 -0.0873  0.3031  0.5872
10645TIP3    H153426   1.577   3.791   0.088 -0.3258 -0.5633 -1.1504
10645TIP3    H253427   1.554   3.642   0.079  0.5214 -0.8924  1.5644
10646TIP3   OH253428   6.680   3.975  13.963  0.2011 -0.2896  0.2516
10646TIP3    H153429   6.722   3.907  14.015  0.9770 -1.1638 -1.4977
10646TIP3    H253430   6.619   3.927  13.906 -2.6607  0.8794  2.2223
10647TIP3   OH253431   6.662   1.457   2.095  0.1051  0.1593 -0.0322
10647TIP3    H153432   6.597   1.496   2.154 -0.6999  0.6380 -1.2222
10647TIP3    H253433   6.732   1.427   2.153 -0.1047  1.7332  1.0734
10648TIP3   OH253434   0.481   5.552   1.967  0.0699 -0.4817  0.4106
10648TIP3    H153435   0.520   5.470   1.998  0.0831  0.1606  2.1395
10648TIP3    H253436   0.405   5.565   2.024 -0.2098  0.4564 -0.1733
10649TIP3   OH253437   3.010   5.285  12.630 -0.7340 -0.0237 -0.4482
10649TIP3    H153438   3.101   5.258  12.613 -0.3891  1.1444 -0.4725
10649TIP3    H253439   3.010   5.310  12.722 -0.1481  3.4232 -1.3281
10650TIP3   OH253440   5.551   2.708  17.062 -0.5447  0.6531  0.9126
10650TIP3    H153441   5.463   2.691  17.095 -0.6353  0.8495  0.7711
10650TIP3    H253442   5.606   2.644  17.107 -0.8474  0.1367  0.5594
10651TIP3   OH253443   5.827   2.993  12.250 -0.6758 -0.5565 -0.0355
10651TIP3    H153444   5.804   3.073  12.297 -3.9244 -2.2295  1.3717
10651TIP3    H253445   5.856   2.933  12.318  1.3725 -0.7361 -1.0457
10652TIP3   OH253446   6.373   3.850   4.049 -0.0580  0.2727  0.0319
10652TIP3    H153447   6.347   3.760   4.070 -0.3267  0.5559  0.9235
10652TIP3    H253448   6.351   3.860   3.956  1.7086 -1.1924 -0.5873
10653TIP3   OH253449   2.766   1.483  10.747 -0.7324 -0.0994  0.4981
10653TIP3    H153450   2.796   1.562  10.792  2.2145 -0.5978 -0.4630
10653TIP3    H253451   2.683   1.509  10.708 -0.5042  2.1117  1.3667
10654TIP3   OH253452   6.723   1.088  13.112  0.2779  0.3426 -0.3269
10654TIP3    H153453   6.816   1.094  13.135  0.5105  1.8593 -1.6449
10654TIP3    H253454   6.721   1.044  13.027 -0.3326 -1.1594  0.4307
10655TIP3   OH253455   3.684   1.437   2.573  0.2412  0.3890 -0.2413
10655TIP3    H153456   3.687   1.397   2.486 -0.4385  2.3720 -1.2006
10655TIP3    H253457   3.771   1.420   2.610  0.3050 -1.0708 -1.0245
10656TIP3   OH253458   2.155   4.079   1.987  0.6694  0.4741  0.3066
10656TIP3    H153459   2.220   4.051   2.052 -0.6745 -2.1463  0.5684
10656TIP3    H253460   2.112   3.998   1.960 -2.9930  2.2282  0.6550
10657TIP3   OH253461   1.782   6.317   4.965  0.3416 -0.1553 -0.0988
10657TIP3    H153462   1.712   6.382   4.970  0.3822 -0.1795  0.8617
10657TIP3    H253463   1.816   6.325   4.876 -1.3510 -0.6413 -0.7985
10658TIP3   OH253464   5.490   5.416   3.806  0.3311  0.2405 -0.4683
10658TIP3    H153465   5.394   5.411   3.801  0.4634 -0.5312 -2.2765
10658TIP3    H253466   5.506   5.465   3.887 -1.5698 -0.4100  0.3526
10659TIP3   OH253467   4.116   5.659   0.493 -0.0558 -0.6850 -0.0987
10659TIP3    H153468   4.146   5.682   0.581 -1.4618 -0.6923  0.3969
10659TIP3    H253469   4.185   5.602   0.458  0.8034 -0.1905  0.7544
10660TIP3   OH253470   4.004   4.056   5.441 -0.4060  0.6851  0.6369
10660TIP3    H153471   4.015   3.973   5.487 -0.5542  1.1943  1.6205
10660TIP3    H253472   3.909   4.067   5.433 -0.3549  0.1050 -0.7068
10661TIP3   OH253473   5.108   4.069  12.399  0.0575 -0.0001 -0.5770
10661TIP3    H153474   5.117   4.137  12.332 -0.5296  0.0932 -0.5638
10661TIP3    H253475   5.039   4.101  12.457  0.1847 -0.3367 -0.2348
10662TIP3   OH253476   5.311   3.692  12.826 -0.7551 -0.1417  0.0563
10662TIP3    H153477   5.247   3.740  12.773 -2.6979 -1.9869  0.6733
10662TIP3    H253478   5.260   3.626  12.872  1.4367 -0.8912  1.5128
10663TIP3   OH253479   1.607   5.523  14.120  0.7101  0.3479  0.7422
10663TIP3    H153480   1.627   5.608  14.160  1.9878  0.8277 -0.8556
10663TIP3    H253481   1.625   5.536  14.026  0.8851 -1.6740  0.4740
10664TIP3   OH253482   4.483   6.194   1.634  0.2052 -0.1493 -0.0801
10664TIP3    H153483   4.533   6.183   1.553  1.1912 -1.7040  0.7176
10664TIP3    H253484   4.540   6.245   1.691 -0.0476  0.0052  0.0355
10665TIP3   OH253485   2.515   3.376  14.698 -0.2158 -0.1669 -0.3454
10665TIP3    H153486   2.491   3.406  14.610 -0.6181  0.8393  0.0961
10665TIP3    H253487   2.567   3.297  14.683  1.3513  1.0627 -1.5798
10666TIP3   OH253488   1.702   4.541   2.932 -0.1511  0.7560  0.2732
10666TIP3    H153489   1.690   4.619   2.877  0.1172 -0.6789 -1.8963
10666TIP3    H253490   1.796   4.522   2.926 -0.3982 -0.3758 -0.1388
10667TIP3   OH253491   0.068   1.656   1.310  0.1583 -0.2634 -0.0980
10667TIP3    H153492   0.060   1.749   1.289  1.8426 -0.0676  0.0165
10667TIP3    H253493   0.018   1.644   1.391  0.2214  0.6247  0.0709
10668TIP3   OH253494   5.811   3.850   3.293 -0.5282 -0.0817  1.0184
10668TIP3    H153495   5.793   3.787   3.363 -0.1721 -0.6449  0.6041
10668TIP3    H253496   5.733   3.847   3.237  0.4062 -1.8062 -0.2357
10669TIP3   OH253497   5.232   2.493  11.604  0.4842  0.4422  0.3036
10669TIP3    H153498   5.295   2.441  11.553 -0.5631  0.7985 -1.3762
10669TIP3    H253499   5.167   2.522  11.540 -1.2948  0.2434  1.9914
10670TIP3   OH253500   3.237   1.683  11.826  0.2280  0.5618  0.1636
10670TIP3    H153501   3.190   1.643  11.900 -0.1494  0.1664 -0.2859
10670TIP3    H253502   3.270   1.766  11.861 -0.0783  0.4470  0.7346
10671TIP3   OH253503   2.757   6.114   5.718 -0.6521 -0.0603 -0.8649
10671TIP3    H153504   2.723   6.184   5.775 -0.4877 -0.2196 -0.5718
10671TIP3    H253505   2.837   6.085   5.761 -1.0358 -0.8483 -0.6693
10672TIP3   OH253506   0.485   2.173   1.408  0.0607 -0.1232 -0.0591
10672TIP3    H153507   0.510   2.257   1.371 -0.6357 -0.0914 -0.4760
10672TIP3    H253508   0.395   2.159   1.377  0.0952 -0.9180  0.1797
10673TIP3   OH253509   6.330   0.655   5.929  0.2366 -0.0644  0.3459
10673TIP3    H153510   6.249   0.639   5.977  0.4986  1.4883  1.3277
10673TIP3    H253511   6.397   0.667   5.997  0.7632  1.3894 -0.4085
10674TIP3   OH253512   4.195   5.179  14.580  0.6371 -0.2780 -0.3547
10674TIP3    H153513   4.233   5.098  14.616 -0.0811 -0.1649  0.6625
10674TIP3    H253514   4.122   5.199  14.638  0.2929  0.6525 -1.1009
10675TIP3   OH253515   0.377   3.904  10.607 -0.0800 -0.2119 -0.1819
10675TIP3    H153516   0.347   3.896  10.517  0.4850 -1.9820 -0.2347
10675TIP3    H253517   0.358   3.819  10.646  1.0966  0.0213  0.9274
10676TIP3   OH253518   3.296   0.573  11.943  0.2590 -0.6358  0.1133
10676TIP3    H153519   3.232   0.525  11.890  0.0526 -0.7281  0.4462
10676TIP3    H253520   3.381   0.536  11.918  0.4567  1.4103 -2.4084
10677TIP3   OH253521   6.615   5.385  16.929  0.4961 -0.4413 -0.2105
10677TIP3    H153522   6.709   5.388  16.945  0.6687  1.0511 -1.4146
10677TIP3    H253523   6.576   5.434  17.002  0.7436 -0.0645 -0.3308
10678TIP3   OH253524   3.114   5.319   3.209  0.4695  0.4714 -0.0751
10678TIP3    H153525   3.158   5.256   3.152 -2.1867 -2.2229  0.7375
10678TIP3    H253526   3.119   5.280   3.296  0.3170  2.2620  0.7562
10679TIP3   OH253527   1.995   1.990   5.157 -0.7177 -0.3722  0.4474
10679TIP3    H153528   2.045   2.072   5.158  0.2054 -0.9267  0.5524
10679TIP3    H253529   1.918   2.007   5.210 -1.3915  0.9717 -0.9372
10680TIP3   OH253530   6.382   4.458   3.339 -0.5439 -0.0983 -0.0823
10680TIP3    H153531   6.319   4.412   3.395 -0.4588  0.1294  0.2024
10680TIP3    H253532   6.468   4.432   3.372 -0.4964  0.3975  0.1880
10681TIP3   OH253533   2.205   1.777  16.279 -0.5029  0.3862  0.3506
10681TIP3    H153534   2.259   1.761  16.356  0.8246  1.2421 -0.3813
10681TIP3    H253535   2.268   1.796  16.209 -1.7881  2.2214 -0.3370
10682TIP3   OH253536   6.440   6.799  15.341  0.2827  0.2114  0.5709
10682TIP3    H153537   6.404   6.743  15.409 -0.9614 -1.3044 -1.3062
10682TIP3    H253538   6.369   6.858  15.318  0.4231  0.1630  0.0031
10683TIP3   OH253539   0.437   5.937  11.956 -0.1948  0.3301 -0.1551
10683TIP3    H153540   0.372   5.994  11.915  0.3254  1.3679  0.4569
10683TIP3    H253541   0.401   5.849  11.945 -1.1800  0.7959 -0.7815
10684TIP3   OH253542   6.663   0.460   2.867  0.7262 -0.2018  0.1824
10684TIP3    H153543   6.738   0.412   2.902 -1.3940 -3.6269  0.2157
10684TIP3    H253544   6.637   0.519   2.938  0.0655 -2.9253  2.2857
10685TIP3   OH253545   4.270   1.836   0.901  0.0273  0.5976 -0.1298
10685TIP3    H153546   4.356   1.812   0.935 -0.2481  1.1192  0.9679
10685TIP3    H253547   4.260   1.928   0.925 -0.7352  0.5964 -0.4513
10686TIP3   OH253548   0.284   1.289  17.034 -0.2908  0.7526 -0.0411
10686TIP3    H153549   0.307   1.369  16.986  1.3886  0.5114  0.3075
10686TIP3    H253550   0.365   1.238  17.034 -1.0256 -0.4340  0.7491
10687TIP3   OH253551   4.698   3.954   4.916 -0.2246  0.1476 -0.4549
10687TIP3    H153552   4.781   3.974   4.959  0.3553 -0.1934 -1.4135
10687TIP3    H253553   4.721   3.896   4.844 -1.6293 -2.4566  1.0683
10688TIP3   OH253554   2.650   1.991  10.899 -0.0063  0.2365  0.4002
10688TIP3    H153555   2.612   1.997  10.986 -1.9739 -1.0370 -0.3540
10688TIP3    H253556   2.644   2.080  10.864  0.5079  0.6821  1.4401
10689TIP3   OH253557   4.948   1.836   4.085  0.2127 -0.6677 -0.1422
10689TIP3    H153558   5.011   1.901   4.054  0.1189  0.3423  1.7171
10689TIP3    H253559   4.996   1.753   4.082  1.6680  0.1014  1.3410
10690TIP3   OH253560   4.997   6.242  15.505 -0.3215  0.5657 -0.1362
10690TIP3    H153561   4.962   6.199  15.583  1.4864  2.4371  1.7476
10690TIP3    H253562   5.070   6.186  15.477 -0.5089  0.2813 -0.0561
10691TIP3   OH253563   6.417   2.216  17.087 -0.0744 -0.0742  0.0791
10691TIP3    H153564   6.500   2.169  17.076 -0.2842 -0.4366  0.0409
10691TIP3    H253565   6.395   2.204  17.179 -0.7063 -1.0227 -0.1850
10692TIP3   OH253566   5.467   3.448  11.944 -0.1571  0.0724 -0.5698
10692TIP3    H153567   5.451   3.424  12.036  0.3739  0.0393 -0.4870
10692TIP3    H253568   5.381   3.472  11.911 -0.6889 -1.7842 -0.5997
10693TIP3   OH253569   5.937   1.410  14.831  0.4299  0.8113 -0.2717
10693TIP3    H153570   5.897   1.376  14.752 -0.4068  0.6733  0.2098
10693TIP3    H253571   5.865   1.421  14.892  0.9154  1.9380  0.1151
10694TIP3   OH253572   5.869   5.243  15.548  0.1033 -0.2338  0.5451
10694TIP3    H153573   5.885   5.336  15.561 -2.0654  0.2089  0.3216
10694TIP3    H253574   5.853   5.209  15.637  1.2619 -0.4788  0.6649
10695TIP3   OH253575   3.543   5.966   1.019 -0.4593 -0.2045  0.0088
10695TIP3    H153576   3.524   5.951   0.926  0.2816  0.8145 -0.3221
10695TIP3    H253577   3.568   5.880   1.053 -0.6022 -0.5597 -0.7683
10696TIP3   OH253578   4.284   3.039   0.727 -0.4183 -0.0567 -0.1941
10696TIP3    H153579   4.242   2.994   0.801  0.5850  0.5398  0.7454
10696TIP3    H253580   4.229   3.116   0.712 -0.6109 -0.1655 -0.0587
10697TIP3   OH253581   3.631   3.579   6.206 -0.3108  0.3306  0.3617
10697TIP3    H153582   3.671   3.595   6.291  1.9608  0.2798 -0.6603
10697TIP3    H253583   3.660   3.653   6.152  0.4519 -0.9923 -1.0849
10698TIP3   OH253584   1.785   0.626  11.779 -0.6820 -0.2635  0.1029
10698TIP3    H153585   1.806   0.678  11.856 -0.4376  0.5507 -0.5035
10698TIP3    H253586   1.786   0.535  11.810 -1.1255  0.0918  1.1732
10699TIP3   OH253587   1.291   5.941   3.179  0.1305  0.7066  0.2717
10699TIP3    H153588   1.372   5.938   3.229 -0.6461 -0.8603  1.4536
10699TIP3    H253589   1.243   6.016   3.215  0.3203  0.6194  0.7020
10700TIP3   OH253590   3.717   1.883   6.515 -0.0083 -0.0476  0.1144
10700TIP3    H153591   3.690   1.812   6.457  0.6445 -0.0275 -0.2285
10700TIP3    H253592   3.637   1.912   6.558 -0.3718 -0.5854 -0.2035
10701TIP3   OH253593   6.517   6.793  14.809  0.3144 -0.1058 -0.5985
10701TIP3    H153594   6.604   6.761  14.833  0.1988  1.0160  1.3609
10701TIP3    H253595   6.482   6.831  14.889 -2.1200 -0.8028 -1.2920
10702TIP3   OH253596   1.902   0.017   5.508 -0.1293  0.4173 -0.0598
10702TIP3    H153597   1.894  -0.055   5.446  2.7990  0.9139 -1.0697
10702TIP3    H253598   1.816   0.021   5.551 -0.9215 -2.4645 -1.2658
10703TIP3   OH253599   1.641   2.906  14.048 -0.8597 -0.7893  0.0609
10703TIP3    H153600   1.653   2.817  14.081 -1.4038 -0.5790  0.8406
10703TIP3    H253601   1.583   2.896  13.972  0.9570 -1.3510 -1.3007
10704TIP3   OH253602   3.158   4.099  14.657  0.4046  0.2714  0.3421
10704TIP3    H153603   3.197   4.061  14.735  2.9127 -0.4658 -1.1966
10704TIP3    H253604   3.119   4.025  14.610  2.1502  0.1136 -0.8966
10705TIP3   OH253605   4.382   5.565   4.636  0.1539 -0.8612 -0.2659
10705TIP3    H153606   4.330   5.604   4.707  2.4608 -0.0415  1.0338
10705TIP3    H253607   4.389   5.634   4.570 -1.4683 -1.4149 -1.0437
10706TIP3   OH253608   6.759   6.757  11.612 -0.4288 -0.4207 -0.6104
10706TIP3    H153609   6.814   6.706  11.672  1.3865 -0.4471 -2.2420
10706TIP3    H253610   6.796   6.739  11.526 -0.3937  2.8675 -1.3105
10707TIP3   OH253611   0.949   3.264  12.597 -0.2753 -0.7882  0.1333
10707TIP3    H153612   0.968   3.185  12.546  0.1721 -0.8424  0.3864
10707TIP3    H253613   0.900   3.320  12.537  1.5198 -0.2282 -0.8267
10708TIP3   OH253614   4.334   6.402  14.369 -0.0020  0.8980  0.5440
10708TIP3    H153615   4.403   6.337  14.356  0.2521  0.6799  2.7368
10708TIP3    H253616   4.366   6.480  14.325 -0.3507 -0.4545 -2.2053
10709TIP3   OH253617   1.278   4.225   0.844  0.3267  0.0210 -0.2840
10709TIP3    H153618   1.199   4.206   0.895  0.1693  1.0663 -0.1317
10709TIP3    H253619   1.245   4.263   0.762  0.7183  2.3497  0.5889
10710TIP3   OH253620   3.616   4.448   1.899  0.1282 -0.9573 -0.1580
10710TIP3    H153621   3.607   4.361   1.938 -0.8769 -0.6715  0.2663
10710TIP3    H253622   3.579   4.508   1.965  1.6300 -0.1127 -0.0486
10711TIP3   OH253623   1.703   3.052   3.102  0.2532 -0.2086  0.0394
10711TIP3    H153624   1.637   3.092   3.159  0.0391 -0.0450 -0.3252
10711TIP3    H253625   1.785   3.062   3.151  0.1243  0.2331  0.1691
10712TIP3   OH253626   5.076   0.014  13.665  0.1823 -0.0648 -0.2505
10712TIP3    H153627   5.163  -0.024  13.679  0.7839  0.8402 -1.3706
10712TIP3    H253628   5.090   0.108  13.678 -1.1058 -0.1196  1.6927
10713TIP3   OH253629   5.328   2.588  13.962  0.2997  0.3726  0.3442
10713TIP3    H153630   5.345   2.495  13.950 -3.1112 -0.0507 -1.8344
10713TIP3    H253631   5.299   2.596  14.053 -1.9449 -1.1417 -0.2144
10714TIP3   OH253632   1.607   2.578   2.450  0.0057  0.1227  0.3252
10714TIP3    H153633   1.693   2.607   2.482 -0.1745  0.6179  0.3591
10714TIP3    H253634   1.611   2.483   2.455 -0.1201  0.1878  2.0891
10715TIP3   OH253635   5.467   6.322  11.614 -0.1982 -0.0358  0.3502
10715TIP3    H153636   5.540   6.260  11.608  0.5110  0.7945  0.3531
10715TIP3    H253637   5.458   6.358  11.526  0.9136  1.5734  0.8710
10716TIP3   OH253638   5.059   6.329  10.883  0.3187  0.6449 -0.7394
10716TIP3    H153639   5.091   6.395  10.822 -0.6620  1.1632 -0.7084
10716TIP3    H253640   4.967   6.317  10.860 -0.3184  1.5214  1.2288
10717TIP3   OH253641   0.108   4.189  12.269  0.4740  0.4771 -0.3577
10717TIP3    H153642   0.168   4.170  12.341 -0.6278  0.4594  0.5663
10717TIP3    H253643   0.154   4.158  12.191  2.0421  1.2752  0.2258
10718TIP3   OH253644   1.776   6.481   4.268 -0.4462  0.2684  0.3531
10718TIP3    H153645   1.862   6.452   4.300 -0.5636 -0.2170  0.2259
10718TIP3    H253646   1.723   6.401   4.265 -0.2027  0.1731 -1.7903
10719TIP3   OH253647   1.832   4.306  13.189  0.7739  0.0320  0.0143
10719TIP3    H153648   1.851   4.256  13.268 -0.0485  1.4592  1.1357
10719TIP3    H253649   1.742   4.338  13.201  1.4237  2.1189 -0.4737
10720TIP3   OH253650   4.458   6.083  13.895 -0.4813 -0.0495 -0.1403
10720TIP3    H153651   4.551   6.097  13.877 -0.4398  1.6344  1.3054
10720TIP3    H253652   4.456   6.037  13.979 -0.9861  0.4656  0.1265
10721TIP3   OH253653   4.004   5.178  11.801 -0.2018 -0.0793  0.6418
10721TIP3    H153654   3.993   5.273  11.792  0.4222  0.0851  1.5979
10721TIP3    H253655   3.919   5.147  11.831 -0.2929  0.2257  0.7050
10722TIP3   OH253656   1.238   1.884   3.389 -0.0703  0.0556 -0.1612
10722TIP3    H153657   1.281   1.915   3.469  0.8264 -0.8160 -0.2972
10722TIP3    H253658   1.145   1.904   3.402 -0.0072 -0.5428  1.3202
10723TIP3   OH253659   4.129   0.830   5.332  0.7302  0.2778  0.0258
10723TIP3    H153660   4.189   0.771   5.377 -0.4145  0.0623  1.3118
10723TIP3    H253661   4.162   0.918   5.350 -1.3166  0.3637  3.7762
10724TIP3   OH253662   2.674   0.008   3.673 -0.5046  0.3218  0.2901
10724TIP3    H153663   2.588   0.034   3.639 -0.1546  1.1800  0.0544
10724TIP3    H253664   2.658  -0.012   3.765 -1.2039 -0.7424 -0.0548
10725TIP3   OH253665   6.788   1.989  11.991  0.0523  0.0530  0.2842
10725TIP3    H153666   6.809   2.073  12.031  1.0750 -1.4163  2.9821
10725TIP3    H253667   6.863   1.933  12.010 -0.2037 -1.2279 -2.2637
10726TIP3   OH253668   0.535   1.393   0.024 -0.0970  0.1819  0.2268
10726TIP3    H153669   0.549   1.483  -0.005  1.3062  0.4928  1.7786
10726TIP3    H253670   0.558   1.339  -0.051  3.2596  0.9672  0.6337
10727TIP3   OH253671   5.453   4.799   6.026 -0.0967 -0.6006 -0.0650
10727TIP3    H153672   5.429   4.740   5.955  0.4054 -2.9684  1.6473
10727TIP3    H253673   5.396   4.773   6.098 -2.0563  3.1564 -0.1888
10728TIP3   OH253674   4.201   4.711   5.728  0.1998  0.2356  0.3775
10728TIP3    H153675   4.261   4.715   5.653 -1.3786 -0.5935 -0.9663
10728TIP3    H253676   4.228   4.784   5.784  2.0384  0.2744 -0.5147
10729TIP3   OH253677   5.553   1.797   2.645  0.0765 -0.1924 -0.0785
10729TIP3    H153678   5.615   1.866   2.669 -0.1629 -0.4262  1.2803
10729TIP3    H253679   5.593   1.752   2.571  1.1013  0.2383  0.2164
10730TIP3   OH253680   6.643   3.238   4.297 -0.0552  0.2015 -0.3418
10730TIP3    H153681   6.717   3.215   4.353 -1.4076 -0.3371  1.2589
10730TIP3    H253682   6.567   3.231   4.354 -1.4239  0.0529 -2.1535
10731TIP3   OH253683   1.392   5.348  16.973 -0.4919  0.1941 -0.4355
10731TIP3    H153684   1.452   5.318  16.904  1.6900  0.5065  1.2915
10731TIP3    H253685   1.418   5.438  16.990 -1.4265  0.3129  0.4137
10732TIP3   OH253686   2.993   4.766  12.184  0.2554 -0.0121 -0.1130
10732TIP3    H153687   2.899   4.785  12.176 -0.2757 -1.6159  1.8652
10732TIP3    H253688   3.009   4.763  12.278  2.3659  0.4484 -0.4306
10733TIP3   OH253689   1.870   1.065   3.486 -0.2271 -0.5765  0.0682
10733TIP3    H153690   1.840   0.986   3.531 -1.9989 -0.5921 -1.1130
10733TIP3    H253691   1.944   1.036   3.433  0.9090 -0.8602  1.7810
10734TIP3   OH253692   0.507   0.357  14.677 -0.0794  0.0768 -0.6451
10734TIP3    H153693   0.438   0.419  14.701  0.2685  1.0543 -2.0949
10734TIP3    H253694   0.561   0.349  14.756 -1.2009  0.1595  0.1447
10735TIP3   OH253695   2.334   0.180  10.178  0.2674 -0.6949 -0.7271
10735TIP3    H153696   2.407   0.147  10.230 -0.9481 -1.6405  0.3957
10735TIP3    H253697   2.261   0.122  10.198 -1.0337  0.7179 -1.2065
10736TIP3   OH253698   2.021   6.619  12.732  0.4836 -0.3616  0.1432
10736TIP3    H153699   2.064   6.608  12.647  1.3992  0.5929  0.4660
10736TIP3    H253700   2.061   6.552  12.787  0.7953 -0.1683  0.1551
10737TIP3   OH253701   3.844   3.019   3.988  0.5641  0.5289 -0.1960
10737TIP3    H153702   3.807   3.090   3.935  1.7639  1.1527 -0.2193
10737TIP3    H253703   3.912   3.061   4.040 -0.9399  0.0345  2.2680
10738TIP3   OH253704   5.648   0.230   3.453 -0.0351  0.1455 -0.6416
10738TIP3    H153705   5.562   0.225   3.412  0.3108  1.4200 -1.5865
10738TIP3    H253706   5.663   0.324   3.465 -0.7399 -0.2160  3.8459
10739TIP3   OH253707   2.276   3.551  13.739 -0.2277 -0.3853 -0.6716
10739TIP3    H153708   2.233   3.491  13.800 -0.1130 -0.6405 -0.8408
10739TIP3    H253709   2.292   3.499  13.661 -0.7046  0.0381 -1.0605
10740TIP3   OH253710   4.111   3.825  11.571  0.1851  0.1661  0.3890
10740TIP3    H153711   4.186   3.767  11.580  0.3708  0.5026  1.0186
10740TIP3    H253712   4.139   3.908  11.608 -0.9996 -0.1464  2.0508
10741TIP3   OH253713   5.165   2.409   5.008 -0.4895  0.2172 -0.3348
10741TIP3    H153714   5.092   2.347   5.010 -0.1358 -0.1909  0.0092
10741TIP3    H253715   5.182   2.421   4.914  0.8218 -1.8635 -0.4023
10742TIP3   OH253716   6.274   3.730  16.578 -0.0581 -0.3115 -0.1434
10742TIP3    H153717   6.207   3.750  16.643  0.1135 -0.2569  0.0153
10742TIP3    H253718   6.235   3.660  16.525  0.3935 -1.3988  0.9440
10743TIP3   OH253719   0.989   1.400   2.172 -0.5880 -0.2006 -0.2434
10743TIP3    H153720   1.004   1.354   2.089 -1.2466  0.9947 -1.0384
10743TIP3    H253721   0.896   1.385   2.190 -0.9633  1.3125 -0.8275
10744TIP3   OH253722   5.154   2.700   0.274  0.2036  0.0187 -0.1803
10744TIP3    H153723   5.242   2.667   0.292 -0.2805 -1.1708  0.0446
10744TIP3    H253724   5.108   2.692   0.358 -0.3860 -0.2240 -0.5228
10745TIP3   OH253725   3.359   2.841  12.315 -0.0291 -0.0255 -0.1688
10745TIP3    H153726   3.446   2.808  12.292  0.1248  0.0010  0.3631
10745TIP3    H253727   3.366   2.863  12.408  0.1125  2.2768 -0.7058
10746TIP3   OH253728   4.164   4.984   4.163  0.1401  0.0486  0.7199
10746TIP3    H153729   4.115   4.994   4.245  0.5671 -0.7385  1.0723
10746TIP3    H253730   4.253   5.011   4.184  0.4967 -1.1769  0.7866
10747TIP3   OH253731   6.571   3.606   0.378 -0.1606  0.4598 -0.3562
10747TIP3    H153732   6.503   3.595   0.444 -0.7222 -1.7401 -1.2331
10747TIP3    H253733   6.625   3.678   0.410 -1.2200  0.3310  1.7896
10748TIP3   OH253734   4.668   6.732  15.904  0.1270 -0.3421 -0.2751
10748TIP3    H153735   4.635   6.753  15.991 -1.3385  1.0507 -1.1302
10748TIP3    H253736   4.673   6.816  15.859  0.1657 -1.1238 -1.7644
10749TIP3   OH253737   2.969   5.681   0.052 -0.4900 -0.5867 -0.2131
10749TIP3    H153738   2.876   5.679   0.031 -0.8187 -0.5342  1.1874
10749TIP3    H253739   2.990   5.773   0.064 -0.5016 -0.6697  0.4848
10750TIP3   OH253740   3.617   1.113   4.744 -1.1627 -0.0076  0.1192
10750TIP3    H153741   3.599   1.207   4.756 -1.3728  0.1729 -1.4469
10750TIP3    H253742   3.713   1.106   4.752 -1.1482  0.3383  0.2615
10751TIP3   OH253743   3.659   0.739  16.246 -0.5195 -0.5949  0.2647
10751TIP3    H153744   3.631   0.731  16.155 -0.8463  1.4632  0.1677
10751TIP3    H253745   3.584   0.778  16.291  0.1697 -0.2531  1.1311
10752TIP3   OH253746   0.679   4.559   0.658  0.1281 -0.0396  0.2831
10752TIP3    H153747   0.609   4.527   0.714 -0.0917  0.3615  0.2417
10752TIP3    H253748   0.662   4.653   0.649  0.9323  0.1478  0.6467
10753TIP3   OH253749   4.876   5.402  13.006  0.1233  0.0110  0.6034
10753TIP3    H153750   4.800   5.439  13.051  0.6613 -0.1651  1.6432
10753TIP3    H253751   4.902   5.327  13.059 -0.3471 -1.3007 -0.9507
10754TIP3   OH253752   1.903   1.640   3.218 -0.6045 -0.5747 -0.0801
10754TIP3    H153753   1.889   1.647   3.313 -0.1656  1.4589 -0.1429
10754TIP3    H253754   1.986   1.592   3.210 -0.2915 -0.1622  0.5911
10755TIP3   OH253755   4.960   6.384   4.813 -0.5502 -0.1598 -0.7968
10755TIP3    H153756   4.937   6.364   4.722 -0.0354 -0.8397 -0.7752
10755TIP3    H253757   4.987   6.300   4.850  2.9584  0.8026 -1.0851
10756TIP3   OH253758   1.123   4.981  17.202  0.1898  0.3476  0.0063
10756TIP3    H153759   1.126   4.929  17.122  0.6572 -1.3296  1.0898
10756TIP3    H253760   1.142   5.070  17.173 -1.9335  0.1637 -2.0654
10757TIP3   OH253761   1.142   3.776   5.818  0.0413 -0.2431 -0.0999
10757TIP3    H153762   1.120   3.765   5.726  0.3263 -0.6148 -0.1252
10757TIP3    H253763   1.169   3.688   5.847  1.3286  0.1688 -0.0241
10758TIP3   OH253764   3.031   6.222  11.236 -0.5532 -0.2752 -0.1314
10758TIP3    H153765   2.990   6.138  11.220  0.6164 -0.5483 -1.9196
10758TIP3    H253766   3.060   6.251  11.149  2.2384  0.2776  0.9350
10759TIP3   OH253767   2.560   5.089   4.474  0.0647 -0.0567 -0.2937
10759TIP3    H153768   2.652   5.108   4.492  0.2912 -0.5976 -0.8516
10759TIP3    H253769   2.533   5.029   4.544 -0.0295  0.5762  0.2075
10760TIP3   OH253770   5.299   2.167   5.699  0.4167  0.6448 -0.0490
10760TIP3    H153771   5.259   2.108   5.763  0.2998  0.6640 -0.1043
10760TIP3    H253772   5.359   2.111   5.649  0.7314  0.6940  0.2758
10761TIP3   OH253773   0.902   4.295   1.606  0.4329 -0.0593  0.1422
10761TIP3    H153774   0.840   4.222   1.614  0.7498 -0.5909 -1.9453
10761TIP3    H253775   0.988   4.256   1.619  0.7423 -0.4362 -2.8148
10762TIP3   OH253776   2.529   3.139   0.014  0.1623 -0.1898 -0.0454
10762TIP3    H153777   2.448   3.185   0.039  0.5229  1.2055 -1.3621
10762TIP3    H253778   2.595   3.208   0.012  0.6647 -0.6956 -2.3409
10763TIP3   OH253779   0.908   4.927  15.093  0.1996  0.1000 -0.0683
10763TIP3    H153780   0.850   4.933  15.170 -2.9345 -2.1701 -2.1394
10763TIP3    H253781   0.872   4.991  15.032  0.3157 -0.7911 -1.0788
10764TIP3   OH253782   4.624   1.090  17.256 -0.2861  0.2708 -0.6550
10764TIP3    H153783   4.718   1.083  17.269 -0.0247  0.3900 -2.2966
10764TIP3    H253784   4.611   1.177  17.218 -1.2534  0.9286  1.1406
10765TIP3   OH253785   4.793   0.665  13.655  0.1685 -0.4941  0.2243
10765TIP3    H153786   4.703   0.644  13.682  0.4238 -0.2520  1.2459
10765TIP3    H253787   4.800   0.627  13.567 -0.5822 -1.4656  0.5759
10766TIP3   OH253788   1.667   3.189   3.785 -0.2248  0.1256  0.0400
10766TIP3    H153789   1.722   3.185   3.706  0.6746  0.6378  0.6275
10766TIP3    H253790   1.610   3.113   3.778  1.0351 -0.8094 -0.2428
10767TIP3   OH253791   5.645   4.051  16.718  0.2782 -0.5274  0.8041
10767TIP3    H153792   5.565   4.072  16.766 -0.4162  0.3553 -0.7065
10767TIP3    H253793   5.638   4.102  16.637  0.3720 -3.6372 -1.2516
10768TIP3   OH253794   1.751   2.117  11.905  0.3266  0.2746  0.2130
10768TIP3    H153795   1.833   2.161  11.881  0.3225 -0.6785 -1.6200
10768TIP3    H253796   1.706   2.103  11.822 -0.3363 -1.8569  0.8904
10769TIP3   OH253797   0.261   5.926   3.536  0.2685  0.6716  0.0457
10769TIP3    H153798   0.227   5.842   3.504  2.1123  0.5787 -1.8134
10769TIP3    H253799   0.184   5.981   3.548 -0.9153 -1.0627  0.6508
10770TIP3   OH253800   4.480   6.158  14.756 -0.3943  0.2865 -0.3250
10770TIP3    H153801   4.436   6.075  14.742 -1.1080  0.7065 -0.6477
10770TIP3    H253802   4.416   6.224  14.728  0.7619  0.8740 -1.6713
10771TIP3   OH253803   2.062   6.770   0.811 -0.8699 -1.2931 -0.1214
10771TIP3    H153804   2.045   6.834   0.881  2.6227 -1.3932  0.9002
10771TIP3    H253805   2.012   6.693   0.836 -2.3166 -0.1752  0.4901
10772TIP3   OH253806   0.530   2.433   5.616 -0.0075 -0.0441 -0.0910
10772TIP3    H153807   0.543   2.453   5.709  0.2111 -0.3738 -0.0466
10772TIP3    H253808   0.552   2.514   5.570 -0.3433  0.1889  0.1614
10773TIP3   OH253809   1.410   4.909  10.690 -0.0149  0.1163  0.0308
10773TIP3    H153810   1.321   4.879  10.709  0.4014 -0.1959  1.6274
10773TIP3    H253811   1.409   4.934  10.598 -0.7746 -3.3429 -0.9720
10774TIP3   OH253812   0.327   1.520   5.616 -0.4407 -0.1303  0.3740
10774TIP3    H153813   0.321   1.516   5.712  0.7764  1.2941  0.5152
10774TIP3    H253814   0.419   1.538   5.598 -0.9556  1.2425 -1.0139
10775TIP3   OH253815   5.401   6.110  11.945  0.2778  0.2906 -0.5606
10775TIP3    H153816   5.492   6.141  11.948  0.0418  1.0178 -0.8737
10775TIP3    H253817   5.385   6.089  11.853  1.0182 -2.5646 -0.1039
10776TIP3   OH253818   1.733   1.602   2.342  0.3375 -0.6681  0.2435
10776TIP3    H153819   1.713   1.687   2.381  1.6828 -1.0157  1.7589
10776TIP3    H253820   1.786   1.624   2.265 -0.4022 -0.0840 -0.1117
10777TIP3   OH253821   6.222   1.000   0.088  0.1807 -0.0921 -0.1985
10777TIP3    H153822   6.239   1.064   0.020  0.8499 -1.5600 -1.4501
10777TIP3    H253823   6.301   0.946   0.091 -0.0883 -0.4455  1.3024
10778TIP3   OH253824   3.001   2.548  11.700 -0.6013  1.1967 -0.1647
10778TIP3    H153825   3.041   2.628  11.734  0.1307  0.4664  0.7290
10778TIP3    H253826   2.916   2.543  11.744 -0.5802  1.4097 -0.1017
10779TIP3   OH253827   3.644   3.969  11.632 -0.2131  0.3203  0.2496
10779TIP3    H153828   3.627   3.877  11.612 -0.2152  0.2637  0.5143
10779TIP3    H253829   3.585   4.017  11.573  2.3150  0.2506 -2.4634
10780TIP3   OH253830   1.255   3.129   3.060  0.8619 -0.0087  0.2972
10780TIP3    H153831   1.342   3.097   3.086  0.3879 -0.8004  0.9225
10780TIP3    H253832   1.196   3.094   3.127 -0.0362 -0.0202 -0.4980
10781TIP3   OH253833   3.655   6.512  11.413 -0.0477  0.4015  0.6296
10781TIP3    H153834   3.717   6.443  11.435  2.1184  1.8625 -0.7658
10781TIP3    H253835   3.575   6.465  11.390  1.7743 -1.7359 -1.6431
10782TIP3   OH253836   5.810   5.467   1.066 -0.3069 -0.0111  0.9596
10782TIP3    H153837   5.881   5.530   1.052 -0.4386  0.4028  2.1117
10782TIP3    H253838   5.796   5.467   1.161 -1.5239 -0.4415  0.7905
10783TIP3   OH253839   3.500   3.943  14.538 -0.3300 -0.3840  0.7263
10783TIP3    H153840   3.505   4.035  14.513 -1.2027 -0.4601  0.2706
10783TIP3    H253841   3.453   3.943  14.621 -1.0020 -0.4800  0.3495
10784TIP3   OH253842   5.865   1.873   0.394  0.4560 -0.2943  0.5208
10784TIP3    H153843   5.919   1.936   0.440  0.5952  0.3704 -0.5436
10784TIP3    H253844   5.830   1.921   0.319 -1.0513 -0.9080  0.8173
10785TIP3   OH253845   3.426   2.207   3.893  0.2420 -0.3042 -0.4315
10785TIP3    H153846   3.403   2.236   3.982  0.5126 -0.9553 -0.1441
10785TIP3    H253847   3.343   2.208   3.846 -0.0385 -0.7054  0.0440
10786TIP3   OH253848   3.851   4.771   0.965 -0.3356 -0.2187  0.0729
10786TIP3    H153849   3.861   4.806   1.054 -0.0206  1.0476 -0.4415
10786TIP3    H253850   3.933   4.727   0.946  0.6088  1.7005 -0.5037
10787TIP3   OH253851   1.311   1.214   2.746 -0.1202  0.2499  0.0180
10787TIP3    H153852   1.349   1.194   2.661  1.9717  1.5648  0.5742
10787TIP3    H253853   1.370   1.172   2.809 -0.5334  0.8991  0.8566
10788TIP3   OH253854   6.712   3.852   0.512 -0.7196 -0.1358 -0.1175
10788TIP3    H153855   6.670   3.846   0.598 -0.7642 -0.8382 -0.1828
10788TIP3    H253856   6.803   3.826   0.528 -0.2204  1.6525  0.0765
10789TIP3   OH253857   6.289   1.171  17.180 -0.0106  0.2367 -0.7987
10789TIP3    H153858   6.318   1.097  17.127  0.6101  0.4027 -0.6965
10789TIP3    H253859   6.367   1.226  17.189 -0.0005 -0.0007  0.6394
10790TIP3   OH253860   2.620   0.007  16.695  0.1502  1.0128 -0.0333
10790TIP3    H153861   2.672  -0.033  16.625 -0.6333  1.1659 -0.7052
10790TIP3    H253862   2.653   0.096  16.702  1.5528  0.4329  1.1184
10791TIP3   OH253863   1.249   6.606   2.996  0.9307  0.3483 -0.0368
10791TIP3    H153864   1.283   6.524   2.961 -2.1220 -0.3972 -1.4592
10791TIP3    H253865   1.222   6.656   2.919 -0.2027  1.3220  0.9662
10792TIP3   OH253866   5.066   0.666  11.450 -0.4492  0.1231 -0.3797
10792TIP3    H153867   5.119   0.724  11.505 -1.2071  0.5932 -0.1348
10792TIP3    H253868   5.086   0.693  11.361 -1.3011  1.2382 -0.2515
10793TIP3   OH253869   0.886   1.308   1.893  0.0340  0.7425  0.0416
10793TIP3    H153870   0.826   1.356   1.835  0.3927  0.7707 -0.3065
10793TIP3    H253871   0.972   1.344   1.873  0.5559 -1.2809 -1.4953
10794TIP3   OH253872   4.185   0.939   2.859  0.6278  1.2270 -0.2638
10794TIP3    H153873   4.193   1.012   2.798 -1.1414  2.3824  0.8200
10794TIP3    H253874   4.180   0.861   2.804  0.8038  2.0837 -1.5034
10795TIP3   OH253875   2.612   5.084  12.843  0.0854  0.1321  0.2456
10795TIP3    H153876   2.565   5.092  12.760 -0.7672  0.5397  0.7669
10795TIP3    H253877   2.661   5.166  12.850  1.0867 -0.3925 -0.4118
10796TIP3   OH253878   3.039   0.817   3.850 -0.0059  0.4186 -0.2099
10796TIP3    H153879   3.021   0.724   3.865  0.6704  0.1766 -0.8913
10796TIP3    H253880   2.957   0.860   3.874  0.5881 -0.0554  2.9118
10797TIP3   OH253881   2.145   6.392  17.207 -0.4940  0.4129  0.2214
10797TIP3    H153882   2.075   6.457  17.213 -2.3352 -1.5973  1.6914
10797TIP3    H253883   2.125   6.329  17.276  1.0378 -1.8866 -1.3311
10798TIP3   OH253884   0.150   5.839   1.257  0.0516  0.0348  0.4297
10798TIP3    H153885   0.175   5.901   1.326  2.1376 -1.1322  0.7556
10798TIP3    H253886   0.202   5.865   1.181 -1.3470  0.5602 -0.3714
10799TIP3   OH253887   2.908   6.212  14.961  0.1497 -0.2224  0.3395
10799TIP3    H153888   2.850   6.225  15.036  1.2489  1.4830  0.9041
10799TIP3    H253889   2.976   6.278  14.971 -0.1124  0.5430 -2.5938
10800TIP3   OH253890   3.398   3.973  14.808 -0.2656  0.0415 -0.1963
10800TIP3    H153891   3.429   4.035  14.874 -1.1248  0.7564 -0.4520
10800TIP3    H253892   3.315   3.939  14.843 -1.0745  0.9439 -1.2133
10801TIP3   OH253893   0.957   1.553  14.336  0.7349  0.3153 -0.4380
10801TIP3    H153894   0.965   1.518  14.425 -2.2654 -1.9030 -0.9496
10801TIP3    H253895   0.999   1.487  14.280  0.1568  0.3146 -0.8861
10802TIP3   OH253896   2.329   2.111   5.705  0.1419  0.2239 -0.0377
10802TIP3    H153897   2.316   2.029   5.752 -2.4157  1.4046  1.4214
10802TIP3    H253898   2.249   2.123   5.654  0.3683  1.9065 -0.0363
10803TIP3   OH253899   6.758   1.943  12.976 -0.0315 -0.1395  0.6414
10803TIP3    H153900   6.681   1.906  13.018  0.1917 -0.2589  0.9484
10803TIP3    H253901   6.774   2.025  13.021 -0.6692  0.4607 -0.1999
10804TIP3   OH253902   3.480   1.821   4.905 -0.1531 -0.3100 -0.2450
10804TIP3    H153903   3.525   1.873   4.838 -0.2976 -1.5510 -1.3317
10804TIP3    H253904   3.543   1.814   4.976  0.0871  0.8383 -0.3359
10805TIP3   OH253905   4.115   6.085   5.940  0.2308  0.7917 -0.0426
10805TIP3    H153906   4.180   6.137   5.893 -0.7355  1.3413 -0.7632
10805TIP3    H253907   4.046   6.147   5.963 -0.1988  0.1413  0.4504
10806TIP3   OH253908   4.435   4.108  12.416  0.0230  0.3880 -0.4075
10806TIP3    H153909   4.402   4.026  12.378  2.1728 -0.5544 -0.2825
10806TIP3    H253910   4.361   4.142  12.466 -1.6395 -0.2909 -2.2996
10807TIP3   OH253911   1.684   1.306  11.335  0.0536 -0.3117  0.2349
10807TIP3    H153912   1.717   1.341  11.252 -0.0676 -0.6449  0.0445
10807TIP3    H253913   1.761   1.266  11.376 -0.0115 -0.6740  0.0062
10808TIP3   OH253914   1.908   0.550   5.145 -0.0860 -0.1011 -0.5622
10808TIP3    H153915   1.871   0.489   5.209 -0.5129 -0.0214 -0.7312
10808TIP3    H253916   1.951   0.617   5.199  0.5503 -0.6552 -0.3850
10809TIP3   OH253917   3.303   1.609   4.210  0.2541 -0.5844 -0.2686
10809TIP3    H153918   3.398   1.604   4.223  0.4531 -2.0396 -2.0637
10809TIP3    H253919   3.267   1.616   4.298  2.0713  1.0167  0.3946
10810TIP3   OH253920   0.005   1.718   0.059  0.4816 -0.4414  0.2585
10810TIP3    H153921  -0.088   1.730   0.074  0.5908  1.4816 -0.5281
10810TIP3    H253922   0.019   1.623   0.070 -1.7257 -0.8894 -0.5953
10811TIP3   OH253923   6.248   1.441   1.271 -0.2845  0.4453  0.2585
10811TIP3    H153924   6.278   1.352   1.293  0.5458  0.6381 -0.0815
10811TIP3    H253925   6.178   1.427   1.208  1.0847  0.0718 -1.2324
10812TIP3   OH253926   5.859   1.270  12.951  0.7092 -0.2187 -0.1792
10812TIP3    H153927   5.915   1.201  12.917  1.1447 -0.8591  1.8209
10812TIP3    H253928   5.872   1.269  13.046 -2.2649 -0.0521  0.3087
10813TIP3   OH253929   4.339   2.637  11.439 -0.2442 -0.4932  0.2742
10813TIP3    H153930   4.427   2.656  11.469 -0.6578 -2.9151  3.1823
10813TIP3    H253931   4.307   2.721  11.405  2.4869  0.8473  0.8858
10814TIP3   OH253932   3.215   4.879   0.049  0.0214 -0.2276  0.3544
10814TIP3    H153933   3.200   4.846   0.137  0.2389 -1.0714  0.0852
10814TIP3    H253934   3.193   4.805  -0.008  0.1235  0.2284 -0.2791
10815TIP3   OH253935   1.014   3.777   1.279  0.8490 -0.0111  0.2906
10815TIP3    H153936   1.093   3.825   1.253  0.6838  0.6518  1.0226
10815TIP3    H253937   0.944   3.818   1.230  1.1329 -1.4965 -1.4355
10816TIP3   OH253938   6.476   1.082   1.490  0.0334  0.2887 -0.5815
10816TIP3    H153939   6.482   0.989   1.471 -0.0508  0.0669  0.4290
10816TIP3    H253940   6.542   1.097   1.559 -0.9640  0.6767  0.3123
10817TIP3   OH253941   1.500   4.035  11.341 -0.4636 -0.5217 -0.1024
10817TIP3    H153942   1.492   4.060  11.249  3.0684 -1.0022 -0.6041
10817TIP3    H253943   1.459   4.108  11.388  0.2097  1.1206 -1.9637
10818TIP3   OH253944   0.953   6.546   2.692 -0.2939  0.1478  0.1877
10818TIP3    H153945   1.005   6.606   2.745 -0.0754 -0.0037  0.1437
10818TIP3    H253946   0.891   6.507   2.753  0.1564 -0.2543  0.3942
10819TIP3   OH253947   4.934   5.701  12.855 -0.1503 -0.3390 -0.2041
10819TIP3    H153948   4.925   5.637  12.784 -1.5613 -3.6236  2.7794
10819TIP3    H253949   5.002   5.665  12.911  0.5992  1.9520  0.3907
10820TIP3   OH253950   0.516   4.393   3.831  0.4095  0.2588  0.3608
10820TIP3    H153951   0.441   4.437   3.871  0.3343  0.2587  0.2215
10820TIP3    H253952   0.511   4.303   3.863  1.6164  0.7995  2.1075
10821TIP3   OH253953   3.468   4.772  15.837  0.5933  0.1406 -0.0653
10821TIP3    H153954   3.445   4.690  15.793 -0.5975  1.7713 -2.6091
10821TIP3    H253955   3.427   4.765  15.924 -2.3219 -0.5835 -1.4431
10822TIP3   OH253956   6.401   6.616   6.663  0.1171 -0.9268 -0.1565
10822TIP3    H153957   6.462   6.685   6.638  0.2190  0.0280  2.5449
10822TIP3    H253958   6.392   6.561   6.585  0.5589  1.7557 -2.1309
10823TIP3   OH253959   6.192   1.047   5.412 -0.6457  0.0942  0.4021
10823TIP3    H153960   6.183   0.957   5.379  0.3795  0.1624 -0.0851
10823TIP3    H253961   6.190   1.038   5.507 -2.4991 -0.2266  0.3556
10824TIP3   OH253962   1.752   1.864   5.038  0.0645 -0.1504 -0.1565
10824TIP3    H153963   1.692   1.936   5.022  0.3541 -0.3482 -2.2548
10824TIP3    H253964   1.824   1.877   4.975  0.1693 -2.1830 -0.5100
10825TIP3   OH253965   0.909   5.534   1.250 -1.0801  0.4166 -0.6366
10825TIP3    H153966   0.992   5.508   1.289 -1.0870  1.2828 -0.0259
10825TIP3    H253967   0.844   5.518   1.318 -1.6165 -1.5028 -1.5694
10826TIP3   OH253968   6.232   6.656  11.458  0.0939 -0.5115  0.0531
10826TIP3    H153969   6.165   6.604  11.414 -0.7620  0.7527 -0.1891
10826TIP3    H253970   6.295   6.678  11.389 -0.8475  0.8312 -0.3983
10827TIP3   OH253971   6.536   2.475  17.040  0.2214  0.0021 -0.2368
10827TIP3    H153972   6.618   2.451  17.082  0.9101 -0.0262 -1.5808
10827TIP3    H253973   6.486   2.394  17.037  0.2679 -0.0480  0.3035
10828TIP3   OH253974   0.988   0.299  17.058 -0.4026  0.4456  0.1545
10828TIP3    H153975   0.982   0.334  16.969 -0.1802  1.4931  0.5392
10828TIP3    H253976   1.031   0.215  17.048 -1.1554  0.1610 -0.8302
10829TIP3   OH253977   4.816   5.574  14.810 -0.1627 -0.6693  0.1298
10829TIP3    H153978   4.721   5.574  14.801 -0.1478 -1.5383 -0.0398
10829TIP3    H253979   4.839   5.484  14.831  0.5394 -0.2646  1.1284
10830TIP3   OH253980   4.407   3.067  16.941  0.9196  0.4526  0.4959
10830TIP3    H153981   4.357   3.137  16.984  2.8706  1.3468  1.3910
10830TIP3    H253982   4.408   2.995  17.004  0.7869  0.4639  0.5089
10831TIP3   OH253983   2.389   1.864  16.059  0.4223 -0.3094 -0.2201
10831TIP3    H153984   2.462   1.901  16.010  0.9114 -0.2061  0.5721
10831TIP3    H253985   2.408   1.771  16.065  1.1326 -0.1049  1.0340
10832TIP3   OH253986   2.655   1.006  15.498 -0.0910  0.4537 -0.3679
10832TIP3    H153987   2.594   0.938  15.469  1.0957 -0.0861 -1.6644
10832TIP3    H253988   2.710   1.023  15.421  1.1396  1.1978  0.6617
10833TIP3   OH253989   3.684   3.681   4.750 -0.2469 -0.9983 -0.1766
10833TIP3    H153990   3.767   3.703   4.793  0.0611  1.9204 -2.1120
10833TIP3    H253991   3.710   3.643   4.666 -0.8453 -0.9527 -0.3840
10834TIP3   OH253992   4.797   5.605  13.196  0.0376 -0.2239  0.0044
10834TIP3    H153993   4.876   5.657  13.199 -0.3925  0.3869  0.7571
10834TIP3    H253994   4.744   5.646  13.127  0.7267 -1.1547 -1.1047
10835TIP3   OH253995   4.860   0.558   5.399  0.4721 -0.4094 -0.2197
10835TIP3    H153996   4.883   0.580   5.308 -1.5789 -0.0145 -0.6684
10835TIP3    H253997   4.818   0.472   5.393  1.7166 -1.0782  0.5606
10836TIP3   OH253998   2.157   1.882  13.662 -0.4548 -0.1783 -0.1386
10836TIP3    H153999   2.140   1.967  13.621 -2.1278  0.3404  1.5626
10836TIP3    H254000   2.079   1.865  13.714  0.4273 -2.1626  0.5663
10837TIP3   OH254001   3.415   3.981  10.467 -0.5097 -0.1566 -0.0950
10837TIP3    H154002   3.488   3.953  10.521  0.0562 -1.1920 -1.3589
10837TIP3    H254003   3.420   4.076  10.467 -0.6489 -0.1365  1.8175
10838TIP3   OH254004   2.107   5.722   0.621  0.0704  0.1281  0.2532
10838TIP3    H154005   2.133   5.694   0.709 -0.0009 -0.5805  0.0491
10838TIP3    H254006   2.174   5.784   0.595  0.6369 -0.4145  0.4098
10839TIP3   OH254007   4.062   2.652  10.396  0.0281  0.2767 -0.2972
10839TIP3    H154008   4.074   2.558  10.409 -0.3554  0.4915  1.7585
10839TIP3    H254009   3.968   2.663  10.384  0.0366  0.4303 -0.2261
10840TIP3   OH254010   6.098   1.814  11.665 -0.5612  0.0116 -0.7186
10840TIP3    H154011   6.065   1.846  11.749 -1.2250 -0.1373 -0.9221
10840TIP3    H254012   6.191   1.836  11.666 -0.1567 -1.6732  0.8436
10841TIP3   OH254013   1.850   0.350   5.784  0.2252 -0.0283  0.4002
10841TIP3    H154014   1.798   0.283   5.740  0.0212  3.0385 -4.4127
10841TIP3    H254015   1.935   0.309   5.799 -0.1610 -1.6490 -1.6435
10842TIP3   OH254016   0.527   1.325   3.831 -0.2553  0.3425  0.1689
10842TIP3    H154017   0.552   1.296   3.743  0.0236  0.5574  0.1763
10842TIP3    H254018   0.608   1.325   3.881 -0.6238 -1.0448  0.7946
10843TIP3   OH254019   1.095   3.323   1.218  0.8643 -0.2250  0.9522
10843TIP3    H154020   1.049   3.338   1.300 -0.1860 -0.7479  0.4738
10843TIP3    H254021   1.037   3.265   1.168 -0.0504  2.6539 -1.4918
10844TIP3   OH254022   4.383   6.816   3.213 -0.5451  0.3819 -0.7398
10844TIP3    H154023   4.339   6.731   3.198 -1.7697  0.7992  0.3894
10844TIP3    H254024   4.471   6.792   3.240 -1.7008 -0.6623  2.3767
10845TIP3   OH254025   3.539   2.806  15.259 -0.8652 -0.0989 -0.0410
10845TIP3    H154026   3.629   2.782  15.283 -0.8722 -0.9368 -0.8242
10845TIP3    H254027   3.526   2.893  15.297 -0.1509 -0.4964  1.1554
10846TIP3   OH254028   5.964   1.945   4.281  0.1872  0.0146  0.1167
10846TIP3    H154029   5.911   1.940   4.202 -0.7737 -1.7142  0.8537
10846TIP3    H254030   5.951   2.034   4.314  0.1122  0.5411 -1.3143
10847TIP3   OH254031   5.761   6.349   6.177 -0.3546 -0.5182  0.1245
10847TIP3    H154032   5.704   6.401   6.233 -0.4202 -0.0513 -0.3726
10847TIP3    H254033   5.708   6.330   6.100 -0.3208 -1.3050  0.2931
10848TIP3   OH254034   0.072   5.636   1.434 -0.3722 -0.1880 -0.5634
10848TIP3    H154035   0.088   5.675   1.348  0.5803  2.1786  0.6265
10848TIP3    H254036   0.107   5.700   1.496 -0.0235 -2.3655  1.5558
10849TIP3   OH254037   1.135   1.390   1.880  0.6886  0.3373 -0.5822
10849TIP3    H154038   1.190   1.354   1.810  0.5514 -0.4252 -0.2956
10849TIP3    H254039   1.187   1.461   1.917  1.3136 -0.1173 -0.5825
10850TIP3   OH254040   2.499   1.044  15.235 -0.7647  0.0097 -0.5272
10850TIP3    H154041   2.461   0.999  15.159 -1.9623  2.8587 -1.6700
10850TIP3    H254042   2.577   1.086  15.201 -1.7670  2.0141 -0.4365
10851TIP3   OH254043   0.433   0.637  16.005 -0.1182  0.0424 -0.2269
10851TIP3    H154044   0.368   0.653  15.935 -0.9491  1.5566  0.8596
10851TIP3    H254045   0.480   0.720  16.012 -2.1838  1.0067  3.1818
10852TIP3   OH254046   5.781   2.488  16.516  0.4409  0.1278  0.1134
10852TIP3    H154047   5.724   2.516  16.588  1.2695 -1.4585  1.4447
10852TIP3    H254048   5.867   2.524  16.539  0.9215 -1.1881  0.4648
10853TIP3   OH254049   3.464   0.740   0.823 -0.1576  0.4316  0.7375
10853TIP3    H154050   3.509   0.824   0.831  0.0231  0.2331  1.8765
10853TIP3    H254051   3.455   0.709   0.913  0.0345 -0.9116  0.3040
10854TIP3   OH254052   4.212   2.942  14.419  0.4368 -0.2663  0.2033
10854TIP3    H154053   4.300   2.931  14.456  0.3074 -2.7977 -0.1591
10854TIP3    H254054   4.178   2.853  14.412 -1.9680  0.6478 -0.1616
10855TIP3   OH254055   0.305   0.401  12.054 -0.0040 -0.0919  0.3366
10855TIP3    H154056   0.275   0.471  12.111  0.4911  1.0422 -0.7724
10855TIP3    H254057   0.395   0.425  12.031  0.0931 -0.9750 -0.2409
10856TIP3   OH254058   2.040   5.504  16.021  0.6937  0.4145  0.1291
10856TIP3    H154059   2.060   5.463  15.936  1.3599 -1.4529  1.1611
10856TIP3    H254060   2.120   5.550  16.045  1.3527 -1.0842  0.8711
10857TIP3   OH254061   5.740   2.083   3.463  1.0461 -0.1806 -0.0459
10857TIP3    H154062   5.796   2.152   3.497  1.2105 -1.0838  1.5777
10857TIP3    H254063   5.653   2.124   3.456  0.9972  0.0113  1.5437
10858TIP3   OH254064   4.227   5.844   5.063 -0.0474 -0.6836  0.1514
10858TIP3    H154065   4.136   5.871   5.050  0.1092 -0.0534  0.3785
10858TIP3    H254066   4.278   5.924   5.057  0.3916 -0.8862  1.0372
10859TIP3   OH254067   0.320   2.796   4.450  0.2274  0.6381  0.4016
10859TIP3    H154068   0.398   2.770   4.400  0.4790 -1.1158  1.6832
10859TIP3    H254069   0.277   2.861   4.394  0.7823 -0.8837 -1.8642
10860TIP3   OH254070   5.080   4.765   5.309 -0.1036  0.6714  0.6698
10860TIP3    H154071   5.007   4.703   5.298  0.7213  0.0313 -1.3410
10860TIP3    H254072   5.051   4.845   5.265  0.4473  0.3747 -0.2438
10861TIP3   OH254073   0.211   1.845  14.766 -0.4024  0.2400 -0.5836
10861TIP3    H154074   0.286   1.889  14.726 -0.0552  0.7191  0.5884
10861TIP3    H254075   0.180   1.905  14.834 -3.1219  0.9730 -2.3621
10862TIP3   OH254076   2.215   2.886   0.618 -0.6364 -0.4013  0.0136
10862TIP3    H154077   2.164   2.965   0.638  1.1179 -0.0337  3.2353
10862TIP3    H254078   2.303   2.918   0.598  0.1048 -1.5304  1.4097
10863TIP3   OH254079   6.556   2.240  11.362 -0.1419 -0.3845  0.3208
10863TIP3    H154080   6.500   2.169  11.331 -0.5782  0.5348 -1.0280
10863TIP3    H254081   6.524   2.258  11.450  0.3552 -2.2455  0.9097
10864TIP3   OH254082   6.333   2.242  13.268 -0.7195 -0.0014  0.1685
10864TIP3    H154083   6.299   2.254  13.357 -0.7148 -0.0737  0.1801
10864TIP3    H254084   6.354   2.331  13.239  1.5802 -0.1723  1.1639
10865TIP3   OH254085   4.931   4.221  15.170  0.0209 -0.0919 -0.1635
10865TIP3    H154086   5.010   4.275  15.163  0.8243 -1.0882  0.8957
10865TIP3    H254087   4.921   4.206  15.264 -1.1808 -0.3484 -0.3293
10866TIP3   OH254088   2.586   3.799  17.241  0.1303  0.0343  0.1072
10866TIP3    H154089   2.675   3.819  17.214  0.0736  0.8301  0.4843
10866TIP3    H254090   2.594   3.771  17.332  0.2460 -2.0232 -0.5163
10867TIP3   OH254091   1.682   5.988  11.744  0.8046 -0.2417  0.0046
10867TIP3    H154092   1.590   6.015  11.735  0.7010 -0.8596 -0.8140
10867TIP3    H254093   1.704   5.949  11.660  2.0941  0.6915 -0.0988
10868TIP3   OH254094   0.722   5.596   5.608  0.0177  0.1962  0.4227
10868TIP3    H154095   0.736   5.590   5.514  1.6670  0.9751  0.6063
10868TIP3    H254096   0.754   5.513   5.643 -0.4647 -0.0351  0.3276
10869TIP3   OH254097   1.400   5.433   1.147 -0.7417  0.7186 -0.5060
10869TIP3    H154098   1.365   5.449   1.060  1.7338  0.0240 -1.6762
10869TIP3    H254099   1.401   5.337   1.155  0.5090  0.7356 -0.3519
10870TIP3   OH254100   4.085   5.507   3.515  0.1416  0.6000 -0.2052
10870TIP3    H154101   4.143   5.446   3.469  1.2836  1.1020  0.5542
10870TIP3    H254102   4.139   5.544   3.585 -1.5000  0.0164  1.4136
10871TIP3   OH254103   5.214   1.735   6.547 -0.1231  0.3523 -0.1003
10871TIP3    H154104   5.170   1.669   6.494  0.8984 -1.7141  1.5538
10871TIP3    H254105   5.301   1.744   6.507 -0.5379  1.2964 -0.8021
10872TIP3   OH254106   3.948   3.973   1.202 -0.4414  0.3373 -0.2534
10872TIP3    H154107   3.906   3.912   1.142 -1.5243 -0.0401  0.8512
10872TIP3    H254108   3.991   3.917   1.266 -1.1367  0.7164  0.5605
10873TIP3   OH254109   3.629   4.367  12.124  0.4396 -0.1702 -0.1613
10873TIP3    H154110   3.610   4.408  12.039 -0.6587 -0.1153  0.1052
10873TIP3    H254111   3.592   4.279  12.117  1.1472 -0.4862 -0.0538
10874TIP3   OH254112   1.789   5.600  12.630  0.2168 -0.1784  0.3330
10874TIP3    H154113   1.761   5.648  12.553  0.2477  0.3226  0.6343
10874TIP3    H254114   1.884   5.590  12.619  0.7658  2.7162  1.8554
10875TIP3   OH254115   3.888   5.541   2.796  0.3247  1.0633  0.5060
10875TIP3    H154116   3.853   5.566   2.711  0.6097 -1.4156 -0.3802
10875TIP3    H254117   3.812   5.522   2.850  0.1728 -1.7974 -0.6280
10876TIP3   OH254118   4.251   6.697  14.146  0.1352  0.8213 -0.7876
10876TIP3    H154119   4.225   6.719  14.057 -1.2792 -0.9976 -0.8510
10876TIP3    H254120   4.202   6.617  14.167  0.8576  0.9056  1.4152
10877TIP3   OH254121   6.693   3.803  16.013 -0.3025  0.0010 -0.2074
10877TIP3    H154122   6.651   3.717  16.021 -1.7055  0.7498  0.5349
10877TIP3    H254123   6.716   3.827  16.103 -0.7345  0.8134 -0.3123
10878TIP3   OH254124   2.854   2.195  16.363 -0.1062 -0.2748 -0.5756
10878TIP3    H154125   2.772   2.173  16.406 -0.2744  1.5285  0.0528
10878TIP3    H254126   2.914   2.125  16.389 -1.5596 -1.9430 -1.5230
10879TIP3   OH254127   5.429   0.878  13.286 -0.3971 -0.2031  0.1447
10879TIP3    H154128   5.517   0.856  13.317 -0.8186  1.0332  2.3519
10879TIP3    H254129   5.439   0.961  13.240 -0.6638  0.8853  1.9914
10880TIP3   OH254130   5.750   6.326  12.638 -0.8038  0.3091  0.5271
10880TIP3    H154131   5.667   6.277  12.638 -1.5630  1.5661  0.4650
10880TIP3    H254132   5.723   6.417  12.627  0.5813  0.7641  0.8899
10881TIP3   OH254133   0.480   1.533   6.035  0.2513  0.4602  0.4006
10881TIP3    H154134   0.546   1.555   5.970  0.7888  2.3398  1.5492
10881TIP3    H254135   0.441   1.451   6.003  1.7339  0.4001 -1.3193
10882TIP3   OH254136   0.560   5.927   0.492 -0.0430  0.6900 -0.5423
10882TIP3    H154137   0.588   5.919   0.583  0.7168  1.0923 -0.7396
10882TIP3    H254138   0.482   5.983   0.496 -0.1400  0.5313 -0.1233
10883TIP3   OH254139   2.395   6.628  12.308  0.1263 -0.7055 -0.0400
10883TIP3    H154140   2.426   6.702  12.256  0.2934 -0.6502  0.1386
10883TIP3    H254141   2.418   6.651  12.398 -2.6226  0.4633  0.4064
10884TIP3   OH254142   6.716   2.102  16.531 -0.1825 -0.1196 -0.0890
10884TIP3    H154143   6.798   2.100  16.481 -0.8909 -1.9556 -1.2260
10884TIP3    H254144   6.721   2.026  16.588 -0.0781  1.0906  1.5354
10885TIP3   OH254145   1.280   6.633   0.704 -0.0095 -0.3359  0.5058
10885TIP3    H154146   1.198   6.630   0.653  1.4608 -0.4502 -1.9218
10885TIP3    H254147   1.271   6.712   0.757 -1.2015  0.3314 -0.6326
10886TIP3   OH254148   1.254   1.392   5.429 -0.0808 -0.6837 -0.0483
10886TIP3    H154149   1.237   1.414   5.338  1.5398  0.8859  0.0121
10886TIP3    H254150   1.264   1.477   5.473  0.0340 -1.4386  1.4206
10887TIP3   OH254151   5.004   4.692   0.851  0.1845  0.0085  0.0209
10887TIP3    H154152   5.035   4.626   0.913 -1.3502 -0.3953  0.3828
10887TIP3    H254153   4.911   4.703   0.871 -0.5748 -0.7958 -2.7833
10888TIP3   OH254154   4.370   2.594   4.250 -0.3514  0.0502  0.2941
10888TIP3    H154155   4.396   2.538   4.177 -1.5444  1.6142 -1.3651
10888TIP3    H254156   4.415   2.556   4.326 -0.9733 -3.0110 -0.8002
10889TIP3   OH254157   5.696   5.906   2.581 -0.2286 -0.0128 -0.8259
10889TIP3    H154158   5.659   5.895   2.668 -2.6685  0.2865 -1.7832
10889TIP3    H254159   5.748   5.986   2.587 -1.0271  0.4471  0.1539
10890TIP3   OH254160   0.644   5.163   6.103  0.0067  0.4115 -0.0965
10890TIP3    H154161   0.573   5.185   6.164  1.0029  0.2997  1.1184
10890TIP3    H254162   0.658   5.070   6.116  0.3082  0.4136 -0.4225
10891TIP3   OH254163   3.895   6.023  14.668  0.1143  0.0772 -0.2273
10891TIP3    H154164   3.868   6.036  14.759  0.2290 -0.0398 -0.1762
10891TIP3    H254165   3.813   6.007  14.621  0.1536 -0.8456  0.0250
10892TIP3   OH254166   5.198   5.401  11.413  0.0347 -0.2751 -0.0493
10892TIP3    H154167   5.193   5.307  11.433 -0.3725 -0.2802 -0.1664
10892TIP3    H254168   5.246   5.438  11.487 -0.6127 -0.4398  0.4687
10893TIP3   OH254169   1.261   0.691  16.235  0.0201 -0.3297  0.0793
10893TIP3    H154170   1.238   0.632  16.306  0.2747 -0.1380  0.3234
10893TIP3    H254171   1.328   0.748  16.273 -3.1321  2.8287  1.1880
10894TIP3   OH254172   1.368   4.426   0.349  0.3674  0.1442  0.1550
10894TIP3    H154173   1.398   4.516   0.355  3.4164 -0.8232  0.1880
10894TIP3    H254174   1.305   4.426   0.277 -0.6947  2.5029  1.0083
10895TIP3   OH254175   2.326   3.022   3.413  0.1322  0.0657  0.1355
10895TIP3    H154176   2.240   2.997   3.446 -0.0138 -1.4857 -1.3626
10895TIP3    H254177   2.383   3.018   3.490 -0.9584  0.3347  0.9734
10896TIP3   OH254178   6.801   6.352   3.872  0.3690  0.2567 -0.0497
10896TIP3    H154179   6.799   6.399   3.788 -0.4619 -0.3934 -0.4103
10896TIP3    H254180   6.735   6.397   3.925 -0.7932 -0.7935 -0.5717
10897TIP3   OH254181   1.180   0.415  12.811  0.2388 -0.0086 -0.5049
10897TIP3    H154182   1.110   0.355  12.782  0.0912 -0.0010 -0.1665
10897TIP3    H254183   1.242   0.416  12.739 -1.0844  1.5139 -1.6583
10898TIP3   OH254184   3.487   2.225  17.289 -0.8173  0.6156 -0.2088
10898TIP3    H154185   3.418   2.192  17.347  0.3129 -0.4273  0.5681
10898TIP3    H254186   3.462   2.196  17.202 -1.4290  0.3587  0.0528
10899TIP3   OH254187   3.516   6.417  14.204  1.0098  0.2126 -0.2325
10899TIP3    H154188   3.452   6.467  14.154  2.0941  0.8078 -1.0479
10899TIP3    H254189   3.545   6.347  14.145 -0.0964 -1.0591  0.7149
10900TIP3   OH254190   4.224   1.722   3.684 -0.0637  0.4562  0.2763
10900TIP3    H154191   4.172   1.743   3.607  1.7866  2.5584 -0.4644
10900TIP3    H254192   4.314   1.717   3.652  0.9357  2.8672  2.4824
10901TIP3   OH254193   4.844   5.239   0.685  0.2732  0.1573 -0.2202
10901TIP3    H154194   4.864   5.147   0.670  2.4413  0.7620 -1.3177
10901TIP3    H254195   4.913   5.269   0.744  0.4823  1.4343 -1.0834
10902TIP3   OH254196   1.761   6.573  12.013 -0.1309  0.2429  0.3555
10902TIP3    H154197   1.729   6.631  11.944 -1.4557  1.1731  1.7169
10902TIP3    H254198   1.856   6.573  12.002 -0.3382  0.0760 -1.6927
10903TIP3   OH254199   0.544   4.143  14.337  0.5533 -0.3445 -0.6879
10903TIP3    H154200   0.484   4.174  14.270  1.0085  2.9694  0.3163
10903TIP3    H254201   0.631   4.159  14.301  0.8027 -0.0582  0.0320
10904TIP3   OH254202   4.120   1.169  16.235  0.0422 -0.0068  0.1510
10904TIP3    H154203   4.076   1.085  16.236 -1.6614  0.8534 -0.6554
10904TIP3    H254204   4.164   1.175  16.320  1.3730 -2.2945 -0.3277
10905TIP3   OH254205   2.099   1.950   3.765  0.0101 -0.2380  0.1019
10905TIP3    H154206   2.170   1.942   3.829 -0.8224  0.6241  1.1652
10905TIP3    H254207   2.086   1.861   3.733  0.4238 -0.6969  1.1658
10906TIP3   OH254208   0.190   6.782  16.753 -0.5604 -0.2931  0.1995
10906TIP3    H154209   0.133   6.764  16.827  0.1837  0.3580  0.9460
10906TIP3    H254210   0.130   6.795  16.679 -1.3066 -0.8930  0.6949
10907TIP3   OH254211   3.801   6.798  17.159  0.2532  0.6952 -0.1538
10907TIP3    H154212   3.780   6.710  17.128 -0.0272  0.7482 -0.1141
10907TIP3    H254213   3.726   6.824  17.211 -0.1400  1.3886 -1.0551
10908TIP3   OH254214   2.342   5.520   4.059  0.2215 -0.2136  0.7168
10908TIP3    H154215   2.326   5.581   4.131 -1.4569 -0.3835  0.4893
10908TIP3    H254216   2.370   5.439   4.101  3.1344  0.8761  1.0010
10909TIP3   OH254217   2.408   4.127   0.091  0.4746 -0.0972  0.1219
10909TIP3    H154218   2.408   4.065   0.164 -0.2283 -1.0848 -0.6958
10909TIP3    H254219   2.472   4.193   0.116  0.1351 -0.3371  1.6950
10910TIP3   OH254220   4.219   4.033  11.693 -0.2666 -0.7020 -0.4121
10910TIP3    H154221   4.240   4.101  11.629  1.5968  0.1032  1.0172
10910TIP3    H254222   4.176   4.079  11.765 -0.9402 -1.3790 -0.3615
10911TIP3   OH254223   6.374   3.482  14.881  0.0109 -0.0348 -0.3420
10911TIP3    H154224   6.392   3.511  14.971  0.6954 -0.1306 -0.4446
10911TIP3    H254225   6.285   3.448  14.884  0.5001 -1.2738  0.6089
10912TIP3   OH254226   4.498   2.372  13.031 -0.0448  1.1408 -0.3673
10912TIP3    H154227   4.442   2.295  13.036 -2.2144  2.6702 -0.2627
10912TIP3    H254228   4.500   2.394  12.937  0.9856  0.6522 -0.4583
10913TIP3   OH254229   3.588   4.537  12.365  0.3380 -0.5396 -0.1522
10913TIP3    H154230   3.585   4.604  12.297  0.5946 -0.0398  0.3227
10913TIP3    H254231   3.618   4.458  12.321 -1.2182 -0.6885 -1.0002
10914TIP3   OH254232   3.675   2.239  12.944 -0.0360  0.2352  0.0826
10914TIP3    H154233   3.769   2.226  12.929 -0.1902 -0.7917  0.0147
10914TIP3    H254234   3.635   2.226  12.858 -0.0830  2.3172 -0.2458
10915TIP3   OH254235   6.280   1.314   3.551 -0.2626 -0.3607 -0.3223
10915TIP3    H154236   6.236   1.396   3.575  2.2268  1.0798 -0.3789
10915TIP3    H254237   6.300   1.324   3.458 -0.8535 -1.4738 -0.5657
10916TIP3   OH254238   1.480   3.000   0.977  0.3523  0.5187 -0.4216
10916TIP3    H154239   1.427   3.051   1.039 -3.2548 -2.1768 -1.1553
10916TIP3    H254240   1.559   2.977   1.026 -0.5698  1.9173  1.7825
10917TIP3   OH254241   0.751   0.324  14.528 -0.4095 -0.3205 -0.3626
10917TIP3    H154242   0.679   0.328  14.591 -0.9109  2.2738 -1.0308
10917TIP3    H254243   0.735   0.243  14.479 -1.3724 -1.1151  1.2297
10918TIP3   OH254244   3.638   3.231   6.433  0.1707 -0.2687 -0.3889
10918TIP3    H154245   3.590   3.217   6.515 -1.1859  0.8171 -0.9625
10918TIP3    H254246   3.653   3.326   6.430 -1.0723 -0.1000 -2.0757
10919TIP3   OH254247   2.291   4.234   1.346  0.3894 -0.9336 -0.0061
10919TIP3    H154248   2.260   4.203   1.431 -0.2654  0.9751  0.4642
10919TIP3    H254249   2.268   4.163   1.285 -2.3394 -0.7825  0.8054
10920TIP3   OH254250   6.755   0.487  14.655  0.1629  0.0792  0.6605
10920TIP3    H154251   6.748   0.557  14.719 -2.6875 -0.6921  1.2762
10920TIP3    H254252   6.721   0.410  14.701  1.9766 -1.4206 -0.4415
10921TIP3   OH254253   2.440   6.280  14.091  0.6188  0.2385 -0.1865
10921TIP3    H154254   2.375   6.350  14.100  0.3631 -0.1377  1.0035
10921TIP3    H254255   2.510   6.320  14.039  0.5265  1.4268  0.5757
10922TIP3   OH254256   6.095   6.132   4.170 -0.0858 -0.7723  0.0057
10922TIP3    H154257   6.102   6.205   4.231  1.5956 -0.4020 -0.5965
10922TIP3    H254258   6.135   6.165   4.089 -1.0134 -1.7289 -0.8543
10923TIP3   OH254259   4.923   0.019   3.415 -0.5423 -0.6238  0.4478
10923TIP3    H154260   4.946  -0.054   3.472  1.2200 -0.3478  0.1310
10923TIP3    H254261   4.936  -0.015   3.326 -1.6071 -0.5310  0.2587
10924TIP3   OH254262   2.932   3.358  12.056 -0.3722 -0.3048 -0.0541
10924TIP3    H154263   2.950   3.407  12.136  0.5714 -0.2898 -0.2627
10924TIP3    H254264   3.019   3.335  12.022 -0.7891 -1.9702 -0.0492
10925TIP3   OH254265   1.286   5.702  14.297 -0.0710  0.2130 -0.8944
10925TIP3    H154266   1.277   5.797  14.298  4.9632  0.8751 -2.8635
10925TIP3    H254267   1.294   5.679  14.205  0.4552 -1.9070 -0.3645
10926TIP3   OH254268   2.642   5.601  13.260 -0.0236  0.8873  0.0216
10926TIP3    H154269   2.558   5.613  13.304 -2.3005 -1.9161 -3.2841
10926TIP3    H254270   2.707   5.607  13.330 -3.2596 -0.6839  3.3331
10927TIP3   OH254271   0.890   0.124  15.388  0.1848  0.7963  0.1021
10927TIP3    H154272   0.924   0.133  15.477 -2.0811  1.6715  0.9100
10927TIP3    H254273   0.842   0.042  15.389  1.6217 -0.0849 -0.8444
10928TIP3   OH254274   3.504   5.030  12.294 -0.0729 -0.3714  0.4669
10928TIP3    H154275   3.522   5.082  12.373 -1.5900 -0.9928  1.2334
10928TIP3    H254276   3.418   4.993  12.309 -0.9766  0.6083 -2.1121
10929TIP3   OH254277   0.336   6.607  11.872  0.3135 -0.5506  0.0185
10929TIP3    H154278   0.396   6.663  11.921  0.6506 -1.6605  0.9085
10929TIP3    H254279   0.319   6.533  11.931  2.9349 -3.3568 -2.5832
10930TIP3   OH254280   3.284   0.800  11.334  0.0631  0.1208  0.4895
10930TIP3    H154281   3.336   0.755  11.268  0.9020  0.9402  0.5794
10930TIP3    H254282   3.287   0.892  11.308 -1.2558  0.1974  0.5566
10931TIP3   OH254283   3.766   6.767  16.272 -0.9285  0.3114  0.2621
10931TIP3    H154284   3.832   6.724  16.327  0.3952  2.1720  0.2055
10931TIP3    H254285   3.773   6.724  16.187  1.4140  1.5762 -0.2281
10932TIP3   OH254286   4.666   1.372  10.461  0.9042  0.3918  0.0277
10932TIP3    H154287   4.749   1.330  10.440  0.6760  1.5380 -3.5408
10932TIP3    H254288   4.678   1.463  10.435 -1.4223  0.5974 -0.4072
10933TIP3   OH254289   5.872   5.809   2.873  0.3692  0.6680  0.7115
10933TIP3    H154290   5.843   5.806   2.964  0.0426  1.2115  0.6278
10933TIP3    H254291   5.952   5.862   2.876  1.1761 -0.5522  0.8949
10934TIP3   OH254292   0.217   4.733   2.982 -0.9187 -0.4255 -0.0647
10934TIP3    H154293   0.268   4.709   2.904 -0.6433 -1.3649  0.4013
10934TIP3    H254294   0.198   4.650   3.025  0.1570  0.1789  1.6465
10935TIP3   OH254295   6.517   0.501   0.577  0.7705  0.2178 -0.4573
10935TIP3    H154296   6.451   0.445   0.618  1.0557 -0.0359 -0.3393
10935TIP3    H254297   6.544   0.561   0.646  0.0192  0.9134 -0.7550
10936TIP3   OH254298   6.587   3.999   5.441  0.0385  0.0013 -0.2137
10936TIP3    H154299   6.616   3.986   5.531  0.5534 -0.1496 -0.4001
10936TIP3    H254300   6.663   4.035   5.396 -0.4598  0.8356 -0.4029
10937TIP3   OH254301   4.330   2.999   5.695 -0.0435  0.1700  0.0197
10937TIP3    H154302   4.323   3.062   5.623  2.2195  0.5171  0.0542
10937TIP3    H254303   4.244   2.957   5.699 -0.4990  0.8029 -2.2950
10938TIP3   OH254304   6.280   1.436   5.081 -0.6800  0.0048  0.9132
10938TIP3    H154305   6.370   1.457   5.107 -0.6088  1.7455 -0.6059
10938TIP3    H254306   6.273   1.342   5.095  2.1748 -0.6058 -1.1621
10939TIP3   OH254307   0.922   5.363   0.837 -0.1225 -0.1444 -0.5474
10939TIP3    H154308   0.998   5.316   0.871  0.1353 -0.8392 -2.0565
10939TIP3    H254309   0.859   5.362   0.909  1.4843  0.8937  0.8976
10940TIP3   OH254310   5.054   0.310  11.176 -0.4066 -0.1610 -0.0968
10940TIP3    H154311   5.081   0.293  11.086 -2.6722 -0.9368 -0.6606
10940TIP3    H254312   5.005   0.232  11.202  1.7959 -0.7559  2.4689
10941TIP3   OH254313   1.134   3.517   6.152 -0.0292  0.3657  0.6196
10941TIP3    H154314   1.126   3.583   6.221  0.7106  0.3566  0.7202
10941TIP3    H254315   1.228   3.510   6.136 -0.0545 -1.0968  1.0386
10942TIP3   OH254316   4.640   1.850   1.529 -0.2130 -0.7382  0.4367
10942TIP3    H154317   4.575   1.782   1.548 -1.2878  0.0662 -0.2654
10942TIP3    H254318   4.714   1.829   1.585 -1.0529 -1.7312  1.1969
10943TIP3   OH254319   2.396   1.625  15.009 -0.1625  0.1524  0.2822
10943TIP3    H154320   2.468   1.633  14.947  1.2781 -0.4694  1.8376
10943TIP3    H254321   2.345   1.706  14.998  1.0639  0.8253 -0.4701
10944TIP3   OH254322   2.553   3.528  12.384  0.5340 -0.5793 -0.7505
10944TIP3    H154323   2.583   3.611  12.421  1.6586 -1.3403  0.0661
10944TIP3    H254324   2.505   3.554  12.305  1.4562  0.8058 -0.8848
10945TIP3   OH254325   3.266   2.079   0.263  0.2360  0.4530  0.3574
10945TIP3    H154326   3.233   2.163   0.230 -0.8279  0.0590  0.4255
10945TIP3    H254327   3.318   2.102   0.340 -0.9185  0.9546  0.9957
10946TIP3   OH254328   6.259   5.002   6.603 -0.4457 -0.5418 -0.0059
10946TIP3    H154329   6.329   4.977   6.664 -1.5404 -0.9284  1.1100
10946TIP3    H254330   6.182   4.954   6.633 -1.8395  1.7758  0.3126
10947TIP3   OH254331   4.023   3.941  13.021  0.1789  0.5025  0.3678
10947TIP3    H154332   3.967   4.001  13.070 -0.1749  1.5250 -1.2459
10947TIP3    H254333   3.986   3.854  13.038 -1.4357  1.0964 -0.0591
10948TIP3   OH254334   3.378   6.714  12.953 -0.3430  0.2422  0.1876
10948TIP3    H154335   3.316   6.787  12.953  0.0717  0.5917  0.6507
10948TIP3    H254336   3.447   6.740  13.013  0.8489  0.3522 -1.1929
10949TIP3   OH254337   5.283   1.840  16.026 -0.5948 -0.1394  0.1096
10949TIP3    H154338   5.336   1.765  16.050  2.8085  1.4607 -2.0252
10949TIP3    H254339   5.297   1.903  16.097 -0.9423 -0.3234  0.3422
10950TIP3   OH254340   0.076   3.250   2.509  0.3188  0.2055  0.3896
10950TIP3    H154341   0.103   3.211   2.593 -0.4361  0.5248  0.7826
10950TIP3    H254342  -0.017   3.268   2.520 -0.0069 -0.6750 -0.8887
10951TIP3   OH254343   5.969   1.027  17.011 -0.3987  0.2920 -0.0453
10951TIP3    H154344   6.005   0.958  17.067 -1.2541  0.5165  0.7864
10951TIP3    H254345   5.978   1.107  17.062 -0.1782  0.6760 -0.6798
10952TIP3   OH254346   6.436   4.919   2.844  0.5710 -0.1059  0.1569
10952TIP3    H154347   6.437   4.923   2.939  3.2178 -0.3316  0.1844
10952TIP3    H254348   6.350   4.953   2.819  0.2779  1.0045  2.5676
10953TIP3   OH254349   4.411   1.655  16.235  0.0159 -0.5176 -0.0432
10953TIP3    H154350   4.502   1.672  16.211 -0.2627 -0.5255 -1.1275
10953TIP3    H254351   4.403   1.559  16.232  0.0266 -0.5277  0.2537
10954TIP3   OH254352   2.838   1.478   0.698  0.0935  0.4035  0.0286
10954TIP3    H154353   2.749   1.469   0.732  0.3390  1.6515  1.0461
10954TIP3    H254354   2.872   1.557   0.740  0.8943  1.2475 -2.1144
10955TIP3   OH254355   5.370   1.958   3.605  0.4595  0.1456  0.6951
10955TIP3    H154356   5.370   1.891   3.537 -3.1153 -0.4076  1.1435
10955TIP3    H254357   5.461   1.963   3.634  1.4048 -2.0598 -1.7068
10956TIP3   OH254358   1.285   0.704  16.547 -0.1883 -0.4733 -0.1134
10956TIP3    H154359   1.321   0.759  16.477  0.3803  0.6897  1.0688
10956TIP3    H254360   1.316   0.745  16.628 -0.6344 -1.9430  0.8188
10957TIP3   OH254361   5.595   2.662  15.972 -0.6530  0.2437 -0.0669
10957TIP3    H154362   5.519   2.719  15.961 -1.6727 -1.1083 -0.1904
10957TIP3    H254363   5.655   2.711  16.028 -2.0646  0.9084  0.8725
10958TIP3   OH254364   6.215   4.012   3.735 -0.0438  0.1100  0.3442
10958TIP3    H154365   6.239   4.099   3.704 -0.1754  0.0805  0.1564
10958TIP3    H254366   6.295   3.960   3.725 -0.0039  0.1749  0.3258
10959TIP3   OH254367   3.608   4.293   2.978 -0.6492 -0.0269  0.0428
10959TIP3    H154368   3.696   4.277   3.013 -1.0201 -2.8274 -0.1611
10959TIP3    H254369   3.623   4.337   2.895  0.4920  0.7061  0.6117
10960TIP3   OH254370   1.088   1.921   1.843  0.4722 -0.2709  0.1664
10960TIP3    H154371   1.133   1.897   1.924 -2.7866  2.2118  2.8858
10960TIP3    H254372   1.002   1.877   1.850  0.4855 -0.7943 -2.4421
10961TIP3   OH254373   3.828   4.139  16.858  0.3702  0.6428 -0.3956
10961TIP3    H154374   3.898   4.075  16.847  0.7167  1.1292 -1.0355
10961TIP3    H254375   3.813   4.142  16.953 -0.1645 -0.9305 -0.3968
10962TIP3   OH254376   2.555   0.857   4.157 -0.5362  0.6024 -0.0788
10962TIP3    H154377   2.528   0.935   4.206  0.8145  1.5806 -0.8716
10962TIP3    H254378   2.633   0.884   4.109  0.4137 -1.4619  0.2365
10963TIP3   OH254379   4.117   4.328  12.374  0.3372 -0.4010 -0.3512
10963TIP3    H154380   4.045   4.269  12.395 -0.3742  0.6657  0.2182
10963TIP3    H254381   4.151   4.295  12.291 -1.6546 -0.1574 -1.3064
10964TIP3   OH254382   6.752   6.795   4.934  0.1660  0.1489 -0.7695
10964TIP3    H154383   6.677   6.815   4.878  0.8083  0.6701 -1.4402
10964TIP3    H254384   6.717   6.800   5.023 -0.6104  0.3373 -1.0842
10965TIP3   OH254385   6.161   6.099   0.048 -0.4632  0.6231 -0.2630
10965TIP3    H154386   6.244   6.063   0.016 -1.3322  0.2652 -2.1865
10965TIP3    H254387   6.185   6.183   0.087  1.2964 -1.0739  2.4644
10966TIP3   OH254388   1.030   2.346   5.668 -0.6658  0.1830  0.0251
10966TIP3    H154389   0.974   2.348   5.589 -0.3333  1.0011 -0.1942
10966TIP3    H254390   0.985   2.285   5.727 -0.9791 -0.3527 -0.7528
10967TIP3   OH254391   3.541   1.924  10.418  0.4240  0.5471  0.2742
10967TIP3    H154392   3.493   1.947  10.497  0.4055  2.9380 -0.3730
10967TIP3    H254393   3.552   1.830  10.423 -0.0942  0.5762  2.8312
10968TIP3   OH254394   1.536   0.719   1.277  0.5419 -0.3411 -0.1725
10968TIP3    H154395   1.509   0.637   1.318 -0.3879  0.0383  0.0054
10968TIP3    H254396   1.621   0.739   1.316  0.0322 -0.3986  0.9978
10969TIP3   OH254397   4.107   4.880   0.921  0.3380  0.1155 -0.0685
10969TIP3    H154398   4.086   4.958   0.869 -1.0056 -1.1945 -1.5293
10969TIP3    H254399   4.201   4.869   0.911  0.2910  0.6320 -1.1561
10970TIP3   OH254400   3.149   6.790  12.287 -0.5276 -0.2241 -0.0337
10970TIP3    H154401   3.138   6.740  12.207 -0.4205  0.6988 -0.6277
10970TIP3    H254402   3.208   6.861  12.263 -1.8974  1.0883  0.4061
10971TIP3   OH254403   5.803   4.658  12.958  0.0694 -0.0319  0.3390
10971TIP3    H154404   5.886   4.626  12.993  0.2143 -1.3517 -1.1269
10971TIP3    H254405   5.748   4.674  13.034  1.5186  0.4236  1.3028
10972TIP3   OH254406   2.452   5.873   5.517  0.6797  0.3591  0.6308
10972TIP3    H154407   2.542   5.843   5.502  0.6374  0.2144  0.6573
10972TIP3    H254408   2.426   5.914   5.435  0.0974 -1.3236 -0.0555
10973TIP3   OH254409   2.617   4.895   2.652  0.2771  0.7671  0.8313
10973TIP3    H154410   2.642   4.987   2.661  0.2791  1.0032 -1.3666
10973TIP3    H254411   2.566   4.892   2.571  1.2993 -1.3739  0.2324
10974TIP3   OH254412   0.664   1.488  16.119  0.0001 -0.0197  0.1473
10974TIP3    H154413   0.673   1.579  16.090  0.3139  0.0448  0.4608
10974TIP3    H254414   0.753   1.455  16.125 -0.0691 -0.0577  0.9888
10975TIP3   OH254415   6.533   0.676   0.784  0.0619 -0.1346 -0.2428
10975TIP3    H154416   6.498   0.649   0.869 -1.2099  1.8180 -0.1021
10975TIP3    H254417   6.620   0.711   0.804  0.4061 -1.1402  0.0240
10976TIP3   OH254418   1.761   3.639   1.903 -0.2687 -0.4018 -0.2108
10976TIP3    H154419   1.679   3.628   1.854  0.4268  0.3163 -1.5731
10976TIP3    H254420   1.767   3.733   1.918 -1.3037 -0.7749  2.7544
10977TIP3   OH254421   3.876   4.456  13.269  0.1847 -0.0068 -0.5443
10977TIP3    H154422   3.795   4.440  13.318 -0.1726  0.1596 -1.0821
10977TIP3    H254423   3.881   4.385  13.206 -0.1089  0.6000 -1.2516
10978TIP3   OH254424   0.342   0.168   4.840  0.1128 -0.2233  0.4411
10978TIP3    H154425   0.358   0.222   4.917  0.7621 -2.0738  1.6395
10978TIP3    H254426   0.310   0.085   4.876 -0.1506 -0.8889 -1.3136
10979TIP3   OH254427   6.039   5.892   0.762  0.0942 -0.0981  0.7629
10979TIP3    H154428   6.057   5.799   0.776  0.7765  0.0594  0.9755
10979TIP3    H254429   5.981   5.915   0.834  1.0596 -0.0371  1.5390
10980TIP3   OH254430   0.334   0.241   1.059 -0.4193 -0.0704  0.0975
10980TIP3    H154431   0.245   0.223   1.029 -0.4478  2.2357 -1.3054
10980TIP3    H254432   0.388   0.231   0.981  0.5903 -1.4518  0.9447
10981TIP3   OH254433   1.542   6.289   0.222 -0.2572 -0.4503  0.0952
10981TIP3    H154434   1.481   6.335   0.165 -0.8002  0.5548  1.4735
10981TIP3    H254435   1.487   6.230   0.273  0.2266 -1.3292 -0.3780
10982TIP3   OH254436   5.262   2.951  10.803 -0.7201  0.0649  0.4596
10982TIP3    H154437   5.244   2.884  10.869  0.5949 -0.8348 -0.0684
10982TIP3    H254438   5.307   3.020  10.851 -0.1530 -0.3908  0.5847
10983TIP3   OH254439   4.954   0.910   4.651 -0.2931 -0.1191 -0.1242
10983TIP3    H154440   5.044   0.930   4.625 -1.0224 -0.2194 -2.9068
10983TIP3    H254441   4.912   0.996   4.658 -0.7216 -0.1702 -1.7838
10984TIP3   OH254442   6.240   2.601   1.309 -0.4456  0.3250  0.4490
10984TIP3    H154443   6.293   2.586   1.387 -0.8836 -0.1548  0.6554
10984TIP3    H254444   6.178   2.669   1.336 -1.2793 -0.5789  0.8490
10985TIP3   OH254445   3.008   3.276  15.541  0.4128  0.5538 -0.5903
10985TIP3    H154446   3.042   3.263  15.453 -0.4453 -2.1232 -0.5661
10985TIP3    H254447   2.936   3.214  15.549  1.0687  0.0612  2.3089
10986TIP3   OH254448   0.080   5.840  11.254 -0.4067  0.5207 -0.3328
10986TIP3    H154449   0.048   5.928  11.234 -1.6708  0.4806  1.4522
10986TIP3    H254450   0.065   5.791  11.173  0.6129  2.0112 -1.4512
10987TIP3   OH254451   0.898   5.708   2.900 -0.1675 -0.7666 -0.0139
10987TIP3    H154452   0.902   5.625   2.946 -0.8382 -0.1200  1.2286
10987TIP3    H254453   0.988   5.741   2.901 -0.2002 -0.7032  0.9332
10988TIP3   OH254454   2.009   0.381  16.481 -0.3972  0.9344 -0.9655
10988TIP3    H154455   2.022   0.461  16.532 -0.9386  0.3059  0.1950
10988TIP3    H254456   1.915   0.381  16.461 -0.1303  1.3276 -2.2315
10989TIP3   OH254457   2.298   1.044  16.525 -0.5938 -0.5904  0.3676
10989TIP3    H154458   2.269   1.069  16.437 -0.6179  0.0723  0.5669
10989TIP3    H254459   2.260   1.109  16.583 -0.7630 -1.1586  0.8991
10990TIP3   OH254460   1.138   0.111  13.681 -0.2628  0.7226  0.2966
10990TIP3    H154461   1.188   0.036  13.649 -0.1849  0.9900 -0.2074
10990TIP3    H254462   1.080   0.134  13.608  0.2596  1.6426  0.1627
10991TIP3   OH254463   3.997   1.078   0.486 -0.5806  0.1507  0.2800
10991TIP3    H154464   3.921   1.023   0.504  0.6431 -1.6681  0.0056
10991TIP3    H254465   3.995   1.093   0.392 -2.1556  2.4676  0.6518
10992TIP3   OH254466   0.166   5.635  16.576 -0.1550  0.1986 -0.0238
10992TIP3    H154467   0.085   5.645  16.626  0.6018  3.6860  0.6926
10992TIP3    H254468   0.158   5.699  16.504  1.7776  0.3439 -0.1422
10993TIP3   OH254469   0.549   6.015   4.475 -0.1535 -0.2668  0.1121
10993TIP3    H154470   0.511   6.066   4.404 -0.5614  2.6072  2.3101
10993TIP3    H254471   0.637   5.993   4.445 -1.0992 -1.0476 -2.1748
10994TIP3   OH254472   4.959   0.160   4.696  0.5269  0.4111 -0.4291
10994TIP3    H154473   4.912   0.095   4.748  0.5850  0.4621 -0.3132
10994TIP3    H254474   4.999   0.110   4.625  1.0647  0.2333 -0.0024
10995TIP3   OH254475   4.140   0.812  16.018  0.1694 -0.0817  0.2320
10995TIP3    H154476   4.082   0.826  16.093 -0.2645 -0.7175  0.0236
10995TIP3    H254477   4.157   0.718  16.018  1.0790  0.0792  0.1944
10996TIP3   OH254478   4.971   4.756  14.228  0.2402 -0.2155 -0.7067
10996TIP3    H154479   4.973   4.849  14.206  1.9504 -0.2527 -0.7939
10996TIP3    H254480   4.889   4.744  14.276  0.9775  1.7366  1.1179
10997TIP3   OH254481   3.937   6.772  12.364  0.0548  0.3320 -0.1004
10997TIP3    H154482   4.022   6.731  12.350 -0.2567  0.2364 -1.7719
10997TIP3    H254483   3.881   6.734  12.297 -1.2410  0.6227  0.7911
10998TIP3   OH254484   6.412   6.032   6.032 -0.1258 -0.4676  0.3982
10998TIP3    H154485   6.350   6.105   6.041  1.7757  1.1766  0.5627
10998TIP3    H254486   6.436   6.032   5.939 -0.1202 -0.8727  0.3981
10999TIP3   OH254487   6.686   1.498   2.746  0.0978  0.3825  0.7468
10999TIP3    H154488   6.654   1.499   2.656 -0.2494  1.0068  0.8736
10999TIP3    H254489   6.752   1.567   2.749 -1.1194  1.5530  1.3994
11000TIP3   OH254490   4.464   3.121   0.927 -0.4478 -0.7546 -0.1551
11000TIP3    H154491   4.399   3.074   0.876 -1.3768 -0.3567  0.6269
11000TIP3    H254492   4.413   3.168   0.993  0.5422  0.4893 -0.2557
11001TIP3   OH254493   3.401   4.724  14.114 -0.0258 -0.2999 -0.9413
11001TIP3    H154494   3.339   4.650  14.115 -1.1946  0.6670 -1.2189
11001TIP3    H254495   3.346   4.802  14.119  1.2491  0.5446  0.2668
11002TIP3   OH254496   1.326   2.186  11.042  0.2341  0.1020 -0.0367
11002TIP3    H154497   1.312   2.145  10.957 -0.0568 -1.6025  0.8060
11002TIP3    H254498   1.273   2.265  11.040  0.8960  0.5322 -1.7402
11003TIP3   OH254499   1.013   1.440   3.730  0.3830  0.4276 -0.3324
11003TIP3    H154500   1.021   1.390   3.811  1.1299  0.9528 -0.0824
11003TIP3    H254501   0.961   1.517   3.755 -1.0323 -0.3534 -0.7834
11004TIP3   OH254502   2.242   5.716  16.639  0.5233 -0.4193 -0.0116
11004TIP3    H154503   2.296   5.783  16.681  0.0555  0.2807 -0.5134
11004TIP3    H254504   2.228   5.748  16.550 -1.0966 -0.3476  0.2437
11005TIP3   OH254505   6.551   3.504   1.841  0.0627  0.6077 -0.1496
11005TIP3    H154506   6.623   3.445   1.820  1.0515  2.1326 -1.1956
11005TIP3    H254507   6.509   3.466   1.918  1.4034 -0.7997 -0.1079
11006TIP3   OH254508   3.751   2.128   0.306 -0.5771  0.0107  0.0674
11006TIP3    H154509   3.728   2.058   0.244  1.5190 -0.9651  0.3348
11006TIP3    H254510   3.680   2.128   0.369 -1.9515 -0.0621 -1.4419
11007TIP3   OH254511   6.105   5.541  15.308 -1.3519  0.1828  0.2652
11007TIP3    H154512   6.076   5.567  15.221 -1.3512 -0.6506  0.0103
11007TIP3    H254513   6.131   5.623  15.351 -1.4052  0.5968 -0.4980
11008TIP3   OH254514   6.685   0.261  15.239 -0.2880 -0.0745 -0.2990
11008TIP3    H154515   6.747   0.277  15.310 -1.0771  1.1160  0.1212
11008TIP3    H254516   6.740   0.255  15.161  0.5445 -1.0347  0.3429
11009TIP3   OH254517   0.307   1.559   6.251 -0.7277  0.2780  0.1745
11009TIP3    H154518   0.364   1.551   6.175 -0.5105 -0.9876  0.4592
11009TIP3    H254519   0.262   1.643   6.239 -0.9425 -0.0582 -1.5113
11010TIP3   OH254520   2.430   4.897   3.827  0.0622 -0.2040 -0.0998
11010TIP3    H154521   2.338   4.878   3.810 -0.0951 -0.2824  0.8170
11010TIP3    H254522   2.466   4.814   3.859  0.2699  0.0232  0.2597
11011TIP3   OH254523   3.813   5.121  14.006  0.2469  0.1733 -0.1075
11011TIP3    H154524   3.719   5.103  14.002  0.0103  1.4740 -0.5410
11011TIP3    H254525   3.853   5.053  13.952 -0.6162  0.7568 -1.4937
11012TIP3   OH254526   1.510   3.976   5.130 -0.2909  0.0217 -0.3026
11012TIP3    H154527   1.457   3.965   5.209 -0.9884  1.6945 -0.5262
11012TIP3    H254528   1.583   3.914   5.142 -2.3173 -2.3881 -0.0535
11013TIP3   OH254529   0.233   0.821  15.569  0.0919 -0.2260 -0.8196
11013TIP3    H154530   0.195   0.899  15.528  0.4253 -0.0053 -0.7132
11013TIP3    H254531   0.282   0.855  15.644 -1.2264 -0.7129  0.2789
11014TIP3   OH254532   0.233   1.644  15.038  0.4438  0.1218 -0.1972
11014TIP3    H154533   0.184   1.640  15.120  0.3509  0.9338 -0.2088
11014TIP3    H254534   0.323   1.624  15.064  0.1293 -1.3156 -0.1702
11015TIP3   OH254535   1.310   4.703  16.692 -0.3021 -0.4463 -0.6391
11015TIP3    H154536   1.265   4.734  16.614 -0.4982  1.3992  0.1817
11015TIP3    H254537   1.399   4.683  16.662 -0.9562 -1.7423 -1.7487
11016TIP3   OH254538   0.993   1.617   4.066  0.1201  0.5304  0.3457
11016TIP3    H154539   0.965   1.551   4.129  3.0045 -1.1311 -0.0443
11016TIP3    H254540   0.930   1.610   3.994  0.3422 -1.7553  0.3440
11017TIP3   OH254541   6.033   0.685  14.343 -0.1303 -0.2509 -0.3443
11017TIP3    H154542   6.096   0.702  14.413 -1.0495 -1.0107  0.6627
11017TIP3    H254543   6.087   0.653  14.270  0.5705 -1.5715  0.7405
11018TIP3   OH254544   5.495   6.461   6.196  0.2399  0.4286 -0.6111
11018TIP3    H154545   5.477   6.555   6.184  1.7298  0.6099 -1.5193
11018TIP3    H254546   5.511   6.428   6.107  0.0381 -0.6282 -0.2631
11019TIP3   OH254547   2.166   3.566  12.808  0.0015 -0.3259  0.0999
11019TIP3    H154548   2.248   3.545  12.763 -0.7316 -0.1033 -1.3602
11019TIP3    H254549   2.103   3.503  12.773  0.2893 -2.8040  3.7426
11020TIP3   OH254550   4.531   6.518   5.115  0.2318  0.3954 -0.2531
11020TIP3    H154551   4.531   6.614   5.121 -0.4764  0.3119  1.2737
11020TIP3    H254552   4.618   6.496   5.080  0.4223  1.5888 -0.5466
11021TIP3   OH254553   3.878   1.300  16.130  0.2426 -0.1883 -0.1280
11021TIP3    H154554   3.879   1.341  16.043 -0.3053  0.4332  0.1590
11021TIP3    H254555   3.968   1.271  16.144  0.6221  0.8731 -0.3567
11022TIP3   OH254556   3.662   3.023  11.422  0.4982 -0.0306  0.9423
11022TIP3    H154557   3.605   3.101  11.424  0.2116 -0.1133 -1.6388
11022TIP3    H254558   3.723   3.041  11.350  1.0273 -1.7752  0.9433
11023TIP3   OH254559   2.467   2.915  11.951 -0.0565 -0.7101 -0.6735
11023TIP3    H154560   2.447   2.884  12.039  0.2667  1.2958  0.1392
11023TIP3    H254561   2.384   2.905  11.903 -0.7351 -0.1966  0.3611
11024TIP3   OH254562   5.890   2.954   0.373 -0.1014 -0.9565 -0.1011
11024TIP3    H154563   5.975   2.980   0.336  0.2332 -1.0746  0.5859
11024TIP3    H254564   5.911   2.890   0.440 -0.7513 -1.1049 -0.0357
11025TIP3   OH254565   1.502   4.026   1.915  0.1909  0.1456 -0.2699
11025TIP3    H154566   1.439   4.085   1.873  0.4293  0.3319 -0.3688
11025TIP3    H254567   1.535   4.076   1.989 -0.2093 -0.1738  0.1232
11026TIP3   OH254568   1.734   1.852  13.427  0.0585 -0.1855 -0.2471
11026TIP3    H154569   1.756   1.846  13.334  0.4082 -0.1072 -0.1709
11026TIP3    H254570   1.755   1.943  13.451 -1.4735  0.2349 -0.4633
11027TIP3   OH254571   6.603   5.407  13.480  1.5608  0.1233 -0.2644
11027TIP3    H154572   6.698   5.402  13.467  1.6276 -1.0170  0.5804
11027TIP3    H254573   6.587   5.356  13.559  0.2509  0.4005 -0.3422
11028TIP3   OH254574   3.590   5.229  12.479 -0.2180 -0.1409 -0.1328
11028TIP3    H154575   3.610   5.287  12.553  2.8955 -2.5808  1.0300
11028TIP3    H254576   3.663   5.241  12.418 -0.2380 -1.8257 -0.5041
11029TIP3   OH254577   4.129   4.951  10.558 -0.3273 -0.2644  0.1100
11029TIP3    H154578   4.125   4.855  10.558  0.6564 -0.3152 -0.8299
11029TIP3    H254579   4.174   4.973  10.476 -0.5140  1.0005  0.3368
11030TIP3   OH254580   3.024   3.714  12.808 -0.2691 -0.5109  0.3827
11030TIP3    H154581   3.020   3.708  12.903 -2.4147 -0.2632  0.3308
11030TIP3    H254582   2.938   3.747  12.782  1.3772  2.5607 -1.4369
11031TIP3   OH254583   6.580   2.102   4.331 -0.1488 -0.2095  0.0948
11031TIP3    H154584   6.558   2.100   4.238 -1.8231  2.3217  0.3690
11031TIP3    H254585   6.524   2.035   4.371  0.1647 -0.9044 -0.6217
11032TIP3   OH254586   0.373   6.606  12.571  0.0031 -0.0488 -0.4858
11032TIP3    H154587   0.342   6.645  12.653  2.1209 -0.6074  0.6074
11032TIP3    H254588   0.420   6.678  12.528  1.6019 -0.6120  0.2825
11033TIP3   OH254589   0.283   0.326  13.657 -0.6907 -0.0675 -0.6164
11033TIP3    H154590   0.255   0.263  13.724  0.3072  1.0750  0.9065
11033TIP3    H254591   0.231   0.303  13.580 -1.6284 -1.6240  0.4378
11034TIP3   OH254592   3.737   1.437  11.131 -0.3706 -0.1299 -0.5628
11034TIP3    H154593   3.731   1.491  11.052  1.3126  0.9529  0.0221
11034TIP3    H254594   3.703   1.352  11.105 -0.8870  0.5511 -2.1468
11035TIP3   OH254595   6.254   3.236   0.054 -0.1935 -0.4093 -0.5859
11035TIP3    H154596   6.266   3.169   0.121 -0.8890 -0.5219 -0.5704
11035TIP3    H254597   6.172   3.280   0.078  0.9478  1.3353  0.1547
11036TIP3   OH254598   1.141   6.352   4.382  0.0424 -0.8217  0.2598
11036TIP3    H154599   1.161   6.440   4.414 -3.3892  0.2503 -0.2711
11036TIP3    H254600   1.188   6.293   4.441  2.9307  1.3737  0.2154
11037TIP3   OH254601   3.868   5.780   5.562 -0.4540  0.2110  0.4289
11037TIP3    H154602   3.927   5.787   5.637  1.6156  0.2754 -1.1565
11037TIP3    H254603   3.806   5.852   5.573 -0.3300  0.0574  2.2066
11038TIP3   OH254604   1.830   3.440  12.465  0.6246  0.0944 -0.3065
11038TIP3    H154605   1.791   3.503  12.525  0.6748 -0.6166  0.4686
11038TIP3    H254606   1.772   3.364  12.468  2.6322 -1.4369  1.7352
11039TIP3   OH254607   5.330   6.718   0.812  0.5887 -0.2647  0.2745
11039TIP3    H154608   5.344   6.663   0.735  2.1214 -0.0544  0.3879
11039TIP3    H254609   5.348   6.659   0.886  1.3775  0.1480  0.4155
11040TIP3   OH254610   4.500   5.530  16.551 -0.3556  0.4347  0.3832
11040TIP3    H154611   4.482   5.517  16.644 -2.6648 -0.2785 -0.1244
11040TIP3    H254612   4.464   5.617  16.532  0.6340  0.8274  0.2679
11041TIP3   OH254613   5.218   4.765  17.079  0.1221  0.1384 -0.2395
11041TIP3    H154614   5.257   4.848  17.106 -1.5328  1.1365 -0.8089
11041TIP3    H254615   5.135   4.790  17.037 -0.8167 -1.8410  0.3547
11042TIP3   OH254616   4.696   2.267  17.275 -0.8652 -0.0606 -0.3754
11042TIP3    H154617   4.610   2.231  17.294 -1.5242  0.1179 -2.8636
11042TIP3    H254618   4.737   2.204  17.216 -0.0569  0.8090 -0.7687
11043TIP3   OH254619   2.294   3.818   4.803  0.2461  0.1438  0.7711
11043TIP3    H154620   2.354   3.888   4.830  2.1321 -1.2704  0.3052
11043TIP3    H254621   2.349   3.740   4.797 -1.3539 -0.8738 -1.1545
11044TIP3   OH254622   4.079   2.321  12.517 -0.0210 -0.1942  0.4306
11044TIP3    H154623   4.079   2.235  12.476  0.2207  1.0471 -2.3365
11044TIP3    H254624   3.997   2.361  12.487 -0.3290  0.3943  2.0206
11045TIP3   OH254625   3.018   2.691   0.605  0.3419  0.1213 -0.2693
11045TIP3    H154626   3.009   2.596   0.612 -0.2854  0.1447 -0.6687
11045TIP3    H254627   3.007   2.709   0.511 -1.4983  0.7648  0.0436
11046TIP3   OH254628   6.415   0.674  13.342 -0.1153 -0.5843  0.4354
11046TIP3    H154629   6.422   0.690  13.436  0.6635  0.7103  0.1620
11046TIP3    H254630   6.340   0.727  13.314  0.3921 -0.0429  0.1110
11047TIP3   OH254631   1.118   4.200   5.579 -0.5289 -0.5797 -0.5060
11047TIP3    H154632   1.201   4.159   5.604 -1.1633 -1.5541 -0.0008
11047TIP3    H254633   1.135   4.294   5.588  0.3173 -0.7928  0.2414
11048TIP3   OH254634   6.606   4.694   6.647 -0.1803 -0.1876  0.2255
11048TIP3    H154635   6.671   4.641   6.692  0.5339  0.6529  0.1871
11048TIP3    H254636   6.632   4.691   6.555  0.5830  1.2378  0.3840
11049TIP3   OH254637   4.860   1.063   2.685  0.2979 -0.0041 -0.2748
11049TIP3    H154638   4.898   1.051   2.598  0.2036  0.6675 -0.4103
11049TIP3    H254639   4.815   0.981   2.703 -0.2446  0.1041 -1.1402
11050TIP3   OH254640   6.290   4.835  16.159  0.2925  0.0216 -0.0748
11050TIP3    H154641   6.240   4.805  16.235  1.8273 -1.6141  0.3463
11050TIP3    H254642   6.358   4.891  16.196  0.4237  0.0432 -0.3457
11051TIP3   OH254643   5.644   6.008  13.928 -0.3604  0.2374 -0.0002
11051TIP3    H154644   5.583   5.999  14.001 -1.2626  1.0262 -0.6442
11051TIP3    H254645   5.618   6.090  13.885  1.3169  0.7207 -0.1317
11052TIP3   OH254646   6.798   1.518  12.920 -0.2686  0.0615  0.5174
11052TIP3    H154647   6.753   1.512  13.004 -0.2624  0.3584  0.5424
11052TIP3    H254648   6.733   1.491  12.855  0.1733 -1.6482  0.7513
11053TIP3   OH254649   6.262   5.411   2.340 -0.0705  0.4677 -0.2921
11053TIP3    H154650   6.168   5.392   2.345  0.0390 -0.1104 -0.3660
11053TIP3    H254651   6.300   5.332   2.301  0.6665 -0.0063  1.3588
11054TIP3   OH254652   6.735   1.612  16.842 -0.4373  0.6970 -0.5276
11054TIP3    H154653   6.774   1.559  16.911  0.5030  1.8532 -0.1678
11054TIP3    H254654   6.715   1.696  16.883 -1.3944  0.8266 -1.2393
11055TIP3   OH254655   3.076   4.507  12.076  0.0126  0.1723  0.5567
11055TIP3    H154656   3.030   4.440  12.128 -2.9993  0.7156 -1.3058
11055TIP3    H254657   3.022   4.585  12.085  0.1795  0.6517 -2.2128
11056TIP3   OH254658   1.150   5.356   3.009  0.1193 -0.0374 -0.3851
11056TIP3    H154659   1.211   5.289   2.978  0.1003 -0.8667  1.3548
11056TIP3    H254660   1.147   5.345   3.104 -1.0290  1.4604 -0.2208
11057TIP3   OH254661   0.956   4.617  14.283 -0.1432  0.2675  0.5625
11057TIP3    H154662   0.959   4.607  14.188 -1.3487 -0.9613  0.6511
11057TIP3    H254663   0.973   4.711  14.297 -1.9377  0.8541 -0.9603
11058TIP3   OH254664   0.951   2.888  11.183 -0.2656  0.1963 -0.2078
11058TIP3    H154665   0.937   2.967  11.235 -2.2683 -0.7728  0.7725
11058TIP3    H254666   1.017   2.913  11.119 -1.7107  3.0188 -0.6694
11059TIP3   OH254667   0.283   1.888  15.198 -0.0915  0.2204 -0.0288
11059TIP3    H154668   0.232   1.824  15.147  1.7908  0.0965 -1.8603
11059TIP3    H254669   0.367   1.844  15.213 -0.2402  0.6709  2.3574
11060TIP3   OH254670   5.916   1.147   5.886 -0.2364 -0.3841  0.2309
11060TIP3    H154671   5.847   1.213   5.877 -0.9535 -1.0464  0.7008
11060TIP3    H254672   5.940   1.124   5.797 -0.0955  0.3907  0.0645
11061TIP3   OH254673   1.733   4.971   1.604  0.0617 -0.1042 -0.4920
11061TIP3    H154674   1.650   4.931   1.577  1.0239 -0.9831 -2.2062
11061TIP3    H254675   1.790   4.897   1.621  0.8478  0.5103 -0.4410
11062TIP3   OH254676   3.041   1.105  13.910 -0.4489 -0.4780 -0.1415
11062TIP3    H154677   2.981   1.174  13.939  0.1207 -0.1273  0.2056
11062TIP3    H254678   3.027   1.033  13.971 -0.6939 -0.4834 -0.2056
11063TIP3   OH254679   2.607   2.439   4.198  0.8931 -0.1552 -0.2950
11063TIP3    H154680   2.578   2.523   4.162  1.5038  0.5678  0.8298
11063TIP3    H254681   2.647   2.463   4.282 -0.2180 -1.7286  0.7143
11064TIP3   OH254682   0.806   3.300  16.429  0.2518 -0.0213 -0.7418
11064TIP3    H154683   0.754   3.346  16.496  0.4690 -0.4972 -0.2387
11064TIP3    H254684   0.894   3.336  16.438  0.9903 -2.1879  1.2733
11065TIP3   OH254685   1.341   2.033  11.937 -0.6765 -0.5991 -0.2484
11065TIP3    H154686   1.262   1.988  11.967 -1.2373  0.7942  0.4187
11065TIP3    H254687   1.340   2.021  11.842 -3.4246  2.0656 -0.6414
11066TIP3   OH254688   4.153   2.458   1.888 -0.0982 -1.0157  0.0652
11066TIP3    H154689   4.121   2.532   1.941 -1.3091  0.0183 -2.0418
11066TIP3    H254690   4.083   2.393   1.894  1.1136 -2.1746  2.1935
11067TIP3   OH254691   0.864   3.962  16.563  0.5845  0.5425  0.1976
11067TIP3    H154692   0.853   3.878  16.609 -0.0445  0.2351 -0.5000
11067TIP3    H254693   0.778   3.980  16.526  0.8372  1.2763 -0.0384
11068TIP3   OH254694   5.454   5.667  12.590 -0.1494  0.0872 -0.4627
11068TIP3    H154695   5.393   5.705  12.527  1.0302 -0.2832 -1.8544
11068TIP3    H254696   5.538   5.664  12.543  0.6232 -0.6786  0.9464
11069TIP3   OH254697   2.059   3.724  16.433  0.4596 -0.3140 -0.2265
11069TIP3    H154698   2.009   3.804  16.448  0.3485 -0.4392  0.0655
11069TIP3    H254699   2.097   3.703  16.518  2.5538  0.8296 -0.8427
11070TIP3   OH254700   0.871   6.742   2.232 -0.4070 -0.3251 -0.4169
11070TIP3    H154701   0.836   6.678   2.170  1.3569 -1.8003  0.0706
11070TIP3    H254702   0.838   6.713   2.317  1.5547 -1.4656 -0.0107
11071TIP3   OH254703   1.346   3.847   4.374 -0.2998 -0.4865  1.2444
11071TIP3    H154704   1.333   3.752   4.367  1.3529 -0.6959  0.8070
11071TIP3    H254705   1.383   3.859   4.462  1.7258 -0.5221  0.4153
11072TIP3   OH254706   6.349   6.623   4.059 -0.1194 -0.0420 -0.3071
11072TIP3    H154707   6.413   6.694   4.067 -0.5417  0.7631 -3.2532
11072TIP3    H254708   6.264   6.665   4.075 -0.2763 -0.1031 -0.9565
11073TIP3   OH254709   1.831   6.664  12.295  0.5224 -0.6570  0.0688
11073TIP3    H154710   1.817   6.617  12.213 -0.8784 -0.4218  0.1656
11073TIP3    H254711   1.858   6.597  12.357 -1.4833 -1.3529  0.2099
11074TIP3   OH254712   1.957   4.268   0.003 -0.5076 -0.4577  0.4220
11074TIP3    H154713   2.013   4.306  -0.065  0.0276 -1.7883  0.1198
11074TIP3    H254714   2.006   4.282   0.084  0.9654 -2.8579  0.0073
11075TIP3   OH254715   4.363   5.832  11.844  0.5800  0.3452 -0.2560
11075TIP3    H154716   4.372   5.877  11.928  0.3917  0.1458 -0.1303
11075TIP3    H254717   4.371   5.739  11.865  3.2810  0.4325 -0.8401
11076TIP3   OH254718   2.175   5.087  14.694  0.2453 -0.1091  0.2617
11076TIP3    H154719   2.130   5.149  14.636 -0.1584  0.2598  0.9652
11076TIP3    H254720   2.112   5.017  14.708  0.5184 -0.4385 -0.1209
11077TIP3   OH254721   5.231   5.593  11.987 -0.3530  0.2450  0.4146
11077TIP3    H154722   5.164   5.622  12.049  0.2484  0.5631  0.9227
11077TIP3    H254723   5.273   5.519  12.031 -0.7553 -0.3245 -0.1524
11078TIP3   OH254724   4.952   4.501  12.941  0.1331 -0.0525 -0.6722
11078TIP3    H154725   4.859   4.478  12.949  0.2584 -0.4969 -0.4416
11078TIP3    H254726   4.953   4.585  12.896 -0.3597 -0.3852 -1.3164
11079TIP3   OH254727   1.989   6.228  13.647 -0.8675 -0.3210  0.6409
11079TIP3    H154728   2.021   6.142  13.672 -0.0173  0.1164  1.0669
11079TIP3    H254729   2.068   6.280  13.632 -1.3375 -0.2404 -1.8122
11080TIP3   OH254730   3.333   5.968   2.837 -0.3017  0.2758 -0.6499
11080TIP3    H154731   3.290   5.911   2.902 -1.2468  0.6133 -0.9628
11080TIP3    H254732   3.273   5.966   2.762  0.2791  0.7096 -1.1227
11081TIP3   OH254733   2.216   1.064  16.268 -0.1381 -0.0008  0.1143
11081TIP3    H154734   2.215   0.969  16.277 -0.0441 -0.1382 -1.1682
11081TIP3    H254735   2.242   1.079  16.177 -0.0913  1.2567  0.3252
11082TIP3   OH254736   6.723   2.673  15.750 -0.3942  0.0808 -0.3049
11082TIP3    H154737   6.636   2.679  15.710 -0.4890  0.3468 -0.0588
11082TIP3    H254738   6.752   2.764  15.759  0.1140 -0.0213 -0.8285
11083TIP3   OH254739   2.934   4.864  11.707 -0.1367  0.0252  0.7914
11083TIP3    H154740   2.909   4.800  11.774  1.9151 -1.1259  0.5252
11083TIP3    H254741   2.989   4.927  11.754 -0.3131  0.3301  0.5894
11084TIP3   OH254742   6.448   4.658   6.189 -0.3351 -0.2656 -0.5867
11084TIP3    H154743   6.414   4.746   6.172 -1.2260 -0.3353  0.8255
11084TIP3    H254744   6.375   4.610   6.228  0.7858 -1.0094  0.6449
11085TIP3   OH254745   6.261   2.391  11.347 -0.4361  0.1057 -0.4624
11085TIP3    H154746   6.301   2.375  11.261  0.4840 -1.0080  0.1626
11085TIP3    H254747   6.207   2.314  11.363  0.9959 -0.6378  0.8630
11086TIP3   OH254748   5.801   5.966   1.789 -0.5313 -0.1950  0.2807
11086TIP3    H154749   5.820   6.030   1.721  2.6877  1.0125  2.1816
11086TIP3    H254750   5.779   6.019   1.866 -0.1353 -1.4097  1.2528
11087TIP3   OH254751   1.938   5.284  13.411  0.0907 -0.3754 -0.1007
11087TIP3    H154752   1.909   5.197  13.387 -2.1649 -0.0055  1.1022
11087TIP3    H254753   1.864   5.341  13.390  1.2338  1.1439 -0.1507
11088TIP3   OH254754   3.698   3.891  13.274 -0.0206  0.2788 -0.6039
11088TIP3    H154755   3.747   3.896  13.356  0.1537 -1.2814 -0.5988
11088TIP3    H254756   3.618   3.843  13.297 -1.0237  1.7637 -0.8769
11089TIP3   OH254757   0.225   2.066  11.825 -0.4775 -0.0134  0.4360
11089TIP3    H154758   0.189   2.101  11.906  1.2464  0.1515  1.1575
11089TIP3    H254759   0.257   1.979  11.848 -1.3991 -0.6064 -0.4627
11090TIP3   OH254760   2.462   0.205  14.226  0.3195 -0.5080  0.0302
11090TIP3    H154761   2.384   0.219  14.172  0.6734  0.5569 -0.2150
11090TIP3    H254762   2.490   0.293  14.252  1.5479 -0.8672 -0.0310
11091TIP3   OH254763   3.363   6.090  13.256 -0.2834 -0.6152 -1.1268
11091TIP3    H154764   3.457   6.091  13.238  0.3809 -1.2441  1.9101
11091TIP3    H254765   3.342   5.997  13.264 -0.0516 -0.4016  3.0786
11092TIP3   OH254766   3.346   4.240   3.489 -0.2443 -0.3785  0.2891
11092TIP3    H154767   3.302   4.324   3.499  1.9887  1.0540 -1.5931
11092TIP3    H254768   3.439   4.260   3.498  0.5362 -2.1115 -3.1805
11093TIP3   OH254769   2.811   3.443  13.445 -0.0981 -0.1359  0.3716
11093TIP3    H154770   2.800   3.533  13.476  0.6117 -0.6628  2.2022
11093TIP3    H254771   2.802   3.389  13.524  2.1108 -1.4803 -0.2446
11094TIP3   OH254772   2.444   2.682   2.834 -0.2010 -0.0001  0.2166
11094TIP3    H154773   2.384   2.753   2.810 -1.0291 -0.2884  1.3650
11094TIP3    H254774   2.526   2.726   2.855 -0.0395  0.4153 -1.2025
11095TIP3   OH254775   5.303   5.549  12.938 -0.0165 -1.0473 -0.4446
11095TIP3    H154776   5.290   5.463  12.977 -1.2543 -0.7265 -0.1269
11095TIP3    H254777   5.268   5.610  13.002  1.8896 -0.2144 -0.1651
11096TIP3   OH254778   2.231   3.548  13.179  0.2437  0.2612 -0.2568
11096TIP3    H154779   2.147   3.554  13.224 -0.8642  1.0795 -2.4035
11096TIP3    H254780   2.256   3.638  13.161  1.1334 -0.0214 -0.4996
11097TIP3   OH254781   4.232   4.490   2.377 -0.2065 -0.0249 -0.2907
11097TIP3    H154782   4.162   4.429   2.403 -0.2099 -0.0791 -0.4271
11097TIP3    H254783   4.239   4.551   2.451 -0.6696  0.2202 -0.4465
11098TIP3   OH254784   2.467   1.879   3.657 -0.0145 -0.2537  0.5179
11098TIP3    H154785   2.492   1.826   3.582 -2.6913 -3.1774  1.5923
11098TIP3    H254786   2.515   1.841   3.731  0.2123  0.6466  0.8528
11099TIP3   OH254787   2.886   0.811   2.297  0.3745  0.4153 -0.5466
11099TIP3    H154788   2.837   0.732   2.273 -0.9859  0.7058  1.1454
11099TIP3    H254789   2.851   0.879   2.239  1.8241 -0.2809 -2.2765
11100TIP3   OH254790   2.826   0.141  11.078  0.5701 -0.6096 -0.3558
11100TIP3    H154791   2.911   0.157  11.119  0.6429 -0.0282 -0.7130
11100TIP3    H254792   2.795   0.228  11.054  0.3640 -0.9016 -1.1856
11101TIP3   OH254793   5.636   3.464   3.334  0.3991 -0.0379  0.1441
11101TIP3    H154794   5.726   3.442   3.309  0.7303  0.1636  1.1307
11101TIP3    H254795   5.638   3.465   3.429 -0.3579  1.1870  0.1553
11102TIP3   OH254796   1.480   2.742   3.398 -0.3408  0.3559 -0.1238
11102TIP3    H154797   1.563   2.695   3.393  0.3277  1.5268 -0.3139
11102TIP3    H254798   1.415   2.675   3.418  0.4617 -0.7625 -1.2093
11103TIP3   OH254799   1.053   5.324  16.343 -0.0896 -0.0853  0.0590
11103TIP3    H154800   1.057   5.408  16.389 -2.1608  2.2192 -3.6810
11103TIP3    H254801   0.967   5.289  16.366 -1.6995  1.7052 -2.8451
11104TIP3   OH254802   1.336   5.103  16.361 -0.0104  0.3848 -1.1544
11104TIP3    H154803   1.411   5.090  16.418 -0.3311 -0.8124 -1.0039
11104TIP3    H254804   1.268   5.139  16.419  0.0128  0.2018 -1.0142
11105TIP3   OH254805   6.087   5.711  16.929 -0.0422 -0.1188 -0.0299
11105TIP3    H154806   6.072   5.637  16.987 -0.7494  0.8872  1.1045
11105TIP3    H254807   6.008   5.765  16.938 -0.2829 -0.0811 -2.1474
11106TIP3   OH254808   1.895   5.344  13.970  0.8906  0.1275  0.4143
11106TIP3    H154809   1.884   5.365  14.063 -0.4239 -0.0594  0.3213
11106TIP3    H254810   1.889   5.249  13.966 -3.5741  0.3158 -0.3351
11107TIP3   OH254811   2.120   1.293   1.205 -0.6435  0.5385 -1.1465
11107TIP3    H154812   2.139   1.211   1.159 -0.2321  0.5224 -0.9520
11107TIP3    H254813   2.097   1.265   1.294 -1.6099  0.5568 -1.3841
11108TIP3   OH254814   4.262   3.106  16.715 -0.3115  0.2492  0.2233
11108TIP3    H154815   4.316   3.078  16.789  0.4839  0.3933 -0.2969
11108TIP3    H254816   4.220   3.025  16.684 -0.7993  0.2205  0.9419
11109TIP3   OH254817   0.353   4.684   0.518  0.0317  0.0502  0.2083
11109TIP3    H154818   0.441   4.711   0.492  0.2446  0.1473  1.0106
11109TIP3    H254819   0.349   4.591   0.496  0.9946 -0.3962  1.8807
11110TIP3   OH254820   5.071   4.223  10.800 -0.1586 -0.1290  0.1536
11110TIP3    H154821   5.114   4.145  10.764 -1.8537 -1.3503  0.7110
11110TIP3    H254822   5.100   4.227  10.891 -0.2191 -0.2158  0.1765
11111TIP3   OH254823   4.114   4.409   3.316 -0.1392 -0.1247  0.0013
11111TIP3    H154824   4.107   4.369   3.229 -1.6074 -0.0599  0.0795
11111TIP3    H254825   4.196   4.458   3.313  1.2762 -2.4744 -0.3609
11112TIP3   OH254826   0.265   2.511   1.717 -0.1132  0.5475 -0.1630
11112TIP3    H154827   0.319   2.589   1.731 -0.6533  0.5845  1.9931
11112TIP3    H254828   0.183   2.545   1.681 -0.4719  1.0433  1.0831
11113TIP3   OH254829   6.340   5.275  11.372 -0.2998 -0.7614  0.0123
11113TIP3    H154830   6.367   5.211  11.437 -1.8174 -2.1717 -0.7146
11113TIP3    H254831   6.275   5.329  11.417 -0.9777 -1.4185 -0.1697
11114TIP3   OH254832   5.264   6.220   5.070 -0.7611 -0.3639  0.0921
11114TIP3    H154833   5.295   6.261   4.990  0.0898 -0.7312  0.2245
11114TIP3    H254834   5.341   6.219   5.127 -1.4976  0.4052  1.1183
11115TIP3   OH254835   5.160   1.512   2.771  0.1035  0.3466 -0.2354
11115TIP3    H154836   5.106   1.476   2.841  0.9163  0.4111  0.4357
11115TIP3    H254837   5.247   1.474   2.787  0.6388  1.5312 -0.3280
11116TIP3   OH254838   5.226   4.513   2.222 -0.1311 -0.1506 -0.6469
11116TIP3    H154839   5.214   4.445   2.155  1.1812 -0.3820 -0.6457
11116TIP3    H254840   5.275   4.582   2.177 -2.0186  1.1177 -0.8440
11117TIP3   OH254841   4.606   2.429  12.091 -0.1158  0.3271  0.5114
11117TIP3    H154842   4.640   2.342  12.112 -2.0893 -0.9930 -1.5408
11117TIP3    H254843   4.583   2.467  12.175  0.0916 -1.4207  1.3801
11118TIP3   OH254844   3.785   0.142   4.280  0.2126  0.3015  0.1501
11118TIP3    H154845   3.843   0.108   4.213 -0.2071  0.3256 -0.2307
11118TIP3    H254846   3.705   0.090   4.270  0.1789  0.2515  0.6835
11119TIP3   OH254847   1.214   4.560  13.604 -0.1022  0.5924 -0.0185
11119TIP3    H154848   1.194   4.540  13.513 -0.8822 -0.2775  0.3366
11119TIP3    H254849   1.134   4.538  13.652  0.6296  0.0978  1.0055
11120TIP3   OH254850   6.399   4.559   1.282 -0.4819  0.5035  0.1343
11120TIP3    H154851   6.378   4.466   1.283 -1.1820  0.6503 -0.8021
11120TIP3    H254852   6.333   4.599   1.225  1.3715  1.1924 -1.6039
11121TIP3   OH254853   0.594   2.814  14.842 -0.6786  0.1901  0.5228
11121TIP3    H154854   0.591   2.731  14.891  1.1991  0.2804  0.8385
11121TIP3    H254855   0.572   2.881  14.906  3.0322  0.4454  1.6860
11122TIP3   OH254856   4.354   2.300  13.256  0.1764 -0.2356  0.3782
11122TIP3    H154857   4.368   2.214  13.216 -1.6011 -0.4057  0.0753
11122TIP3    H254858   4.442   2.329  13.282  0.7649 -2.2938  0.8202
11123TIP3   OH254859   0.391   5.591   2.552  0.3201 -0.1102  0.5915
11123TIP3    H154860   0.483   5.618   2.548  0.2718 -0.2089 -2.4778
11123TIP3    H254861   0.367   5.601   2.644  3.6730 -1.0265  1.6372
11124TIP3   OH254862   1.708   6.717   5.007  0.2348 -0.4049 -0.3701
11124TIP3    H154863   1.699   6.772   5.085 -0.7441 -1.0276 -0.0286
11124TIP3    H254864   1.795   6.737   4.973 -0.8119  2.7120 -1.3242
11125TIP3   OH254865   4.502   5.357   2.181  0.0569 -0.4085 -0.8642
11125TIP3    H154866   4.424   5.337   2.129 -0.4155 -0.7377 -0.0439
11125TIP3    H254867   4.485   5.316   2.266  0.9426 -0.1215 -0.5459
11126TIP3   OH254868   6.525   4.166   6.172  0.1745  0.5322 -0.0093
11126TIP3    H154869   6.580   4.123   6.238  1.7314 -0.3674 -1.8692
11126TIP3    H254870   6.435   4.145   6.199  0.8546 -2.3595  0.1477
11127TIP3   OH254871   3.062   1.269  11.463 -0.1287 -0.5666 -0.5178
11127TIP3    H154872   3.051   1.345  11.521  1.9506  0.3869 -1.3396
11127TIP3    H254873   3.090   1.198  11.521 -0.1422 -0.1801 -0.0345
11128TIP3   OH254874   2.714   0.981   0.213  0.2131 -0.4497 -0.3451
11128TIP3    H154875   2.695   0.887   0.221 -1.5599 -0.0281  0.5552
11128TIP3    H254876   2.649   1.013   0.151 -1.7836  0.9075  2.3349
11129TIP3   OH254877   3.787   5.769   5.988 -0.1648  0.2486  0.8482
11129TIP3    H154878   3.854   5.751   6.054  1.0552 -0.7046 -0.6272
11129TIP3    H254879   3.740   5.686   5.978 -1.3831  0.8233  1.6388
11130TIP3   OH254880   2.963   5.433  14.001  0.0989  0.0765 -0.4601
11130TIP3    H154881   2.873   5.461  13.988  0.0056  1.1592  2.1897
11130TIP3    H254882   2.984   5.460  14.090  1.6191 -4.0614  0.5308
11131TIP3   OH254883   2.166   1.090   0.974  0.0142 -0.0634 -0.2771
11131TIP3    H154884   2.224   1.032   0.925 -0.4191  0.0109 -0.8895
11131TIP3    H254885   2.094   1.109   0.913 -0.5638 -0.0200  0.4065
11132TIP3   OH254886   0.277   1.946  11.521 -0.3949 -0.0387  0.2009
11132TIP3    H154887   0.184   1.969  11.517 -0.5766 -0.7671  0.1205
11132TIP3    H254888   0.289   1.910  11.608  0.0066  0.8551  0.5180
11133TIP3   OH254889   1.303   4.172   1.841 -0.2263  0.0307 -0.1150
11133TIP3    H154890   1.251   4.146   1.766 -1.4900  0.1275  0.7103
11133TIP3    H254891   1.241   4.218   1.899  0.7230 -0.0065  0.9562
11134TIP3   OH254892   4.223   5.005   3.416  0.5287 -0.4537  0.1356
11134TIP3    H154893   4.145   4.957   3.444  1.1735 -1.4087  0.3002
11134TIP3    H254894   4.220   5.087   3.465 -0.1083 -0.7024  0.5134
11135TIP3   OH254895   3.896   5.652  13.890 -0.0587 -0.3868 -0.8777
11135TIP3    H154896   3.857   5.568  13.912 -1.5512  0.1357 -1.4548
11135TIP3    H254897   3.985   5.647  13.923 -0.6736 -1.5367  0.6238
11136TIP3   OH254898   1.337   5.597  11.995 -0.4669  0.5467  0.4484
11136TIP3    H154899   1.350   5.668  12.057 -0.4741  1.8755 -1.0416
11136TIP3    H254900   1.247   5.567  12.012 -0.2430  0.4450  1.5118
11137TIP3   OH254901   1.531   4.080  13.471  0.4215 -0.0615  0.5016
11137TIP3    H154902   1.517   4.063  13.378  0.9242  0.3452  0.3514
11137TIP3    H254903   1.599   4.017  13.498 -0.1589 -0.5935  0.7387
11138TIP3   OH254904   6.406   3.029   0.228  0.0910 -0.2581  0.0194
11138TIP3    H154905   6.424   2.952   0.175 -1.2187 -1.8375  1.8185
11138TIP3    H254906   6.492   3.058   0.259  0.3831 -2.3960  1.2539
11139TIP3   OH254907   5.260   6.614  14.349  0.2058 -0.3539  0.4257
11139TIP3    H154908   5.168   6.597  14.371 -0.3881 -1.6412 -2.7619
11139TIP3    H254909   5.310   6.569  14.418 -1.5385 -0.4397  1.6610
11140TIP3   OH254910   2.124   0.774  14.271 -0.0430 -0.5364 -0.6260
11140TIP3    H154911   2.127   0.865  14.242 -0.5330 -0.7639 -1.4122
11140TIP3    H254912   2.055   0.773  14.338  0.3215 -0.2262 -0.2471
11141TIP3   OH254913   1.473   5.562   1.379  0.5928  0.1370  0.0795
11141TIP3    H154914   1.451   5.533   1.290 -1.3254 -0.6950  0.8023
11141TIP3    H254915   1.567   5.546   1.387  0.6555 -0.4190 -1.5667
11142TIP3   OH254916   1.904   5.013   4.151 -0.2683 -0.2743  0.5232
11142TIP3    H154917   1.971   4.979   4.091 -0.3696 -0.3620  0.4611
11142TIP3    H254918   1.823   5.011   4.101  0.0165  1.6461 -0.0585
11143TIP3   OH254919   4.810   2.580  16.178  0.2021  0.4734 -0.0400
11143TIP3    H154920   4.771   2.535  16.103  0.4323 -0.0526  0.1549
11143TIP3    H254921   4.864   2.649  16.138  1.9735 -1.1117 -0.4493
11144TIP3   OH254922   4.324   1.960   2.124 -0.0343 -0.5210  0.3500
11144TIP3    H154923   4.373   1.917   2.053  1.0757 -0.8408  1.2869
11144TIP3    H254924   4.302   2.046   2.089  0.9457 -0.4846 -0.2020
11145TIP3   OH254925   6.596   1.187   2.283  0.0999  0.3190  0.0436
11145TIP3    H154926   6.624   1.102   2.318 -0.2295  0.0061 -0.4550
11145TIP3    H254927   6.541   1.224   2.352  1.7275  0.9427  1.0369
11146TIP3   OH254928   0.761   4.407   1.102 -0.0825 -0.0420  0.2476
11146TIP3    H154929   0.688   4.465   1.081  1.3253  2.2655  1.5683
11146TIP3    H254930   0.761   4.402   1.198  0.7073 -1.0679  0.2066
11147TIP3   OH254931   2.007   4.449  16.687  0.0619  0.2474 -0.4135
11147TIP3    H154932   1.943   4.511  16.653 -0.0651 -0.3598 -1.2948
11147TIP3    H254933   2.071   4.439  16.616  1.0814  0.7635  0.4065
11148TIP3   OH254934   3.756   3.129   1.930  0.1601  0.2982 -0.6523
11148TIP3    H154935   3.747   3.065   1.860 -0.9567 -0.7009  0.3729
11148TIP3    H254936   3.676   3.182   1.925  0.3101  0.5456 -0.4632
11149TIP3   OH254937   2.112   4.717   0.320  0.0798 -0.3756 -0.4000
11149TIP3    H154938   2.131   4.647   0.382 -1.2934 -0.5622 -0.1909
11149TIP3    H254939   2.142   4.682   0.235 -0.0636 -0.9748 -0.2041
11150TIP3   OH254940   5.944   3.163   3.369  0.3958  0.0508 -0.0676
11150TIP3    H154941   5.972   3.096   3.307 -0.4269 -1.6686  1.3568
11150TIP3    H254942   5.936   3.243   3.317  1.3309 -0.9703 -1.8178
11151TIP3   OH254943   1.349   0.013  14.400  0.5281 -0.0827 -0.0994
11151TIP3    H154944   1.295  -0.063  14.421 -0.4960  0.2669 -1.4251
11151TIP3    H254945   1.420  -0.022  14.346 -0.4704  0.0093 -1.5225
11152TIP3   OH254946   3.398   4.501   2.524 -0.0584  0.2630  0.0329
11152TIP3    H154947   3.441   4.416   2.531 -0.7520 -0.0537  0.4967
11152TIP3    H254948   3.330   4.499   2.591 -0.8425  0.7264 -0.7372
11153TIP3   OH254949   6.044   2.784   6.278 -0.2829 -0.5493 -0.0567
11153TIP3    H154950   6.054   2.876   6.253 -2.8974  0.0069  0.8534
11153TIP3    H254951   6.093   2.777   6.360 -0.8900  0.2642  0.3834
11154TIP3   OH254952   3.946   0.167   1.901 -0.4176  0.3166 -0.1199
11154TIP3    H154953   4.012   0.234   1.886 -0.3765  0.0937 -0.9906
11154TIP3    H254954   3.890   0.171   1.823 -0.0489 -1.0731 -0.4801
11155TIP3   OH254955   2.479   1.521   3.046 -0.2741  0.2057  0.0072
11155TIP3    H154956   2.535   1.587   3.007  0.2737  1.3081  2.5919
11155TIP3    H254957   2.517   1.438   3.019  1.2416  0.9418 -0.1402
11156TIP3   OH254958   6.714   1.550   0.667 -0.5867 -0.1417  0.1543
11156TIP3    H154959   6.669   1.625   0.706 -0.8301  0.1615 -0.6976
11156TIP3    H254960   6.744   1.581   0.582  0.7273 -0.5266  0.4634
11157TIP3   OH254961   0.324   2.606  16.240  0.1205  0.5948 -0.0749
11157TIP3    H154962   0.409   2.636  16.207  0.7076  0.4138  1.2584
11157TIP3    H254963   0.345   2.547  16.311 -1.0981 -0.8665 -0.9011
11158TIP3   OH254964   3.633   6.173  16.364  0.3948  0.9269  0.3878
11158TIP3    H154965   3.718   6.131  16.378 -0.1905 -0.7484 -0.7740
11158TIP3    H254966   3.646   6.264  16.389  1.6706  0.0340  3.2511
11159TIP3   OH254967   5.765   3.458   6.231 -0.7740 -0.2176 -0.0396
11159TIP3    H154968   5.685   3.411   6.206 -0.0948 -1.1936 -0.4045
11159TIP3    H254969   5.747   3.489   6.320 -0.6163 -2.5928  0.8433
11160TIP3   OH254970   3.195   2.619   3.440  0.2254  0.0094 -0.3779
11160TIP3    H154971   3.229   2.689   3.495 -0.5298 -1.2042  1.6978
11160TIP3    H254972   3.119   2.657   3.395 -0.2564  0.4815  0.8339
11161TIP3   OH254973   5.712   6.402   2.398 -0.1627  0.1644 -0.0450
11161TIP3    H154974   5.638   6.426   2.341  1.4799  1.7022 -1.6173
11161TIP3    H254975   5.780   6.467   2.377  0.2317  1.3313  4.2907
11162TIP3   OH254976   4.374   0.995   3.733 -0.0186 -0.1711 -0.2859
11162TIP3    H154977   4.406   0.919   3.780 -1.1236 -0.5136 -0.0736
11162TIP3    H254978   4.407   1.070   3.782  1.5947 -0.5016 -0.8527
11163TIP3   OH254979   3.409   1.165  14.141  0.0359 -0.1522  0.4220
11163TIP3    H154980   3.467   1.129  14.073 -0.7211  0.8544 -0.7840
11163TIP3    H254981   3.384   1.089  14.193 -0.5331 -1.2159 -1.3310
11164TIP3   OH254982   0.019   3.247  16.722  0.3966 -0.1552 -0.3143
11164TIP3    H154983   0.113   3.245  16.741  0.2102 -0.9176  0.5626
11164TIP3    H254984  -0.005   3.155  16.711 -0.1744  0.0624 -0.9402
11165TIP3   OH254985   1.484   2.673   2.240 -0.1105 -0.2088  0.2918
11165TIP3    H154986   1.525   2.625   2.312  4.6722  4.3352  0.9280
11165TIP3    H254987   1.440   2.747   2.283  1.7499  1.8642 -1.2366
11166TIP3   OH254988   5.081   0.619   2.913  0.3843 -0.0178 -0.7115
11166TIP3    H154989   5.135   0.694   2.889  0.8213  0.3868  1.4891
11166TIP3    H254990   5.060   0.632   3.005 -1.0435 -1.6795 -0.7726
11167TIP3   OH254991   3.620   0.084  13.411  0.5708  0.6499  0.7916
11167TIP3    H154992   3.630   0.179  13.408  0.9842  0.6436  1.7241
11167TIP3    H254993   3.695   0.050  13.361 -0.1979  0.8261 -0.5170
11168TIP3   OH254994   1.555   3.013  11.624 -0.1510 -0.1292  0.1408
11168TIP3    H154995   1.640   2.969  11.629 -0.3969 -0.5491  0.8870
11168TIP3    H254996   1.571   3.101  11.659  0.2937  0.2932 -1.1297
11169TIP3   OH254997   5.707   1.049   6.140 -0.1673  0.4736  0.0270
11169TIP3    H154998   5.631   1.067   6.084 -1.6925 -1.3326  1.4403
11169TIP3    H254999   5.753   1.133   6.145 -1.6092  1.3934 -1.5443
11170TIP3   OH255000   3.668   2.081  14.651 -0.0068  0.4456 -0.2684
11170TIP3    H155001   3.580   2.092  14.688 -0.3123  1.1399 -1.1740
11170TIP3    H255002   3.671   2.145  14.579  1.4898  0.9377  0.2187
11171TIP3   OH255003   0.891   6.066   5.656  0.0490  0.1229 -0.1169
11171TIP3    H155004   0.919   5.982   5.620  1.6205 -0.3513  2.0896
11171TIP3    H255005   0.844   6.044   5.736 -0.9584  1.2895 -0.3602
11172TIP3   OH255006   3.991   4.434  13.549 -0.4170  0.0072 -0.0932
11172TIP3    H155007   4.021   4.348  13.521  1.1601  0.0050  1.5439
11172TIP3    H255008   3.966   4.478  13.467 -0.3074 -1.6393 -1.0305
11173TIP3   OH255009   0.012   6.435   1.162  0.0020  0.2263 -0.2436
11173TIP3    H155010   0.082   6.384   1.204  0.3851 -0.4149 -1.6235
11173TIP3    H255011  -0.050   6.369   1.131 -1.7500  0.8309  1.8359
11174TIP3   OH255012   1.634   2.122   3.127  0.0123 -0.3943 -0.2088
11174TIP3    H155013   1.648   2.202   3.077 -2.0857  0.2665  0.2218
11174TIP3    H255014   1.679   2.137   3.210  1.0881 -0.3733 -0.7824
11175TIP3   OH255015   5.425   5.149   6.485 -0.0106 -0.1927  0.2122
11175TIP3    H155016   5.477   5.152   6.405  0.0641 -0.9082  0.2320
11175TIP3    H255017   5.446   5.065   6.524 -0.3336 -0.0055  0.7950
11176TIP3   OH255018   0.920   5.683  14.834  0.0532  0.4874  0.4664
11176TIP3    H155019   0.975   5.658  14.759 -1.2383  1.6896 -0.9072
11176TIP3    H255020   0.857   5.745  14.798 -1.8953 -0.4815  2.1431
11177TIP3   OH255021   2.742   4.466   0.596 -0.1245 -0.0296  0.0932
11177TIP3    H155022   2.777   4.451   0.684 -0.0626 -1.0962 -0.1078
11177TIP3    H255023   2.776   4.393   0.544 -0.2018  0.5640 -0.8046
11178TIP3   OH255024   0.936   4.291  13.329 -0.0042  0.2352  0.4361
11178TIP3    H155025   0.906   4.382  13.328 -0.4239  0.1116  1.4605
11178TIP3    H255026   0.860   4.241  13.358  0.7117 -0.2596  1.4709
11179TIP3   OH255027   6.324   5.782   0.178 -0.1930 -0.0481 -0.4316
11179TIP3    H155028   6.322   5.686   0.186 -0.1920 -0.0430 -0.3700
11179TIP3    H255029   6.267   5.813   0.248 -0.3532 -0.0120 -0.5753
11180TIP3   OH255030   0.739   6.173  12.304  0.3951  0.0479  0.1797
11180TIP3    H155031   0.647   6.147  12.299  0.8213 -1.2459 -1.0808
11180TIP3    H255032   0.782   6.101  12.351  0.4415  1.5710  2.5747
11181TIP3   OH255033   0.621   1.295   4.380  0.3863 -0.0683 -0.0427
11181TIP3    H155034   0.556   1.343   4.432  0.1583  2.4397 -2.5317
11181TIP3    H255035   0.587   1.205   4.377 -3.2297  1.2556 -1.6103
11182TIP3   OH255036   4.746   0.638  11.477  0.2002  0.2360  0.3303
11182TIP3    H155037   4.796   0.557  11.479  2.5148  1.6467  3.1245
11182TIP3    H255038   4.772   0.681  11.396 -0.3660 -1.3812 -0.7180
11183TIP3   OH255039   2.556   6.020   2.233  0.1942  0.1721 -0.3251
11183TIP3    H155040   2.471   5.981   2.214  0.1774 -0.1545  0.3843
11183TIP3    H255041   2.546   6.112   2.211 -0.1586  0.0216 -0.8109
11184TIP3   OH255042   1.327   2.101   2.734  0.1434  0.1934 -0.0751
11184TIP3    H155043   1.378   2.168   2.779 -1.4650  0.1950  1.8236
11184TIP3    H255044   1.294   2.145   2.656  0.8132  0.9943  0.0789
11185TIP3   OH255045   6.605   1.176   2.908 -0.5751 -0.1759  1.1835
11185TIP3    H155046   6.690   1.222   2.908 -0.8672  0.3789  2.1516
11185TIP3    H255047   6.575   1.182   2.818  1.1695 -1.7931  0.4510
11186TIP3   OH255048   2.511   6.114   1.284  0.3558  0.0562  0.7387
11186TIP3    H155049   2.475   6.090   1.369 -0.2847  1.2276  0.8009
11186TIP3    H255050   2.440   6.160   1.239  1.0779  0.5060  0.0360
11187TIP3   OH255051   1.719   3.689  12.040  0.4454 -0.0779  0.2330
11187TIP3    H155052   1.762   3.736  11.968  2.6085 -0.7032  1.1003
11187TIP3    H255053   1.786   3.631  12.075 -0.3521  0.7176  3.2451
11188TIP3   OH255054   4.755   6.226  15.692 -0.2972 -0.2563  0.0895
11188TIP3    H155055   4.767   6.294  15.758 -0.2906 -1.1379  1.0068
11188TIP3    H255056   4.677   6.253  15.643  1.0893  1.6616 -1.1216
11189TIP3   OH255057   6.499   5.393  12.214  0.2288  0.9086  0.3240
11189TIP3    H155058   6.475   5.374  12.123  1.5451  2.5562 -0.4113
11189TIP3    H255059   6.472   5.484  12.226  2.3132  1.4834  0.7783
11190TIP3   OH255060   6.607   6.394   0.379  0.5006  0.0570  0.1517
11190TIP3    H155061   6.529   6.342   0.395 -0.9779  2.0584 -0.3062
11190TIP3    H255062   6.583   6.452   0.306  2.5264  0.4566 -0.2437
11191TIP3   OH255063   2.359   5.247  12.894 -0.5373  0.2505 -0.2360
11191TIP3    H155064   2.398   5.281  12.813  2.5801 -1.2548  0.5486
11191TIP3    H255065   2.397   5.301  12.963 -0.4186 -0.7524  0.4987
11192TIP3   OH255066   4.181   6.007  15.317  0.0676  0.3123 -0.3749
11192TIP3    H155067   4.119   6.069  15.356  0.7831  1.0522 -0.4042
11192TIP3    H255068   4.195   5.942  15.386 -1.1505 -0.1591 -0.5631
11193TIP3   OH255069   4.061   4.077   0.169 -0.7130 -0.6749  0.0113
11193TIP3    H155070   4.077   4.091   0.076  1.4667 -0.0778  0.4521
11193TIP3    H255071   4.114   4.143   0.213 -2.4090 -0.3619  1.6683
11194TIP3   OH255072   2.910   2.338   4.614  0.0767 -0.1931 -0.0207
11194TIP3    H155073   2.964   2.286   4.555  1.1803 -0.4629  1.2010
11194TIP3    H255074   2.845   2.276   4.648 -0.4912 -0.0620 -0.8523
11195TIP3   OH255075   6.437   4.446   0.852 -0.0328  0.3893  0.0206
11195TIP3    H155076   6.429   4.378   0.919  1.4839  0.5891  0.4239
11195TIP3    H255077   6.379   4.417   0.782 -1.5400  0.1065  1.3491
11196TIP3   OH255078   1.163   5.039  14.416 -0.7246  0.3362  0.5038
11196TIP3    H155079   1.238   5.087  14.382 -0.8580 -0.4558 -0.9442
11196TIP3    H255080   1.198   4.988  14.489 -0.2348  1.3402  0.9765
11197TIP3   OH255081   6.399   4.313  11.381  0.0719  0.7050 -0.1413
11197TIP3    H155082   6.437   4.398  11.358 -0.5393  0.4286 -2.3235
11197TIP3    H255083   6.383   4.270  11.296 -0.2184 -1.3193  0.9096
11198TIP3   OH255084   4.394   2.497  10.480  0.3174 -0.2233 -0.8132
11198TIP3    H155085   4.480   2.461  10.501  1.4068  0.7273 -3.5369
11198TIP3    H255086   4.363   2.535  10.563  2.7351 -0.0900  0.0554
11199TIP3   OH255087   4.186   2.476   5.989 -0.3232  0.3427  0.0458
11199TIP3    H155088   4.098   2.488   6.024 -1.6502 -0.5510 -2.8538
11199TIP3    H255089   4.215   2.392   6.027 -1.1258  0.1295  0.2031
11200TIP3   OH255090   1.916   4.734  15.870 -0.4910 -0.0728 -0.0311
11200TIP3    H155091   1.972   4.738  15.948  0.9821  0.1314 -1.0727
11200TIP3    H255092   1.887   4.824  15.857  0.9619  0.2984 -0.8942
11201TIP3   OH255093   0.818   4.082  11.681  0.0566  0.0616  0.3525
11201TIP3    H155094   0.820   4.172  11.649  0.9097  0.0875  0.4584
11201TIP3    H255095   0.739   4.077  11.735 -0.3230  0.5698 -0.1486
11202TIP3   OH255096   4.659   0.573  17.103  0.9048  0.0767 -0.4958
11202TIP3    H155097   4.676   0.634  17.175 -2.0438  0.3809  0.0123
11202TIP3    H255098   4.591   0.514  17.137  1.5390 -1.6025 -2.0420
11203TIP3   OH255099   3.610   5.704  10.931 -0.5755 -0.4215 -0.4549
11203TIP3    H155100   3.592   5.787  10.888 -0.5170 -0.9810 -1.5768
11203TIP3    H255101   3.530   5.683  10.978  0.3671  1.6630  2.2028
11204TIP3   OH255102   6.467   1.380  17.174 -0.1261 -0.0070 -0.3649
11204TIP3    H155103   6.418   1.462  17.168 -1.0225 -0.4639  0.4796
11204TIP3    H255104   6.529   1.383  17.101 -0.1107  1.4438 -0.3096
11205TIP3   OH255105   2.708   4.342  14.441  0.0604  0.2629  0.2507
11205TIP3    H155106   2.751   4.291  14.510 -0.0081  0.1412  0.2047
11205TIP3    H255107   2.769   4.413  14.421  0.7760 -0.6114 -0.6801
11206TIP3   OH255108   5.408   0.297   2.990 -0.1924  0.2554 -0.1785
11206TIP3    H155109   5.381   0.223   3.045  0.3141  2.2336  2.8572
11206TIP3    H255110   5.494   0.272   2.957 -0.5599 -1.0211 -0.2086
11207TIP3   OH255111   1.778   6.146   2.341  0.3411  0.8835  0.0146
11207TIP3    H155112   1.774   6.237   2.371  0.9637  1.0241 -0.3263
11207TIP3    H255113   1.728   6.145   2.260  1.7922  1.2980 -0.9007
11208TIP3   OH255114   5.440   1.750   4.841 -0.3405  0.1894 -0.5855
11208TIP3    H155115   5.390   1.675   4.808  1.6749 -2.2989  1.7226
11208TIP3    H255116   5.528   1.737   4.806  0.1841  1.1162  0.3845
11209TIP3   OH255117   6.058   4.006  15.765  0.5839 -0.0585 -0.1912
11209TIP3    H155118   6.035   4.038  15.852  0.4536  4.0401 -1.6487
11209TIP3    H255119   6.144   4.044  15.746  0.4167 -0.5191 -2.0206
11210TIP3   OH255120   1.883   2.261  14.902  0.5637  0.2050  0.3225
11210TIP3    H155121   1.795   2.235  14.874  1.3522 -1.4053 -0.6820
11210TIP3    H255122   1.919   2.307  14.826  0.7067  0.6290  0.6426
11211TIP3   OH255123   6.581   4.269   1.773  0.4003  0.3078 -0.6029
11211TIP3    H155124   6.641   4.211   1.821 -0.5451 -2.7867 -2.9779
11211TIP3    H255125   6.514   4.293   1.837 -0.0224 -2.5048  0.0569
11212TIP3   OH255126   4.886   4.478   5.622 -0.1127 -0.5039  0.0855
11212TIP3    H155127   4.922   4.389   5.629  0.4358 -0.2076  1.0533
11212TIP3    H255128   4.953   4.528   5.576 -0.2301 -0.4693 -0.0510
11213TIP3   OH255129   0.804   3.929   1.181  0.1174 -0.0055  0.7416
11213TIP3    H155130   0.766   3.968   1.259 -2.1244 -0.1409 -0.2462
11213TIP3    H255131   0.818   4.002   1.121 -1.3526 -0.3087  0.0005
11214TIP3   OH255132   4.367   5.781   5.294  0.6327 -0.0769  0.3757
11214TIP3    H155133   4.391   5.688   5.299 -1.3598 -0.7039 -0.9932
11214TIP3    H255134   4.309   5.786   5.218 -0.2344  2.0879  1.1653
11215TIP3   OH255135   2.364   3.393  13.524 -0.6849 -0.0831  0.8715
11215TIP3    H155136   2.418   3.471  13.534 -0.7493  0.1705 -0.7255
11215TIP3    H255137   2.368   3.372  13.430  0.1560 -2.5682  1.4011
11216TIP3   OH255138   0.093   5.529  10.791 -0.3280  0.1071 -0.1978
11216TIP3    H155139   0.166   5.544  10.731 -0.4623  1.6504  0.0009
11216TIP3    H255140   0.064   5.440  10.772  0.3812  0.1705 -1.6111
11217TIP3   OH255141   4.637   5.106   4.459 -0.1773 -0.7215 -0.2484
11217TIP3    H155142   4.669   5.082   4.372 -1.8623  0.6975 -1.2902
11217TIP3    H255143   4.683   5.188   4.479  1.3778 -1.8350  0.9075
11218TIP3   OH255144   0.021   4.730   1.326  0.3284  0.0335 -0.2792
11218TIP3    H155145  -0.066   4.744   1.289  1.7335 -0.3936 -3.9285
11218TIP3    H255146   0.050   4.818   1.352 -0.8900  0.2736  0.3279
11219TIP3   OH255147   5.799   1.617   0.469 -0.0691  0.2029 -0.2143
11219TIP3    H155148   5.719   1.602   0.519 -2.3820  1.5684 -3.3214
11219TIP3    H255149   5.803   1.712   0.456  1.6804  0.0858 -0.7165
11220TIP3   OH255150   5.838   4.253  11.007  0.2703  0.3982  0.3538
11220TIP3    H155151   5.860   4.342  11.035 -2.0330  1.0326  0.2374
11220TIP3    H255152   5.913   4.200  11.034  1.8649  2.4409  0.0348
11221TIP3   OH255153   0.794   4.858   4.797 -0.0512  0.6159  0.4269
11221TIP3    H155154   0.768   4.862   4.889 -1.9161  0.2038 -0.0634
11221TIP3    H255155   0.815   4.948   4.773  0.6368  0.6932  1.3010
11222TIP3   OH255156   4.519   4.375  11.614  0.1711  0.2455  0.1000
11222TIP3    H155157   4.446   4.432  11.639 -0.2610  0.2424 -1.1033
11222TIP3    H255158   4.534   4.396  11.522 -0.3389 -1.9516 -0.5052
11223TIP3   OH255159   5.457   6.638   3.793  0.0663  0.0420 -0.0315
11223TIP3    H155160   5.368   6.606   3.783 -0.0244 -0.2595  1.4616
11223TIP3    H255161   5.470   6.701   3.723 -1.5233  0.5251  0.1055
11224TIP3   OH255162   1.763   5.739   5.179  0.7046  0.2005  0.0360
11224TIP3    H155163   1.830   5.747   5.111 -0.4591 -3.6122 -1.6673
11224TIP3    H255164   1.808   5.702   5.254  0.6060 -2.2943 -1.0873
11225TIP3   OH255165   4.128   2.130  14.472 -0.9040 -0.0790  1.3875
11225TIP3    H155166   4.160   2.203  14.526  2.5087  0.5530 -1.3128
11225TIP3    H255167   4.049   2.165  14.430  0.8896  2.2508 -0.1623
11226TIP3   OH255168   2.106   4.825   3.999  0.2013  0.2317  0.2994
11226TIP3    H155169   2.119   4.743   4.047 -2.0725  0.1709  0.8602
11226TIP3    H255170   2.129   4.803   3.908  0.0625 -0.9178  0.5301
11227TIP3   OH255171   5.471   4.022  11.518 -0.0198  0.2435 -0.1545
11227TIP3    H155172   5.449   3.950  11.460 -3.0135  0.1311  1.0342
11227TIP3    H255173   5.546   3.991  11.568  1.5512 -0.2812 -2.7490
11228TIP3   OH255174   2.582   5.235   4.881 -0.2474  0.0320  0.0945
11228TIP3    H155175   2.666   5.232   4.835 -2.5316 -0.8167 -4.2529
11228TIP3    H255176   2.595   5.179   4.957  3.0973 -0.1116 -0.4756
11229TIP3   OH255177   5.843   1.912   4.535  0.6576 -0.0347 -0.6597
11229TIP3    H155178   5.878   1.894   4.448 -0.6857 -1.0833 -1.0012
11229TIP3    H255179   5.872   1.838   4.588  1.2155  0.4489 -0.2862
11230TIP3   OH255180   4.936   5.763   5.427  0.5980 -0.5092 -0.5978
11230TIP3    H155181   4.930   5.831   5.494 -0.6101 -0.3659 -0.8376
11230TIP3    H255182   5.029   5.745   5.419  0.8961  0.8466 -0.2550
11231TIP3   OH255183   6.333   3.486   2.923 -0.2130  0.1090  0.3784
11231TIP3    H155184   6.307   3.533   2.843 -0.9202  1.2998  1.3031
11231TIP3    H255185   6.255   3.488   2.978  0.2601 -0.7689  1.0877
11232TIP3   OH255186   1.878   5.843  16.797 -0.2297  1.0792  0.7946
11232TIP3    H155187   1.919   5.761  16.768 -0.8374  2.0250 -2.9714
11232TIP3    H255188   1.949   5.907  16.796 -0.1876  1.0483  1.7391
11233TIP3   OH255189   0.285   0.313   0.022  0.1943 -0.0556  0.2559
11233TIP3    H155190   0.352   0.336  -0.043 -1.4439 -0.9137 -1.7870
11233TIP3    H255191   0.213   0.278  -0.030 -1.8327  0.8032  2.4274
11234TIP3   OH255192   0.352   6.678  14.773  0.0418 -0.8384 -0.1426
11234TIP3    H155193   0.420   6.618  14.804  0.8034  0.5446  0.9067
11234TIP3    H255194   0.350   6.748  14.838 -1.6856 -0.3382 -0.7091
11235TIP3   OH255195   5.836   5.301  15.199 -0.1463  0.0868 -0.0405
11235TIP3    H155196   5.846   5.395  15.183 -0.9713  0.2864  0.5768
11235TIP3    H255197   5.761   5.295  15.258  1.5975 -0.7776  2.1310
11236TIP3   OH255198   0.136   5.247  16.948 -0.2385  0.6294  0.0553
11236TIP3    H155199   0.070   5.192  16.907 -0.4035  0.3001  0.7430
11236TIP3    H255200   0.121   5.335  16.912 -1.3330  0.6465  0.5379
11237TIP3   OH255201   4.882   6.472   1.473 -0.3428 -0.2505 -0.0966
11237TIP3    H155202   4.956   6.512   1.428  0.2452  0.2370  1.2674
11237TIP3    H255203   4.894   6.378   1.459  1.6780 -0.3233  1.7504
11238TIP3   OH255204   0.976   2.314  16.331 -0.3033  0.5167 -0.3700
11238TIP3    H155205   1.002   2.270  16.250  0.6505  0.5009 -0.0513
11238TIP3    H255206   1.029   2.273  16.399 -1.3584  0.2811  0.3246
11239TIP3   OH255207   2.929   6.184   3.540  0.4294  0.1126 -0.0316
11239TIP3    H155208   2.918   6.277   3.520  0.0802 -0.8070 -4.5105
11239TIP3    H255209   3.023   6.174   3.557  0.7360  1.0172 -1.1221
11240TIP3   OH255210   5.247   2.435  15.564 -0.1799 -0.4346  0.0420
11240TIP3    H155211   5.283   2.451  15.651 -0.9611  2.5494 -0.1251
11240TIP3    H255212   5.268   2.343  15.546  1.0238 -0.7727  2.8652
11241TIP3   OH255213   2.312   4.902   5.384  0.6044 -0.1657  0.5163
11241TIP3    H155214   2.333   4.833   5.320  0.4677 -0.5783  0.9183
11241TIP3    H255215   2.391   4.910   5.437  0.8772  0.4859  0.0194
11242TIP3   OH255216   0.488   5.447   2.956  0.4459 -0.0789 -0.2437
11242TIP3    H155217   0.496   5.405   3.042 -0.7891 -0.1860 -0.1643
11242TIP3    H255218   0.560   5.411   2.904  1.4379  0.2936  0.8652
11243TIP3   OH255219   1.048   4.319   4.455  0.6832  0.7167  0.4832
11243TIP3    H155220   1.014   4.361   4.534  0.9946  0.4795  0.7457
11243TIP3    H255221   1.065   4.228   4.481 -1.7111 -0.0527 -0.5735
11244TIP3   OH255222   5.741   3.220  13.959  0.0783  0.0274  0.5321
11244TIP3    H155223   5.812   3.166  13.994  2.9170  1.4376 -2.7977
11244TIP3    H255224   5.710   3.172  13.882 -0.0420  1.2185 -0.1763
11245TIP3   OH255225   5.394   4.142  10.630 -0.1780  0.2321 -0.2237
11245TIP3    H155226   5.419   4.190  10.709 -2.2579 -0.3311  0.8187
11245TIP3    H255227   5.331   4.076  10.661 -2.0686  0.8618 -2.5308
11246TIP3   OH255228   4.198   3.015   1.011 -0.3164  0.2697  0.1148
11246TIP3    H155229   4.284   2.996   1.047 -0.2572 -0.7579 -0.5535
11246TIP3    H255230   4.160   3.079   1.071 -0.4385 -1.7761  2.3066
11247TIP3   OH255231   1.593   1.905  11.976  0.0925  0.4409  0.0810
11247TIP3    H155232   1.520   1.940  11.925  0.8385  2.6022  0.4374
11247TIP3    H255233   1.653   1.979  11.986  2.9395 -1.5917 -1.2287
11248TIP3   OH255234   2.977   4.793  17.053 -0.4908 -0.3099 -0.1353
11248TIP3    H155235   2.912   4.812  17.120 -0.7092  0.2898 -0.5075
11248TIP3    H255236   2.929   4.800  16.970  0.2428  1.1292 -0.4705
11249TIP3   OH255237   0.585   3.922   4.961 -0.1161 -0.0653 -0.3280
11249TIP3    H155238   0.532   3.957   4.889 -0.0499 -2.1622 -1.4669
11249TIP3    H255239   0.558   3.830   4.967  2.1973 -0.7366  0.1868
11250TIP3   OH255240   6.375   1.437  15.898 -0.1372 -0.0663  0.0584
11250TIP3    H155241   6.331   1.426  15.814 -2.3685 -1.9610  1.4130
11250TIP3    H255242   6.353   1.526  15.925 -1.1507 -0.1698 -0.4040
11251TIP3   OH255243   1.103   2.855  14.883 -0.0198 -0.0593 -0.4201
11251TIP3    H155244   1.026   2.904  14.853  0.3798  0.6682 -0.2685
11251TIP3    H255245   1.105   2.870  14.977 -0.7605 -1.6112 -0.1511
11252TIP3   OH255246   1.027   0.924   4.421  0.5348  0.1106  0.5540
11252TIP3    H155247   0.959   0.905   4.485  0.6016  0.8104  0.8361
11252TIP3    H255248   1.038   0.842   4.373 -0.2281 -0.1196  0.7636
11253TIP3   OH255249   1.316   5.406  12.397  0.0413  0.3012 -0.3683
11253TIP3    H155250   1.268   5.454  12.465  0.6658 -0.0788  0.3409
11253TIP3    H255251   1.356   5.333  12.443  2.1673  1.1844 -0.7673
11254TIP3   OH255252   0.959   0.395   1.822  0.0870  0.8946  0.7987
11254TIP3    H155253   1.043   0.386   1.866 -1.2340  0.6013  3.3898
11254TIP3    H255254   0.954   0.320   1.763  2.2539  1.7350 -0.4733
11255TIP3   OH255255   6.178   3.978  16.429  0.8808  0.3491  0.1246
11255TIP3    H155256   6.108   4.042  16.439 -0.3773 -1.0625  0.3641
11255TIP3    H255257   6.142   3.897  16.464  2.9538 -0.1737  1.1474
11256TIP3   OH255258   0.929   1.064  14.433 -0.1885 -0.2616  0.0663
11256TIP3    H155259   0.843   1.106  14.426 -0.3652 -0.5585  0.4323
11256TIP3    H255260   0.912   0.971  14.417  0.2825 -0.1241 -1.2673
11257TIP3   OH255261   3.867   1.249  10.897 -0.2571 -0.5704 -0.4356
11257TIP3    H155262   3.932   1.273  10.963 -1.7249  1.5282  0.3000
11257TIP3    H255263   3.801   1.200  10.947 -1.0992  0.5507 -0.4431
11258TIP3   OH255264   1.926   1.375   2.387 -0.0331 -0.4227  0.2698
11258TIP3    H155265   1.845   1.385   2.338 -0.0819 -0.2445  0.3819
11258TIP3    H255266   1.995   1.388   2.323 -0.1001  0.7162  0.4158
11259TIP3   OH255267   5.166   1.313   5.806  0.5796  0.0446  0.2838
11259TIP3    H155268   5.157   1.334   5.898  0.4826 -1.8406  0.7281
11259TIP3    H255269   5.223   1.382   5.771 -0.1172  1.2759  1.5400
11260TIP3   OH255270   6.289   1.802  12.441  0.0688  0.6886 -0.1219
11260TIP3    H155271   6.274   1.859  12.517 -0.8885  0.7275 -0.3257
11260TIP3    H255272   6.271   1.858  12.365  0.1175  0.3996 -0.3475
11261TIP3   OH255273   3.151   5.494  11.183 -1.0317 -0.2509  0.2802
11261TIP3    H155274   3.114   5.409  11.160 -1.3442 -0.6034  1.9644
11261TIP3    H255275   3.174   5.485  11.276 -2.4593  1.9598  0.9021
11262TIP3   OH255276   2.532   1.676   2.344 -0.1344  0.0418 -0.1869
11262TIP3    H155277   2.493   1.754   2.385  0.1661  0.3673 -0.5167
11262TIP3    H255278   2.461   1.611   2.345  0.0936 -0.1957  1.5048
11263TIP3   OH255279   4.236   5.164   2.909  0.3818  0.0233  0.3191
11263TIP3    H155280   4.190   5.164   2.992  1.4778 -1.0811  0.9471
11263TIP3    H255281   4.299   5.235   2.916 -0.2498  0.6119  0.0189
11264TIP3   OH255282   0.345   1.901   0.363  0.2813 -0.5989 -0.3256
11264TIP3    H155283   0.313   1.982   0.403  1.8666  0.1647 -0.5798
11264TIP3    H255284   0.268   1.863   0.321 -0.3859  0.9697 -0.5403
11265TIP3   OH255285   4.845   3.054   5.617  0.3453  0.1797 -0.0610
11265TIP3    H155286   4.886   3.141   5.610 -0.8430  0.6108 -1.9533
11265TIP3    H255287   4.906   3.004   5.672  1.4353  1.9643  0.4264
11266TIP3   OH255288   3.091   2.637   5.629  0.8457  0.0978  0.1610
11266TIP3    H155289   3.135   2.690   5.563 -1.5261  2.4588  0.4248
11266TIP3    H255290   3.139   2.655   5.710 -0.2793  2.3138  0.3613
11267TIP3   OH255291   6.720   4.852   0.856  0.0468  0.1300  0.3521
11267TIP3    H155292   6.801   4.854   0.907 -0.1657 -2.3938  0.8590
11267TIP3    H255293   6.663   4.792   0.905 -1.7660  1.1124 -0.5329
11268TIP3   OH255294   6.356   3.895  12.944 -0.0017  0.0207 -0.3324
11268TIP3    H155295   6.339   3.976  12.896 -1.2961 -0.8009 -1.3264
11268TIP3    H255296   6.289   3.893  13.012  0.3798  0.0677  0.0425
11269TIP3   OH255297   1.335   5.139   3.841  0.5027 -0.1568  0.7303
11269TIP3    H155298   1.249   5.141   3.798  0.9956  0.8004 -0.2314
11269TIP3    H255299   1.367   5.050   3.825  0.6672  0.1746 -0.9136
11270TIP3   OH255300   6.659   3.314   2.265  0.0598  0.3956  0.5487
11270TIP3    H155301   6.661   3.218   2.267 -1.3341  0.3681  2.3193
11270TIP3    H255302   6.590   3.335   2.203  0.6087  0.2573 -0.1102
11271TIP3   OH255303   1.187   3.547   1.058  0.7683  0.4611  0.0560
11271TIP3    H155304   1.119   3.602   1.097 -0.2261 -0.2691 -0.6294
11271TIP3    H255305   1.194   3.472   1.117  0.0682 -0.0847 -0.5389
11272TIP3   OH255306   3.623   6.443   0.443  0.0105  0.5052 -0.1690
11272TIP3    H155307   3.676   6.505   0.493  0.0096  1.4990 -1.3744
11272TIP3    H255308   3.674   6.425   0.364  1.8952 -4.1752  1.9546
11273TIP3   OH255309   0.049   2.845  12.773  0.3588  0.6415 -0.2252
11273TIP3    H155310   0.075   2.937  12.777  0.8336  0.5459 -0.9791
11273TIP3    H255311  -0.038   2.847  12.731 -0.1516  0.8313  0.8260
11274TIP3   OH255312   2.647   0.937  14.358  0.3615  0.8576 -0.1925
11274TIP3    H155313   2.679   0.918  14.446  2.0707 -0.2344 -1.0435
11274TIP3    H255314   2.590   1.014  14.370 -1.1392 -0.5426  2.1898
11275TIP3   OH255315   4.983   3.155  14.258 -0.6706 -0.1038 -0.4424
11275TIP3    H155316   4.994   3.111  14.173 -2.1059  0.2167 -0.8049
11275TIP3    H255317   4.997   3.247  14.238  0.0304 -0.1348 -0.1179
11276TIP3   OH255318   6.097   3.133  12.337  0.1527 -0.0918  0.4021
11276TIP3    H155319   6.072   3.183  12.259 -1.3927  0.1150  1.0158
11276TIP3    H255320   6.090   3.194  12.409  2.1712 -0.1270  0.6461
11277TIP3   OH255321   6.537   1.197   4.986 -0.1924  0.6274  0.8290
11277TIP3    H155322   6.593   1.119   4.976  0.9693  1.5434  0.1275
11277TIP3    H255323   6.586   1.253   5.047  0.3854  2.0894 -0.9537
11278TIP3   OH255324   2.836   4.985   6.156 -0.3108 -0.2143  1.3304
11278TIP3    H155325   2.813   5.020   6.070 -2.1019  0.3157  1.9926
11278TIP3    H255326   2.908   4.925   6.139  0.7097  1.4319 -0.2454
11279TIP3   OH255327   3.236   5.841  13.739 -0.7480  0.7863 -0.4503
11279TIP3    H155328   3.177   5.916  13.728 -0.2659  0.8579 -2.7304
11279TIP3    H255329   3.299   5.850  13.668  1.0291 -0.2228  0.9857
11280TIP3   OH255330   2.456   4.564   4.325  0.0348 -0.9107 -0.5337
11280TIP3    H155331   2.424   4.629   4.261 -1.1978 -2.2297 -1.2845
11280TIP3    H255332   2.378   4.514   4.349  0.7916 -1.4822  0.8084
11281TIP3   OH255333   3.369   0.072   1.730  0.0138  0.4271  0.2424
11281TIP3    H155334   3.379   0.053   1.637 -1.6019  3.2337 -0.5682
11281TIP3    H255335   3.435   0.139   1.748  0.2338 -0.0112  1.0979
11282TIP3   OH255336   5.160   5.876  15.643 -0.0380 -0.1262  0.5687
11282TIP3    H155337   5.071   5.908  15.654 -0.7481 -0.8155 -2.5822
11282TIP3    H255338   5.210   5.952  15.612 -0.3200 -0.5162 -0.8916
11283TIP3   OH255339   4.706   3.795   1.648  0.3862 -0.2102 -0.6839
11283TIP3    H155340   4.709   3.718   1.592 -1.0583 -1.6780  1.2114
11283TIP3    H255341   4.647   3.855   1.603  0.8007 -0.5736 -1.7149
11284TIP3   OH255342   4.617   6.726   0.057  0.0144  0.2195  0.1369
11284TIP3    H155343   4.567   6.727  -0.025 -1.0283 -0.1310  0.7598
11284TIP3    H255344   4.585   6.802   0.105  1.1058  0.8136 -0.0439
11285TIP3   OH255345   3.771   5.545  15.263 -0.2792 -0.4153  0.3120
11285TIP3    H155346   3.801   5.613  15.323 -0.8277 -0.5348  0.7321
11285TIP3    H255347   3.751   5.470  15.320 -0.1117 -0.7761 -0.0948
11286TIP3   OH255348   1.445   6.554  17.133 -0.4379 -0.4483 -0.1296
11286TIP3    H155349   1.413   6.464  17.128 -0.2021 -0.5600  0.3706
11286TIP3    H255350   1.428   6.580  17.224  2.2266 -1.0118  0.5656
11287TIP3   OH255351   1.939   1.344   3.539  0.0134  0.0544  0.4186
11287TIP3    H155352   1.897   1.268   3.498 -1.2153  0.5533  0.7035
11287TIP3    H255353   2.004   1.306   3.598  0.3293 -0.7285 -0.4207
11288TIP3   OH255354   0.416   3.962   5.247 -0.4213 -0.0886 -0.0543
11288TIP3    H155355   0.330   3.966   5.205 -0.7313  1.4341  0.6916
11288TIP3    H255356   0.397   3.927   5.335 -0.2080 -0.2165 -0.0602
11289TIP3   OH255357   2.101   4.413   4.985  0.1086 -0.6102 -0.1644
11289TIP3    H155358   2.150   4.331   4.991  2.1316  0.4669 -1.3946
11289TIP3    H255359   2.106   4.437   4.892  0.3335  1.3845  0.3451
11290TIP3   OH255360   3.158   0.002  12.576 -0.2850  0.5560  0.0641
11290TIP3    H155361   3.179   0.051  12.497  1.4036 -1.8984 -1.0847
11290TIP3    H255362   3.237   0.008  12.630 -1.0238  1.2776  1.0913
11291TIP3   OH255363   3.610   6.359   4.688  0.2456 -0.6508 -0.2077
11291TIP3    H155364   3.568   6.378   4.604  0.6696 -0.0159 -0.2828
11291TIP3    H255365   3.704   6.371   4.670  0.2604  0.5588  0.6351
11292TIP3   OH255366   4.579   1.877  12.528  0.3401 -0.1349  0.2012
11292TIP3    H155367   4.576   1.972  12.538 -1.0278 -0.0368 -1.0433
11292TIP3    H255368   4.640   1.848  12.597 -0.3202  1.4883  1.5137
11293TIP3   OH255369   3.782   4.403  15.299  0.2185  0.4002 -0.2254
11293TIP3    H155370   3.822   4.395  15.212  0.5116  0.8642 -0.1380
11293TIP3    H255371   3.848   4.449  15.351 -0.5279  1.4009 -0.1448
11294TIP3   OH255372   0.500   0.805  13.393  0.5835  0.4252  0.6650
11294TIP3    H155373   0.472   0.734  13.335  1.3870  2.4975 -2.3770
11294TIP3    H255374   0.420   0.832  13.439 -0.2119 -0.7966  0.0097
11295TIP3   OH255375   6.260   3.201   1.557  0.0676 -0.8858 -0.2732
11295TIP3    H155376   6.348   3.236   1.546  0.4660 -1.5000  0.9335
11295TIP3    H255377   6.270   3.106   1.551 -0.4315 -0.9843  0.4358
11296TIP3   OH255378   4.114   4.814  14.364  0.1451 -0.0490  0.9132
11296TIP3    H155379   4.053   4.750  14.327  2.9569 -2.1780 -0.2231
11296TIP3    H255380   4.192   4.807  14.309  1.5639  2.3894  2.5240
11297TIP3   OH255381   0.710   1.888   0.076  0.3923  0.4630  0.1275
11297TIP3    H155382   0.676   1.854   0.158  1.4477  0.0148  0.3868
11297TIP3    H255383   0.722   1.810   0.021 -2.0882  0.9250 -1.1434
11298TIP3   OH255384   4.149   5.905  16.415 -0.4656 -0.0269 -0.3219
11298TIP3    H155385   4.111   5.817  16.411 -1.2621  0.2951  0.1085
11298TIP3    H255386   4.207   5.909  16.339 -0.6562 -0.8176 -0.5164
11299TIP3   OH255387   1.651   4.219   5.338  0.8912  0.2583  0.1522
11299TIP3    H155388   1.638   4.213   5.243  0.0478 -1.6045  0.3704
11299TIP3    H255389   1.746   4.212   5.349  1.0537  1.1779 -0.5892
11300TIP3   OH255390   2.086   1.034  11.397  0.0690 -0.2416  0.0632
11300TIP3    H155391   2.045   0.948  11.401  0.4400 -0.4661 -0.7524
11300TIP3    H255392   2.169   1.024  11.444 -0.0128 -0.2567  0.2038
11301TIP3   OH255393   1.094   4.829   4.989  0.1684  0.0289  0.1899
11301TIP3    H155394   1.028   4.778   5.036  0.2712  0.1315  0.4496
11301TIP3    H255395   1.175   4.812   5.036  0.3756 -0.2954 -0.2806
11302TIP3   OH255396   0.521   6.754   4.288 -0.1897 -0.4415  0.3887
11302TIP3    H155397   0.427   6.771   4.287 -0.3861 -1.5578 -0.8818
11302TIP3    H255398   0.532   6.677   4.343  0.0313 -0.0875  0.8493
11303TIP3   OH255399   5.404   5.094  12.492 -0.4837 -0.5665 -0.0471
11303TIP3    H155400   5.429   5.144  12.569  1.9619  0.3363 -1.3670
11303TIP3    H255401   5.395   5.004  12.524  0.9358 -0.2788  1.2179
11304TIP3   OH255402   3.983   6.406   2.071 -0.0401  0.3136  0.1040
11304TIP3    H155403   3.893   6.380   2.049 -0.1372  0.4884  0.2871
11304TIP3    H255404   4.008   6.347   2.142 -0.1320  0.4892  0.2814
11305TIP3   OH255405   1.795   4.717   5.463 -0.2145 -0.6456  0.4283
11305TIP3    H155406   1.884   4.749   5.450 -0.3669 -0.4562 -0.1642
11305TIP3    H255407   1.746   4.749   5.387 -0.5704 -1.5421  0.2675
11306TIP3   OH255408   3.932   5.170   3.042  0.1246 -0.2786 -0.2574
11306TIP3    H155409   3.851   5.186   2.992  0.2523 -2.6698 -1.2913
11306TIP3    H255410   3.999   5.221   2.996 -0.7657  1.6806  0.5761
11307TIP3   OH255411   2.946   0.440  12.642 -0.4467 -0.2675  0.6181
11307TIP3    H155412   2.907   0.355  12.660  0.0431 -0.4725  0.7391
11307TIP3    H255413   3.040   0.422  12.631 -0.6712 -0.1066 -1.8579
11308TIP3   OH255414   5.199   6.468  13.481 -0.1896  0.2081 -0.3608
11308TIP3    H155415   5.221   6.448  13.572  0.0777 -1.5982 -0.8023
11308TIP3    H255416   5.268   6.426  13.429 -0.2344  1.3789 -1.3977
11309TIP3   OH255417   5.641   5.537  16.599  0.7356 -0.2795  0.6474
11309TIP3    H155418   5.562   5.490  16.573  0.7479  0.0181  0.0679
11309TIP3    H255419   5.666   5.587  16.521  1.3100 -0.1216  0.9308
11310TIP3   OH255420   5.094   6.711  10.521  1.0784 -0.0596 -0.4205
11310TIP3    H155421   5.164   6.767  10.554 -0.3833  0.9737  0.9658
11310TIP3    H255422   5.024   6.771  10.495 -0.5323 -1.1956  1.1232
11311TIP3   OH255423   3.897   6.136  16.082  0.0531 -0.5839  1.3446
11311TIP3    H155424   3.888   6.230  16.097 -0.0011 -0.4026  0.1990
11311TIP3    H255425   3.897   6.098  16.170  0.7349  0.5408  1.8405
11312TIP3   OH255426   3.864   5.307   4.387  0.3470  0.4772  0.0990
11312TIP3    H155427   3.811   5.314   4.466 -0.4284  0.1748 -0.3815
11312TIP3    H255428   3.859   5.214   4.363  1.6433  0.3155  0.4146
11313TIP3   OH255429   0.426   6.178  15.660 -0.2500 -0.4195  0.3951
11313TIP3    H155430   0.385   6.143  15.740 -0.1703 -0.9466  0.2071
11313TIP3    H255431   0.362   6.241  15.626 -0.8932 -1.2247  0.1139
11314TIP3   OH255432   4.857   3.620   5.433 -0.0414  0.2902  0.6000
11314TIP3    H155433   4.804   3.688   5.392  0.2938 -0.3307 -0.8845
11314TIP3    H255434   4.841   3.630   5.527 -0.7941  1.7430  0.3195
11315TIP3   OH255435   2.806   6.099   0.181 -0.3176 -0.3954 -0.1772
11315TIP3    H155436   2.735   6.138   0.233 -0.6153 -0.7792 -0.2916
11315TIP3    H255437   2.800   6.144   0.096  0.6993  0.8269  0.3806
11316TIP3   OH255438   5.089   4.379   5.413  0.7563  0.0194 -0.6419
11316TIP3    H155439   5.054   4.290   5.416 -1.2380  0.8183  1.1170
11316TIP3    H255440   5.171   4.371   5.365  0.1977 -2.6249 -1.2306
11317TIP3   OH255441   3.307   5.405   4.960 -0.6103  0.8494  0.0769
11317TIP3    H155442   3.327   5.312   4.974  0.9210  1.2258  0.4225
11317TIP3    H255443   3.234   5.423   5.019  0.0956  0.2459  1.1443
11318TIP3   OH255444   3.630   6.749   5.510  0.3468  0.0689  0.2341
11318TIP3    H155445   3.691   6.742   5.436 -1.1661 -0.4342 -0.9715
11318TIP3    H255446   3.607   6.842   5.512  0.3033  0.0643  0.0077
11319TIP3   OH255447   0.481   2.420   4.956  0.2213  0.1610  0.0110
11319TIP3    H155448   0.495   2.508   4.991 -2.1813  1.4753 -2.1879
11319TIP3    H255449   0.388   2.416   4.935  0.3905 -2.7356 -0.4600
11320TIP3   OH255450   3.018   1.104   6.024  0.4296  0.3232  0.3298
11320TIP3    H155451   2.961   1.098   6.101  0.9744 -1.1692  0.6344
11320TIP3    H255452   3.003   1.192   5.990 -2.0883 -0.0419  0.3787
11321TIP3   OH255453   1.385   1.815   5.773 -0.5803 -0.0875 -0.1706
11321TIP3    H155454   1.395   1.726   5.739  1.0731 -0.2178  0.6257
11321TIP3    H255455   1.461   1.829   5.828 -1.6279  1.2771  0.9761
11322TIP3   OH255456   3.342   3.962   4.786 -0.1514  0.1171  0.1828
11322TIP3    H155457   3.424   3.922   4.815  0.1952  1.1657  0.6872
11322TIP3    H255458   3.348   3.959   4.690  1.0605  1.2942  0.1957
11323TIP3   OH255459   6.548   1.633  11.333 -0.3899  0.0128  0.1563
11323TIP3    H155460   6.469   1.579  11.333  0.3510 -1.0848  0.2786
11323TIP3    H255461   6.614   1.578  11.290  0.0858  1.2579 -0.7334
11324TIP3   OH255462   0.339   3.997  16.437 -0.4375  0.0035  0.1307
11324TIP3    H155463   0.252   4.032  16.458  0.3827  0.7234  2.4816
11324TIP3    H255464   0.383   4.068  16.392  0.3558  1.1973  2.6854
11325TIP3   OH255465   4.926   2.236   3.991 -0.1082  0.1862  0.1742
11325TIP3    H155466   4.978   2.315   4.006  2.3731 -1.4221  0.4220
11325TIP3    H255467   4.988   2.164   4.005 -1.7450 -1.7517 -2.0901
11326TIP3   OH255468   2.802   1.133  15.308 -0.1020  0.7454  0.4796
11326TIP3    H155469   2.772   1.139  15.217 -0.2645 -0.2626  0.4612
11326TIP3    H255470   2.897   1.136  15.302 -0.0696 -0.5316  0.1662
11327TIP3   OH255471   2.680   5.262   6.250 -0.3406 -0.0145 -0.4221
11327TIP3    H155472   2.730   5.336   6.284 -1.2376  0.1906  0.4572
11327TIP3    H255473   2.697   5.191   6.311 -0.8869 -0.0338 -0.2934
11328TIP3   OH255474   1.488   2.195   3.740  0.2546 -0.0435 -0.5800
11328TIP3    H155475   1.560   2.140   3.710  0.8684 -0.4893  1.6673
11328TIP3    H255476   1.446   2.145   3.810  0.1107  1.8295  0.7061
11329TIP3   OH255477   3.470   1.940   2.770  0.3064  0.6819  0.5928
11329TIP3    H155478   3.564   1.934   2.755 -0.1114 -1.7882 -1.3788
11329TIP3    H255479   3.454   1.887   2.848  0.4370  0.4354  0.4509
11330TIP3   OH255480   3.054   5.280   2.342 -0.4027 -0.6649  0.5624
11330TIP3    H155481   3.058   5.213   2.274 -0.1819 -0.1635  0.0849
11330TIP3    H255482   3.117   5.251   2.408  1.9600  0.6590 -1.0620
11331TIP3   OH255483   1.503   4.526   2.142 -0.2110  0.1755  0.1056
11331TIP3    H155484   1.523   4.449   2.195  0.0419  0.0687 -0.1426
11331TIP3    H255485   1.523   4.499   2.053  0.6927  0.7928  0.1076
11332TIP3   OH255486   5.354   3.111   2.680  0.5998 -0.1275  0.0240
11332TIP3    H155487   5.265   3.085   2.706  0.0660  0.7805 -0.8658
11332TIP3    H255488   5.341   3.179   2.614  1.9388 -1.1568 -1.3358
11333TIP3   OH255489   6.691   2.062  12.373  0.1584 -0.3917  0.4408
11333TIP3    H155490   6.680   2.065  12.468 -1.4861 -0.0451  0.2599
11333TIP3    H255491   6.724   1.974  12.355  0.2134 -0.5484  1.2999
11334TIP3   OH255492   0.800   5.968  13.155  0.1241  0.4344 -0.8544
11334TIP3    H155493   0.862   5.912  13.202 -0.5994  0.9777  0.8077
11334TIP3    H255494   0.825   6.057  13.182 -2.1758  0.5902  0.8869
11335TIP3   OH255495   5.755   4.786  11.983 -0.2413  0.0681 -0.4685
11335TIP3    H155496   5.754   4.744  11.897  0.6313 -0.0355 -0.4371
11335TIP3    H255497   5.675   4.756  12.026 -1.2750  1.0372 -1.6730
11336TIP3   OH255498   0.949   0.432  12.027 -0.2224 -0.2952  0.0196
11336TIP3    H155499   0.910   0.511  12.064 -1.9483 -0.6363 -1.0434
11336TIP3    H255500   0.958   0.372  12.102 -0.7320  0.1661  0.4518
11337TIP3   OH255501   5.275   5.559   0.003  0.4254  0.1928 -0.0823
11337TIP3    H155502   5.235   5.592   0.084  2.9892  3.8809 -0.1587
11337TIP3    H255503   5.212   5.581  -0.065  0.3876  1.5712  0.3676
11338TIP3   OH255504   2.345   4.106  11.020  0.0067  0.6981  0.0292
11338TIP3    H155505   2.266   4.156  11.041  0.7163  1.4732  0.8638
11338TIP3    H255506   2.403   4.169  10.977  1.3211  0.8910  2.0286
11339TIP3   OH255507   1.389   5.749   1.000 -0.0985  0.5358 -0.0591
11339TIP3    H155508   1.308   5.697   0.995  0.7601 -0.9969  1.1843
11339TIP3    H255509   1.418   5.757   0.909 -1.7290  1.2323 -0.5312
11340TIP3   OH255510   6.166   5.025   5.525 -0.3453  1.0411  0.1524
11340TIP3    H155511   6.201   5.045   5.438 -0.6753  0.4652 -0.1138
11340TIP3    H255512   6.077   5.061   5.524 -0.7254  0.1022 -0.1182
11341TIP3   OH255513   1.233   1.341   0.928  0.3300  0.2277  0.2892
11341TIP3    H155514   1.144   1.307   0.942  0.6733 -1.6079 -1.7510
11341TIP3    H255515   1.284   1.307   1.001 -0.3823  0.3878  0.8752
11342TIP3   OH255516   3.814   6.397  16.190  0.2134 -0.2938  0.1260
11342TIP3    H155517   3.755   6.418  16.262  0.9960 -2.1663  1.3552
11342TIP3    H255518   3.881   6.465  16.193 -0.3750  0.2807  0.4453
11343TIP3   OH255519   4.659   5.591  17.141 -0.2554  0.0657  0.0065
11343TIP3    H155520   4.708   5.593  17.223  0.5984  1.8013 -0.4921
11343TIP3    H255521   4.569   5.613  17.165 -0.0924  0.1527  0.5437
11344TIP3   OH255522   2.231   6.170   3.624  0.3540 -0.3187  0.1694
11344TIP3    H155523   2.186   6.116   3.560  0.9693 -0.8867  0.2126
11344TIP3    H255524   2.266   6.108   3.688  0.1803  0.2036  0.7803
11345TIP3   OH255525   0.056   3.815   1.376 -0.1801  0.2344  0.5181
11345TIP3    H155526   0.013   3.740   1.417  0.5780 -1.1651 -1.1924
11345TIP3    H255527  -0.015   3.877   1.360 -0.9745 -0.5293  1.0270
11346TIP3   OH255528   6.483   4.773  13.773  0.0484  0.7228  0.1570
11346TIP3    H155529   6.525   4.856  13.752  0.8188  0.0938 -0.8365
11346TIP3    H255530   6.548   4.707  13.749 -1.6073 -0.2911 -1.6511
11347TIP3   OH255531   4.361   5.951   2.477 -0.6879  0.0143 -0.0072
11347TIP3    H155532   4.413   6.031   2.468  0.9082 -0.6686  2.5468
11347TIP3    H255533   4.317   5.942   2.393  1.3934  1.9714 -1.3879
11348TIP3   OH255534   2.697   4.531  12.010  0.3668 -0.1188  0.5817
11348TIP3    H155535   2.716   4.530  12.104 -0.3846 -0.0980  0.7362
11348TIP3    H255536   2.607   4.500  12.003  1.1607 -2.3273 -0.3140
11349TIP3   OH255537   2.528   6.808  16.121  0.0819  0.4804  0.3695
11349TIP3    H155538   2.611   6.765  16.141 -0.3847 -1.1853 -1.1426
11349TIP3    H255539   2.470   6.783  16.192  0.4188  0.3380  0.5975
11350TIP3   OH255540   0.927   2.360   5.409 -0.6019 -0.0306 -0.2020
11350TIP3    H155541   1.008   2.346   5.360  0.3350 -0.0133  1.3176
11350TIP3    H255542   0.910   2.454   5.401 -0.5639 -0.0581 -0.6441
11351TIP3   OH255543   6.210   6.777  12.108 -0.0281  0.2883 -0.6376
11351TIP3    H155544   6.177   6.695  12.145  0.3825  0.2341 -0.3859
11351TIP3    H255545   6.304   6.775  12.125  0.0586  0.5804 -1.0841
11352TIP3   OH255546   1.944   3.283  15.565 -0.5857 -0.0234 -0.0602
11352TIP3    H155547   1.909   3.198  15.541  0.4938  0.0194 -1.8904
11352TIP3    H255548   1.991   3.267  15.647 -1.2801 -0.9680  0.1536
11353TIP3   OH255549   5.430   3.407  12.230 -0.2224  0.1192 -0.0428
11353TIP3    H155550   5.390   3.489  12.258  0.6497  0.9701 -1.2381
11353TIP3    H255551   5.369   3.339  12.258 -1.0539  1.1867  0.7596
11354TIP3   OH255552   5.572   6.586   1.600 -0.2272 -0.0666 -0.4396
11354TIP3    H155553   5.597   6.590   1.693 -1.9950  1.7275 -0.0001
11354TIP3    H255554   5.622   6.656   1.558  0.0156 -0.3966 -0.6992
11355TIP3   OH255555   2.194   5.795   5.818  0.1859  0.1336 -0.3856
11355TIP3    H155556   2.275   5.745   5.809 -0.6991 -2.1173  3.2044
11355TIP3    H255557   2.223   5.885   5.837  1.8034 -0.1779 -1.3063
11356TIP3   OH255558   3.464   2.013  13.654 -0.4750 -0.1714  0.1758
11356TIP3    H155559   3.371   2.037  13.655 -0.4922 -0.1010 -1.1975
11356TIP3    H255560   3.490   2.024  13.562  0.2798 -2.5149  0.0783
11357TIP3   OH255561   3.209   5.244   0.497  0.7476 -0.0616 -0.9385
11357TIP3    H155562   3.267   5.284   0.432 -1.5975  1.6082 -2.0509
11357TIP3    H255563   3.134   5.302   0.502  0.0673 -1.0947  2.0159
11358TIP3   OH255564   2.831   2.032   5.077  0.0028 -0.8370 -0.2163
11358TIP3    H155565   2.800   2.033   5.167  0.1267 -0.6782 -0.1772
11358TIP3    H255566   2.922   2.001   5.083  0.2100 -0.2337 -0.2289
11359TIP3   OH255567   1.868   1.902   3.490 -0.7956 -0.3393 -0.1587
11359TIP3    H155568   1.813   1.825   3.479  0.1358 -1.3336  1.8960
11359TIP3    H255569   1.955   1.867   3.507  0.0247  1.1966 -1.0963
11360TIP3   OH255570   5.697   6.079   4.196  0.5113 -0.4307  0.3991
11360TIP3    H155571   5.716   6.101   4.105 -0.9331 -2.3235 -0.3991
11360TIP3    H255572   5.750   6.000   4.213  0.5399 -0.2660  1.1004
11361TIP3   OH255573   6.083   4.373  12.550  0.0191 -0.2475  0.0476
11361TIP3    H155574   6.104   4.401  12.639 -1.2209 -0.1767  0.3284
11361TIP3    H255575   6.002   4.420  12.529  1.3256  1.2086 -1.8347
11362TIP3   OH255576   6.209   4.383  13.989  0.3625 -0.2814  0.6060
11362TIP3    H155577   6.227   4.345  14.075 -0.6529  1.5464  1.6625
11362TIP3    H255578   6.114   4.381  13.981  0.4295 -0.1524 -0.3535
11363TIP3   OH255579   4.427   2.091  11.695 -0.3727 -0.1622 -0.7433
11363TIP3    H155580   4.418   2.181  11.727 -1.8595 -0.4680 -0.2821
11363TIP3    H255581   4.357   2.082  11.630 -0.3315 -1.0454 -0.6626
11364TIP3   OH255582   2.765   2.275  13.641 -0.5010  0.0291  0.1621
11364TIP3    H155583   2.797   2.293  13.729  2.9084  1.8942 -1.3775
11364TIP3    H255584   2.706   2.347  13.621 -1.5193 -0.5577  0.9863
11365TIP3   OH255585   1.797   3.407  13.996  0.1489 -0.8747 -0.5320
11365TIP3    H155586   1.772   3.316  14.012 -0.3787 -0.4886  0.8929
11365TIP3    H255587   1.763   3.455  14.071  0.7860  0.4437 -1.0686
11366TIP3   OH255588   2.160   2.370   3.556 -0.2608 -0.8819 -0.2215
11366TIP3    H155589   2.204   2.286   3.540  1.9280  0.3354 -0.6906
11366TIP3    H255590   2.159   2.412   3.470 -2.8016 -1.0677 -0.3255
11367TIP3   OH255591   2.398   4.282  15.063 -0.0260  0.0082 -0.1774
11367TIP3    H155592   2.449   4.264  14.984 -1.4156  1.5827 -1.4631
11367TIP3    H255593   2.424   4.370  15.089 -2.1856  0.9302 -0.9865
11368TIP3   OH255594   0.353   0.293   6.039 -0.2208  0.1685  0.2752
11368TIP3    H155595   0.429   0.346   6.065  1.2098 -0.3168 -2.6727
11368TIP3    H255596   0.379   0.204   6.061 -1.1160  0.2746  1.8272
11369TIP3   OH255597   1.339   3.675  13.418  0.6963 -0.1804 -0.0517
11369TIP3    H155598   1.255   3.691  13.461  0.2452 -0.2876 -0.8770
11369TIP3    H255599   1.370   3.762  13.394  1.0593 -0.1039  0.6972
11370TIP3   OH255600   3.767   2.887   2.909 -0.1796  0.7538  0.1694
11370TIP3    H155601   3.791   2.802   2.946  0.7788  0.6640 -0.6460
11370TIP3    H255602   3.671   2.888   2.912 -0.2983 -1.2829 -1.8180
11371TIP3   OH255603   0.687   0.464   1.753 -0.2309  0.2761  0.5778
11371TIP3    H155604   0.781   0.459   1.767 -0.0133  1.5138 -0.2784
11371TIP3    H255605   0.667   0.392   1.692  0.4374  1.0001 -0.5134
11372TIP3   OH255606   4.479   1.449  13.734  0.1449 -0.0038 -0.1178
11372TIP3    H155607   4.560   1.491  13.760 -0.6611 -0.0457  2.6264
11372TIP3    H255608   4.431   1.516  13.686  0.4318  1.0548  1.0542
11373TIP3   OH255609   5.802   6.293   5.015  0.2397  0.1013 -0.1568
11373TIP3    H155610   5.847   6.377   5.014  2.1979 -0.9056 -0.6621
11373TIP3    H255611   5.806   6.262   4.924 -0.8251 -0.3596 -0.0595
11374TIP3   OH255612   5.027   2.477   1.103  0.5173  0.5306 -0.3938
11374TIP3    H155613   4.974   2.557   1.107  1.3560  1.1137 -0.7619
11374TIP3    H255614   4.966   2.407   1.126 -0.0347  1.3612  0.7655
11375TIP3   OH255615   4.220   0.498   1.137 -0.4567  0.0348 -0.2004
11375TIP3    H155616   4.168   0.529   1.063  2.2056 -2.1916 -3.1305
11375TIP3    H255617   4.170   0.426   1.174 -0.4767 -0.7156 -1.6591
11376TIP3   OH255618   0.248   3.214   3.311 -0.2105  0.2867 -0.8654
11376TIP3    H155619   0.318   3.152   3.294 -0.9595 -0.2513 -2.0015
11376TIP3    H255620   0.290   3.300   3.307  0.2604  0.0007 -2.1341
11377TIP3   OH255621   4.548   5.286  13.187  0.0579 -0.2563  0.4918
11377TIP3    H155622   4.549   5.259  13.279  1.3247 -0.5249  0.4116
11377TIP3    H255623   4.611   5.358  13.182 -0.6212  0.3080 -0.0037
11378TIP3   OH255624   4.331   4.792   4.899  0.6232  0.1380 -0.1248
11378TIP3    H155625   4.348   4.699   4.914 -0.5773 -0.0848 -0.0622
11378TIP3    H255626   4.273   4.818   4.970 -1.1832  0.2710 -1.5929
11379TIP3   OH255627   5.765   2.941   1.182 -0.6312  0.5199  0.5312
11379TIP3    H155628   5.748   2.849   1.201 -0.1672 -0.0558 -1.6987
11379TIP3    H255629   5.860   2.949   1.182 -0.6732  1.0665  0.9761
11380TIP3   OH255630   5.173   5.828  13.326 -0.3719  0.1020  0.2523
11380TIP3    H155631   5.136   5.840  13.413  0.6990 -1.6588  0.9901
11380TIP3    H255632   5.237   5.899  13.317  0.5786 -0.5756  1.5201
11381TIP3   OH255633   5.006   4.143   1.678 -0.2940  0.3448  0.2763
11381TIP3    H155634   5.025   4.157   1.585  0.1695 -1.2192  0.1286
11381TIP3    H255635   4.957   4.061   1.681  0.3055  0.0213  1.4918
11382TIP3   OH255636   4.146   4.181   0.596 -0.6387 -0.3493  0.1655
11382TIP3    H155637   4.224   4.138   0.631 -0.7745 -1.0236 -0.3321
11382TIP3    H255638   4.171   4.272   0.586  0.2440 -0.6466 -0.4163
11383TIP3   OH255639   1.361   0.040  11.019 -0.2825  0.0678 -0.3354
11383TIP3    H155640   1.414  -0.035  10.991 -0.6797 -0.5313  0.4980
11383TIP3    H255641   1.379   0.107  10.954  0.7448 -0.4658 -0.6128
11384TIP3   OH255642   5.367   5.782   2.198 -0.4875 -0.4171 -0.0905
11384TIP3    H155643   5.398   5.750   2.283  0.8318  0.8095 -0.1048
11384TIP3    H255644   5.275   5.804   2.213  0.2683  1.7476  1.5853
11385TIP3   OH255645   1.112   5.474  17.070 -0.0262 -0.3497  0.0266
11385TIP3    H155646   1.204   5.485  17.046 -0.4215  2.8194 -0.1968
11385TIP3    H255647   1.113   5.476  17.166  0.2011 -1.1113  0.0462
11386TIP3   OH255648   2.736   1.444   1.527  0.3280 -0.0641 -0.4229
11386TIP3    H155649   2.802   1.501   1.487 -1.2280  1.2897 -1.1691
11386TIP3    H255650   2.707   1.387   1.455 -0.5955  0.5879 -0.5808
11387TIP3   OH255651   0.949   1.005   0.595  0.1921 -0.5746 -0.2565
11387TIP3    H155652   0.936   0.914   0.623  1.6437 -0.5408  0.5439
11387TIP3    H255653   0.897   1.057   0.656 -1.7617 -0.9247 -1.5455
11388TIP3   OH255654   1.616   2.727   3.074 -0.1496 -0.5698  0.3468
11388TIP3    H155655   1.649   2.670   3.005 -0.7591 -1.3835  0.7195
11388TIP3    H255656   1.694   2.769   3.109  0.2580 -0.8288 -0.2408
11389TIP3   OH255657   2.715   4.293   3.172 -0.1625  0.1653  0.2273
11389TIP3    H155658   2.696   4.386   3.177  0.4841  0.2941  0.2824
11389TIP3    H255659   2.704   4.271   3.079  3.1283  1.0480 -0.4337
11390TIP3   OH255660   3.033   4.739   2.455  0.3285  0.1581  0.8664
11390TIP3    H155661   3.086   4.801   2.506 -1.1784  1.3019  1.0668
11390TIP3    H255662   3.004   4.675   2.519 -1.3250  1.4352  1.4335
11391TIP3   OH255663   5.320   3.666   5.198 -0.7110 -0.0977  0.2887
11391TIP3    H155664   5.243   3.657   5.142 -0.5159 -0.0632  0.0168
11391TIP3    H255665   5.393   3.676   5.137 -0.5355  0.2212  0.5534
11392TIP3   OH255666   4.063   5.921   4.621 -0.0459 -0.1631  0.6958
11392TIP3    H155667   4.107   6.005   4.635 -0.5764 -0.0168  1.5198
11392TIP3    H255668   3.969   5.943   4.620 -0.1617 -0.6745  0.4257
11393TIP3   OH255669   2.876   0.938  14.595 -0.2319  0.2041 -0.5100
11393TIP3    H155670   2.944   0.875  14.571 -0.3454  0.5833 -1.8303
11393TIP3    H255671   2.823   0.892  14.660 -0.4068 -1.1258 -1.5714
11394TIP3   OH255672   2.473   6.414   0.913  0.0340 -0.4254 -0.1180
11394TIP3    H155673   2.469   6.321   0.931 -0.5494 -0.3947 -0.0797
11394TIP3    H255674   2.566   6.431   0.895  0.2367 -0.9046  0.4351
11395TIP3   OH255675   0.325   1.873   2.676 -0.2849  0.4092  0.4336
11395TIP3    H155676   0.415   1.845   2.660 -0.1823 -0.0640  1.7810
11395TIP3    H255677   0.332   1.940   2.744 -0.7792  1.8015 -0.8480
11396TIP3   OH255678   3.855   0.427  11.023 -0.6119 -0.7174  0.1646
11396TIP3    H155679   3.817   0.479  11.093  1.9901  1.3888  0.1170
11396TIP3    H255680   3.781   0.403  10.967 -1.9352  2.7329  0.3331
11397TIP3   OH255681   2.453   3.720  11.832 -0.8674 -0.5160 -0.1887
11397TIP3    H155682   2.542   3.696  11.857  0.3515 -1.1486 -4.6817
11397TIP3    H255683   2.430   3.793  11.890  2.0429 -1.2013  1.9185
11398TIP3   OH255684   2.688   5.515   0.213 -0.4468  0.1659 -1.1729
11398TIP3    H155685   2.739   5.587   0.250  0.3147 -0.8036 -0.2992
11398TIP3    H255686   2.597   5.535   0.237 -0.1761  0.5523 -0.4374
11399TIP3   OH255687   5.800   0.677   4.068  0.1690  1.2716 -0.5050
11399TIP3    H155688   5.773   0.767   4.046  0.5674  1.3067 -0.8592
11399TIP3    H255689   5.742   0.652   4.139  0.4710  2.0416  0.0230
11400TIP3   OH255690   6.353   4.728   5.564  0.3519  0.1786  0.2374
11400TIP3    H155691   6.333   4.822   5.567  0.6215  0.2338  0.3467
11400TIP3    H255692   6.415   4.719   5.491  0.4138  0.1040  0.2982
11401TIP3   OH255693   1.656   6.703  13.964 -0.1237 -0.3210 -0.5170
11401TIP3    H155694   1.640   6.781  13.911  2.7100  0.8650  0.2887
11401TIP3    H255695   1.718   6.652  13.913 -0.5235 -1.1639 -0.1704
11402TIP3   OH255696   2.835   4.901  15.968  0.4172 -0.3648  0.3397
11402TIP3    H155697   2.852   4.935  15.880  1.3176 -0.8838  0.3021
11402TIP3    H255698   2.852   4.975  16.026  1.8719 -0.5970  0.2245
11403TIP3   OH255699   5.194   0.693   4.079 -0.5062  0.1264 -0.1054
11403TIP3    H155700   5.111   0.651   4.055 -0.3582 -1.0272  1.2897
11403TIP3    H255701   5.168   0.779   4.112 -0.9919  0.4077 -1.2062
11404TIP3   OH255702   2.222   6.351  15.098 -0.4030 -0.3540  0.2483
11404TIP3    H155703   2.311   6.368  15.067 -0.5136 -0.5031 -0.1605
11404TIP3    H255704   2.231   6.274  15.155 -0.0898  0.3399  1.1469
11405TIP3   OH255705   3.296   0.859   3.963 -0.2752 -0.0748  0.4021
11405TIP3    H155706   3.212   0.901   3.945 -0.3647 -1.0083 -1.4999
11405TIP3    H255707   3.272   0.770   3.991  0.0671 -0.4974 -0.6091
11406TIP3   OH255708   2.505   0.813   1.805  0.1259 -0.4725 -0.0741
11406TIP3    H155709   2.543   0.831   1.892  1.1608 -0.7000 -0.4703
11406TIP3    H255710   2.564   0.858   1.744 -0.4032 -0.6081 -0.6836
11407TIP3   OH255711   6.094   0.837   0.303  0.4813 -0.1460 -0.5417
11407TIP3    H155712   6.129   0.914   0.258 -0.1921  0.1769 -0.5036
11407TIP3    H255713   6.171   0.798   0.345  0.7659  0.7000 -0.2623
11408TIP3   OH255714   0.139   4.001  14.282  0.4024  0.4292  1.0602
11408TIP3    H155715   0.197   3.933  14.249  0.5179  0.8534  0.3789
11408TIP3    H255716   0.152   3.999  14.377 -1.5802 -2.2656  1.3312
11409TIP3   OH255717   0.852   5.608  10.656  0.5741 -0.4384  0.9589
11409TIP3    H155718   0.941   5.578  10.676  1.1179  0.3412 -0.2489
11409TIP3    H255719   0.836   5.679  10.719  1.7294  1.0329 -0.3730
11410TIP3   OH255720   2.286   5.684   4.637  0.2457  0.2306  0.0776
11410TIP3    H155721   2.261   5.671   4.729 -1.1182  1.4507 -0.1093
11410TIP3    H255722   2.241   5.615   4.589  0.6370 -0.1603  0.2688
11411TIP3   OH255723   3.984   5.241  11.021  0.7588  0.0587  0.0229
11411TIP3    H155724   3.959   5.277  10.935  0.0749 -1.2077 -0.3146
11411TIP3    H255725   3.902   5.234  11.069  0.9577 -0.6103  0.2647
11412TIP3   OH255726   0.021   4.776  14.151 -0.2702 -0.0171 -0.0088
11412TIP3    H155727   0.071   4.791  14.070  0.9817 -2.2805  0.3203
11412TIP3    H255728  -0.069   4.764  14.121  0.1120 -0.4054 -1.0441
11413TIP3   OH255729   1.901   0.117   2.066 -0.0421  0.5050 -0.1103
11413TIP3    H155730   1.861   0.148   2.148 -0.2150 -0.0057  0.0030
11413TIP3    H255731   1.850   0.039   2.043  1.6303 -0.8445  0.6764
11414TIP3   OH255732   1.300   6.264  14.754  0.1190  0.0734 -0.1450
11414TIP3    H155733   1.313   6.175  14.722 -0.0100  0.0452 -0.1199
11414TIP3    H255734   1.269   6.313  14.678 -0.8368 -0.1465  0.0827
11415TIP3   OH255735   5.776   5.316  11.319 -0.4188  0.2204  0.4339
11415TIP3    H155736   5.778   5.410  11.304 -0.5412 -0.1231 -1.8774
11415TIP3    H255737   5.867   5.292  11.333 -0.3052  0.5846  0.3172
11416TIP3   OH255738   5.591   1.384   2.601  0.0489  0.2514 -0.2544
11416TIP3    H155739   5.578   1.306   2.545 -0.1156  0.6003 -0.7081
11416TIP3    H255740   5.585   1.458   2.540  0.8263  0.5917  0.0756
11417TIP3   OH255741   5.240   2.965   3.519  0.2423  0.1251 -0.1042
11417TIP3    H155742   5.272   3.009   3.598 -0.3111  1.7337 -0.7676
11417TIP3    H255743   5.312   2.974   3.456 -0.3128  1.0810 -0.6086
11418TIP3   OH255744   6.155   3.663   0.062  0.4959  0.1626 -0.1278
11418TIP3    H155745   6.249   3.654   0.074  0.4050 -0.2658  0.3037
11418TIP3    H255746   6.143   3.674  -0.033  0.9928  0.4327 -0.1547
11419TIP3   OH255747   6.367   3.725   2.188  0.2322  0.3192  0.2443
11419TIP3    H155748   6.313   3.646   2.192  0.7796 -0.1204 -0.7346
11419TIP3    H255749   6.409   3.729   2.274 -0.5900  0.1236  0.6659
11420TIP3   OH255750   0.488   4.120  12.083  0.0203 -0.2625  0.2159
11420TIP3    H155751   0.481   4.042  12.138 -2.2530  0.5432  1.1166
11420TIP3    H255752   0.398   4.139  12.056  0.5595  1.8859 -0.2003
11421TIP3   OH255753   6.676   0.498   5.908 -0.0776  0.4287 -0.6000
11421TIP3    H155754   6.599   0.443   5.898 -0.4544  0.4925  1.7103
11421TIP3    H255755   6.717   0.498   5.821 -2.7929  0.6302 -1.9245
11422TIP3   OH255756   4.529   4.923  14.163  0.0073 -0.9212  0.1389
11422TIP3    H155757   4.467   4.960  14.100  1.4554 -0.7161 -1.1923
11422TIP3    H255758   4.550   4.995  14.222 -0.5798 -0.8447  0.2596
11423TIP3   OH255759   1.051   6.311   0.782 -0.5414 -0.1077 -0.3263
11423TIP3    H155760   1.102   6.383   0.820 -0.6558  1.2789 -2.7049
11423TIP3    H255761   0.961   6.345   0.777 -0.9806 -1.1520  0.3652
11424TIP3   OH255762   1.957   0.759  17.185 -0.0879  0.0680  0.2351
11424TIP3    H155763   1.918   0.672  17.189  1.2384 -0.5864 -0.7898
11424TIP3    H255764   2.004   0.768  17.268 -0.3900 -0.0959  0.4265
11425TIP3   OH255765   4.363   4.626  11.652  0.0603 -0.5514  0.1478
11425TIP3    H155766   4.273   4.603  11.672 -0.6952  2.0767  0.0343
11425TIP3    H255767   4.407   4.625  11.737 -0.6981  0.5885  0.5673
11426TIP3   OH255768   5.344   1.509  11.936  0.2629 -0.2826 -0.1970
11426TIP3    H155769   5.413   1.494  11.871 -0.4246 -0.6641 -0.8529
11426TIP3    H255770   5.325   1.422  11.970  0.5849 -0.0870  0.4831
11427TIP3   OH255771   1.293   5.166   3.270  0.3243  0.1889  0.1216
11427TIP3    H155772   1.351   5.091   3.258 -1.6219 -1.2038 -0.9099
11427TIP3    H255773   1.346   5.242   3.247  1.5566 -1.0901 -1.3752
11428TIP3   OH255774   4.875   0.711  11.836 -0.4618 -0.6018 -0.3669
11428TIP3    H155775   4.903   0.633  11.789  0.0379 -0.0044 -1.0760
11428TIP3    H255776   4.870   0.684  11.928  2.3684 -0.7572 -0.2110
11429TIP3   OH255777   4.127   1.586   0.072  0.0841 -0.1523  0.3726
11429TIP3    H155778   4.116   1.658   0.010  0.2860 -0.8659 -0.5101
11429TIP3    H255779   4.049   1.589   0.128 -1.8356 -1.6155 -2.1111
11430TIP3   OH255780   3.793   0.155   5.155 -0.2139  0.0248 -0.1961
11430TIP3    H155781   3.714   0.107   5.130  0.6068 -0.9081 -1.0629
11430TIP3    H255782   3.788   0.237   5.107 -0.8582  0.1299  0.0584
11431TIP3   OH255783   3.205   5.280  14.581 -0.2272 -0.1052  0.0241
11431TIP3    H155784   3.212   5.355  14.640  0.6133  1.2604 -1.7750
11431TIP3    H255785   3.112   5.278  14.557 -0.4082 -0.1367  0.7193
11432TIP3   OH255786   3.893   3.593   1.998 -0.0330  0.2847  0.5056
11432TIP3    H155787   3.941   3.513   1.977 -1.6520 -0.4198 -0.6168
11432TIP3    H255788   3.947   3.663   1.962 -0.0239 -0.5292 -1.1004
11433TIP3   OH255789   2.181   0.622  13.544 -0.1648  0.0537 -0.6129
11433TIP3    H155790   2.153   0.688  13.481  1.0174  0.8165 -0.3404
11433TIP3    H255791   2.157   0.538  13.503  0.3614  0.5512 -1.9598
11434TIP3   OH255792   0.022   5.414  15.043  0.4622 -0.0247  0.0910
11434TIP3    H155793   0.077   5.446  14.971  0.8354 -0.0884  0.3452
11434TIP3    H255794   0.012   5.321  15.025 -0.2188  0.1397 -0.3847
11435TIP3   OH255795   3.205   5.407   5.396 -0.3305  1.1616  0.1184
11435TIP3    H155796   3.131   5.356   5.362 -0.4604  0.1607  1.8385
11435TIP3    H255797   3.220   5.371   5.484  2.4594  1.0891 -0.3665
11436TIP3   OH255798   3.854   6.596   5.408  0.0621  0.3534  0.2201
11436TIP3    H155799   3.921   6.529   5.400 -1.2866 -1.2553  1.9929
11436TIP3    H255800   3.782   6.563   5.354 -0.2091  0.8943  0.2556
11437TIP3   OH255801   1.554   2.489  11.882 -0.2128 -0.0559  0.1606
11437TIP3    H155802   1.555   2.465  11.975  0.4674  0.6046  0.3271
11437TIP3    H255803   1.568   2.584  11.882  1.8449 -0.3341 -0.7066
11438TIP3   OH255804   2.519   6.696   1.708  1.0168 -0.3774  0.1019
11438TIP3    H155805   2.442   6.732   1.664  1.1588  0.5402  0.5885
11438TIP3    H255806   2.592   6.715   1.648  0.8584 -1.2773 -0.3750
11439TIP3   OH255807   2.768   6.572  13.570  0.1131  0.2402 -0.0557
11439TIP3    H155808   2.860   6.583  13.594  0.5641  1.2006 -2.1621
11439TIP3    H255809   2.741   6.658  13.537 -1.5083 -0.0711  0.4074
11440TIP3   OH255810   4.924   2.063  16.810 -0.4647  0.4894  0.0905
11440TIP3    H155811   4.888   2.150  16.822 -0.5573  0.4620  0.0093
11440TIP3    H255812   4.910   2.019  16.894  0.2753  0.8034  0.3843
11441TIP3   OH255813   5.205   5.919   4.942  0.1018  0.2265 -0.0123
11441TIP3    H155814   5.276   5.882   4.995  0.3543  0.6899 -0.0208
11441TIP3    H255815   5.228   6.011   4.933 -2.4368  1.3109  3.2341
11442TIP3   OH255816   2.434   4.350  15.385 -0.0785 -0.4785 -0.1218
11442TIP3    H155817   2.462   4.288  15.451  2.1208  1.6967  1.0965
11442TIP3    H255818   2.498   4.340  15.314  1.2256  1.3393  0.7271
11443TIP3   OH255819   3.521   1.720  16.622 -0.6108 -0.1652 -0.4781
11443TIP3    H155820   3.604   1.767  16.635 -0.1974 -0.7369 -1.0583
11443TIP3    H255821   3.455   1.776  16.664 -0.0087  0.5514 -0.4814
11444TIP3   OH255822   6.745   1.095   0.383 -0.4665 -0.4489 -0.1008
11444TIP3    H155823   6.669   1.152   0.372 -0.7288 -0.3173  2.1713
11444TIP3    H255824   6.818   1.155   0.401 -0.1617 -0.6696 -0.5790
11445TIP3   OH255825   5.742   0.896  11.756  0.1438  0.0402  0.2226
11445TIP3    H155826   5.767   0.983  11.789  1.2211 -0.6694  1.2971
11445TIP3    H255827   5.767   0.897  11.664  2.1987  0.1019  0.7672
11446TIP3   OH255828   1.308   1.314   5.815 -0.0530 -0.0291 -0.8261
11446TIP3    H155829   1.401   1.314   5.790  0.0875 -0.5887 -0.3295
11446TIP3    H255830   1.309   1.289   5.908 -0.6871  0.1949 -0.7579
11447TIP3   OH255831   0.194   6.203  12.241  0.1666 -0.1608 -0.6345
11447TIP3    H155832   0.211   6.250  12.323  1.3928 -0.3645 -0.7684
11447TIP3    H255833   0.230   6.115  12.257 -0.5165 -0.5150 -1.0278
11448TIP3   OH255834   3.401   6.752   5.302  0.2119  0.6485  0.6716
11448TIP3    H155835   3.477   6.699   5.325  0.0209 -0.2991 -0.8300
11448TIP3    H255836   3.385   6.732   5.210 -0.7785  2.1842  0.4963
11449TIP3   OH255837   4.961   6.172   3.586  0.0965 -0.4788  0.0808
11449TIP3    H155838   4.884   6.186   3.642  0.4073  1.4027  0.0783
11449TIP3    H255839   4.925   6.150   3.500 -0.4549  0.8505 -0.0359
11450TIP3   OH255840   3.622   5.347   4.178 -0.1081  0.3548  0.4495
11450TIP3    H155841   3.536   5.337   4.219  0.4380 -0.6685  1.3578
11450TIP3    H255842   3.609   5.319   4.088 -0.8079  0.5349  0.4901
11451TIP3   OH255843   2.623   4.305   0.971 -0.2197 -0.0159 -0.0221
11451TIP3    H155844   2.691   4.304   0.904 -0.9001 -4.7859 -0.8577
11451TIP3    H255845   2.541   4.296   0.922 -1.0937  0.9218  1.2285
11452TIP3   OH255846   2.526   5.970   5.769 -0.0125 -0.0171 -0.3249
11452TIP3    H155847   2.501   5.923   5.689 -1.3810 -0.0701  0.1146
11452TIP3    H255848   2.601   6.023   5.743  0.7759 -1.5065 -1.1410
11453TIP3   OH255849   0.813   0.497   4.302 -0.0945 -0.1623 -0.2103
11453TIP3    H155850   0.721   0.493   4.327  0.2113 -0.8801  0.8181
11453TIP3    H255851   0.821   0.430   4.233 -0.2592 -0.3614 -0.0375
11454TIP3   OH255852   2.795   4.257   0.756 -0.3486  0.0676 -0.4360
11454TIP3    H155853   2.739   4.197   0.707  0.2856  0.4951 -1.7088
11454TIP3    H255854   2.866   4.202   0.790 -0.6565 -0.1903 -0.2150
11455TIP3   OH255855   2.078   5.501  13.546 -0.0623  0.2358 -0.0494
11455TIP3    H155856   2.047   5.440  13.480 -0.1733  0.2549 -0.0155
11455TIP3    H255857   2.004   5.511  13.606 -0.1223  0.5763 -0.1774
11456TIP3   OH255858   3.071   5.566   4.818 -0.1457 -0.3241  0.1753
11456TIP3    H155859   3.161   5.587   4.842  0.0141 -0.7517 -0.0374
11456TIP3    H255860   3.018   5.601   4.890  0.1067  0.8029 -0.1806
11457TIP3   OH255861   5.220   0.883  17.264  0.0609  0.3939 -0.1177
11457TIP3    H155862   5.297   0.928  17.300 -0.3683  0.3679  0.8537
11457TIP3    H255863   5.188   0.830  17.337  0.7445 -1.7416 -1.3220
11458TIP3   OH255864   3.442   6.210   3.309 -0.0786  0.0652  0.2387
11458TIP3    H155865   3.380   6.223   3.380 -0.1488 -1.9923  0.5681
11458TIP3    H255866   3.496   6.290   3.309  0.0520  0.0130  2.7035
11459TIP3   OH255867   4.483   0.291   3.713 -0.6977 -0.4398  0.1526
11459TIP3    H155868   4.413   0.263   3.772  0.1440 -0.7949  1.0112
11459TIP3    H255869   4.537   0.213   3.701  0.8326  0.3822  1.3687
11460TIP3   OH255870   5.694   4.138   0.708 -0.2616  0.2619  0.0955
11460TIP3    H155871   5.644   4.210   0.669 -2.0428 -1.2043 -0.3956
11460TIP3    H255872   5.718   4.083   0.634 -0.2146 -0.4301  0.6191
11461TIP3   OH255873   2.337   3.840   1.212  0.0324 -0.9986  0.2514
11461TIP3    H155874   2.369   3.805   1.129 -0.1559 -1.4041  0.3468
11461TIP3    H255875   2.401   3.810   1.277  0.9031  0.4431  0.0682
11462TIP3   OH255876   4.620   6.586   4.300 -0.2787  0.1888 -0.1849
11462TIP3    H155877   4.714   6.576   4.311 -0.6594 -1.0175  2.1287
11462TIP3    H255878   4.593   6.642   4.373 -1.4007  0.3510 -0.7147
11463TIP3   OH255879   0.461   6.472   4.287  0.3601 -0.1272 -0.2025
11463TIP3    H155880   0.414   6.388   4.286 -0.1784  0.1635  0.7787
11463TIP3    H255881   0.478   6.490   4.194  0.6823 -1.4271 -0.4096
11464TIP3   OH255882   6.470   1.380  16.295  0.8087  0.3772 -0.5001
11464TIP3    H155883   6.395   1.436  16.314  1.3165  0.6831  0.6541
11464TIP3    H255884   6.451   1.298  16.340  1.6025  0.7911  0.6163
11465TIP3   OH255885   3.029   3.199   1.226  0.3783 -0.5543 -0.3947
11465TIP3    H155886   3.090   3.127   1.218 -0.0646 -1.3490  2.8867
11465TIP3    H255887   3.077   3.267   1.272 -0.2250  0.0317 -0.6142
11466TIP3   OH255888   6.742   4.259  13.901 -0.3736  0.1944 -0.6177
11466TIP3    H155889   6.750   4.328  13.967  1.1040  0.8803 -1.5028
11466TIP3    H255890   6.729   4.179  13.953  0.5169  0.7570  0.5118
11467TIP3   OH255891   4.813   4.098   2.488  0.3197 -0.5155 -0.3287
11467TIP3    H155892   4.749   4.040   2.446  2.1661 -2.4344 -0.5533
11467TIP3    H255893   4.893   4.087   2.437  1.5800 -0.1015  1.5148
11468TIP3   OH255894   1.256   6.142   4.517  0.1936 -0.4495 -0.2319
11468TIP3    H155895   1.190   6.073   4.521 -1.0954  0.7752 -0.2614
11468TIP3    H255896   1.305   6.133   4.598 -0.3674 -1.0044  0.0456
11469TIP3   OH255897   4.099   0.103   2.122  0.3497  1.2009  0.2766
11469TIP3    H155898   4.132   0.013   2.118 -0.7455  0.7634  1.0156
11469TIP3    H255899   4.041   0.110   2.047  1.7130  1.8299 -0.7542
11470TIP3   OH255900   1.305   6.750  12.152 -0.4739 -0.6829 -0.7849
11470TIP3    H155901   1.388   6.703  12.141 -0.3883 -0.6878 -0.1520
11470TIP3    H255902   1.268   6.714  12.233  0.0428  0.9840  0.2220
11471TIP3   OH255903   4.782   0.264   3.413  0.5152 -0.8529 -0.1622
11471TIP3    H155904   4.752   0.277   3.323 -0.4836  0.1852  0.3174
11471TIP3    H255905   4.827   0.179   3.411  1.0667 -0.5360 -1.7774
11472TIP3   OH255906   3.072   6.625   0.040  0.4788  0.3201  0.0503
11472TIP3    H155907   3.142   6.635   0.104 -0.1868  0.7638  0.7165
11472TIP3    H255908   3.024   6.707   0.044 -1.8304 -1.0606  1.7107
11473TIP3   OH255909   0.894   0.924  11.994 -0.4969  0.3065  0.2581
11473TIP3    H155910   0.894   0.977  12.074 -1.2298  0.5753  0.0832
11473TIP3    H255911   0.888   0.988  11.923 -0.6616  0.0249  0.0191
11474TIP3   OH255912   2.443   6.090  16.007  0.3040  0.1963  0.1317
11474TIP3    H155913   2.379   6.034  16.049 -0.4394  1.6316  0.9296
11474TIP3    H255914   2.393   6.166  15.977  1.2404  0.3056 -1.2034
11475TIP3   OH255915   1.973   1.662   6.011  0.1929 -0.3721  0.3854
11475TIP3    H155916   2.019   1.600   6.067  2.5834  2.0841  1.2561
11475TIP3    H255917   1.977   1.745   6.058  0.1032  1.2302 -2.2895
11476TIP3   OH255918   0.901   4.345   2.365  0.0033  0.5967  0.4550
11476TIP3    H155919   0.859   4.376   2.285  2.3656  0.0871 -1.0241
11476TIP3    H255920   0.907   4.250   2.355  1.4901  0.6563  0.6280
11477TIP3   OH255921   0.893   0.018   3.665 -0.0693  0.1259 -0.5161
11477TIP3    H155922   0.932  -0.009   3.582  0.6201  2.5260 -0.9884
11477TIP3    H255923   0.963   0.062   3.712 -1.6308  2.7847 -0.5650
11478TIP3   OH255924   0.852   1.693   4.770 -0.4844  0.1728  0.0738
11478TIP3    H155925   0.915   1.705   4.700 -1.5075 -0.5750 -1.0066
11478TIP3    H255926   0.901   1.651   4.840  0.0824 -0.9796 -0.9903
11479TIP3   OH255927   2.560   0.477  16.677 -0.1376  0.0743 -0.1538
11479TIP3    H155928   2.551   0.494  16.583 -3.0176  0.4800  0.1529
11479TIP3    H255929   2.603   0.392  16.682  0.1603  0.1159 -1.8492
11480TIP3   OH255930   5.945   6.141   5.987 -0.7811  0.5781 -0.0561
11480TIP3    H155931   6.004   6.084   5.938  2.3187  2.4430  1.3038
11480TIP3    H255932   5.883   6.081   6.028  0.9253 -1.6182 -0.5517
11481TIP3   OH255933   0.904   2.215   4.861 -0.3834 -0.1542  0.1355
11481TIP3    H155934   0.941   2.141   4.811 -1.4858 -0.3986 -0.3527
11481TIP3    H255935   0.823   2.235   4.815 -0.7091  0.5531  1.0175
11482TIP3   OH255936   2.634   4.539  13.946  0.0654 -0.6223  0.3436
11482TIP3    H155937   2.594   4.621  13.972 -0.6297 -0.5137 -1.0017
11482TIP3    H255938   2.700   4.522  14.012 -0.1170  0.7706  0.8952
11483TIP3   OH255939   1.742   6.742   6.399 -0.3434 -0.1441 -0.3398
11483TIP3    H155940   1.817   6.712   6.450 -0.8240 -0.4850  0.1713
11483TIP3    H255941   1.725   6.830   6.431 -1.6208 -0.9372  1.2028
11484TIP3   OH255942   1.180   6.404  10.707  0.0028  0.0847 -0.3930
11484TIP3    H155943   1.140   6.335  10.759 -1.6979  1.8971  0.7954
11484TIP3    H255944   1.223   6.358  10.635 -1.2106 -2.1870  0.2833
11485TIP3   OH255945   3.069   0.583   5.143  0.0973 -0.4967 -0.1925
11485TIP3    H155946   3.090   0.490   5.136 -1.5596 -0.8095 -0.9809
11485TIP3    H255947   2.978   0.586   5.173  0.2476  0.8764  0.1759
11486TIP3   OH255948   6.119   4.418  16.660 -0.3451  0.0104 -0.0721
11486TIP3    H155949   6.164   4.341  16.694  1.0736  0.2887 -1.2599
11486TIP3    H255950   6.043   4.428  16.716  0.9150 -0.6612  1.7990
11487TIP3   OH255951   3.486   0.342  11.181 -0.7048  0.6969 -0.0350
11487TIP3    H155952   3.568   0.391  11.179 -0.9807  1.1394 -0.6500
11487TIP3    H255953   3.451   0.358  11.269  0.3074 -0.2457  0.5568
11488TIP3   OH255954   1.139   0.374  14.457 -0.4365  0.0158  0.0613
11488TIP3    H155955   1.115   0.308  14.393 -0.7071  0.1253  0.0527
11488TIP3    H255956   1.110   0.338  14.541 -0.1448 -0.0963  0.1169
11489TIP3   OH255957   2.186   2.253  12.604 -0.1795  0.2108 -0.3701
11489TIP3    H155958   2.169   2.174  12.656  0.2366  0.4737  0.1671
11489TIP3    H255959   2.099   2.292  12.591 -0.5302 -0.9507 -1.6268
11490TIP3   OH255960   5.671   0.046  16.428  0.5480  0.2366  0.1452
11490TIP3    H155961   5.583   0.009  16.418  1.2024 -0.7396 -2.4167
11490TIP3    H255962   5.718  -0.018  16.481  0.3073 -0.2493 -0.2251
11491TIP3   OH255963   1.769   2.678  15.993 -0.7453 -0.0763 -0.4421
11491TIP3    H155964   1.864   2.692  15.993 -0.5582 -1.2780 -0.1088
11491TIP3    H255965   1.734   2.755  15.948  0.3839  0.4035 -0.5339
11492TIP3   OH255966   6.205   4.329   3.158  0.5957 -0.8051 -0.0665
11492TIP3    H155967   6.264   4.373   3.219  0.8318 -1.8070  0.4374
11492TIP3    H255968   6.120   4.329   3.202  0.9452 -2.2382  0.6066
11493TIP3   OH255969   3.104   6.487  12.870 -0.0395 -0.3866 -0.1600
11493TIP3    H155970   3.081   6.401  12.906 -1.3791 -0.4848 -1.2022
11493TIP3    H255971   3.200   6.491  12.876 -0.0953 -1.2405  1.4721
11494TIP3   OH255972   2.859   0.046  12.039 -0.0807 -0.0830 -0.2087
11494TIP3    H155973   2.859   0.018  12.130 -0.2722 -0.0389 -0.1944
11494TIP3    H255974   2.943   0.017  12.004 -0.4524 -1.0382 -0.3154
11495TIP3   OH255975   2.668   2.651  13.316 -0.0601  0.1044  0.5203
11495TIP3    H155976   2.675   2.637  13.222 -2.8402  0.3858  0.2168
11495TIP3    H255977   2.656   2.746  13.326 -2.4122 -0.1955  0.9078
11496TIP3   OH255978   4.651   0.896  16.423 -0.4588  0.2602  0.0695
11496TIP3    H155979   4.701   0.959  16.371 -0.6682 -0.4115 -0.9557
11496TIP3    H255980   4.693   0.896  16.509 -0.0357  1.2870 -0.1366
11497TIP3   OH255981   5.618   6.379   4.509 -0.3214 -0.4003 -0.2485
11497TIP3    H155982   5.608   6.454   4.451 -0.7740 -1.7410 -1.9638
11497TIP3    H255983   5.539   6.327   4.494 -1.4001  0.1794  3.0499
11498TIP3   OH255984   6.491   4.789   1.757 -0.0620 -0.2746 -0.3605
11498TIP3    H155985   6.516   4.765   1.668  2.8251  1.0932  0.0439
11498TIP3    H255986   6.559   4.753   1.813  0.1404  2.0052  0.9447
11499TIP3   OH255987   0.375   6.112  14.472 -0.6015  0.3107 -0.5212
11499TIP3    H155988   0.461   6.071  14.479  0.2546  1.9580 -1.1633
11499TIP3    H255989   0.335   6.071  14.395 -0.3559 -0.3929 -0.2757
11500TIP3   OH255990   5.457   1.638   0.091  0.2787  0.4063  0.0467
11500TIP3    H155991   5.503   1.720   0.072  0.3028  0.9572  2.3261
11500TIP3    H255992   5.526   1.571   0.087  0.0991  0.3383 -2.6842
11501TIP3   OH255993   0.463   2.567   6.713 -0.2376  0.0288  0.6917
11501TIP3    H155994   0.467   2.525   6.800 -1.1675 -0.0275  0.7087
11501TIP3    H255995   0.373   2.553   6.684  0.2417 -0.5034 -0.5663
11502TIP3   OH255996   3.023   6.742  11.247 -0.1960  0.4678  0.2527
11502TIP3    H155997   3.050   6.825  11.207 -0.4673  0.8400  0.8351
11502TIP3    H255998   2.981   6.767  11.329  1.0647 -0.3416  1.1503
11503TIP3   OH255999   4.318   5.301   0.530  0.2352 -0.0669  0.2986
11503TIP3    H156000   4.323   5.292   0.435  1.3580  2.2321  0.1120
11503TIP3    H256001   4.226   5.317   0.548  0.2994  1.3606 -0.5935
11504TIP3   OH256002   4.790   4.994   3.188 -0.1813  0.1003  0.0698
11504TIP3    H156003   4.854   5.029   3.126  0.2319  0.6150  0.7879
11504TIP3    H256004   4.705   5.017   3.149  0.0703  0.0034 -0.5437
11505TIP3   OH256005   3.536   1.010  11.272 -0.4548 -0.5175 -0.9719
11505TIP3    H156006   3.474   0.965  11.215 -2.1022 -1.1298  1.1937
11505TIP3    H256007   3.524   0.968  11.357  1.4383  0.7971 -0.0213
11506TIP3   OH256008   1.968   6.093   0.956  0.1524  0.0495  0.1782
11506TIP3    H156009   1.910   6.122   0.885 -0.4762  0.3690  0.8142
11506TIP3    H256010   2.027   6.167   0.970  1.0933 -0.4971 -0.8593
11507TIP3   OH256011   4.466   0.398   1.439  0.3885 -0.0849  0.3836
11507TIP3    H156012   4.416   0.480   1.448  0.6881  0.0925  0.4315
11507TIP3    H256013   4.494   0.377   1.528  0.0251 -0.4231  0.4213
11508TIP3   OH256014   3.568   0.511   0.205 -0.2344 -0.0925 -0.3850
11508TIP3    H156015   3.552   0.571   0.278 -1.3959 -2.2857  1.2165
11508TIP3    H256016   3.482   0.499   0.165  0.5572  1.8690 -2.7916
11509TIP3   OH256017   0.089   0.532   1.103 -0.3378  1.1962 -0.3269
11509TIP3    H156018   0.107   0.464   1.168 -0.6101  2.5816  1.2316
11509TIP3    H256019   0.165   0.529   1.045  0.1736  0.2951  0.3590
11510TIP3   OH256020   1.454   2.080  14.006  0.0973  0.2749  0.1144
11510TIP3    H156021   1.426   2.132  13.930  0.5392  0.2147 -0.0917
11510TIP3    H256022   1.455   2.141  14.079  0.3584  0.4983 -0.0736
11511TIP3   OH256023   1.148   5.988   0.032 -0.3061 -0.5693  0.0630
11511TIP3    H156024   1.070   6.018  -0.014 -0.1114 -1.7124 -1.0407
11511TIP3    H256025   1.140   5.892   0.034  1.2257 -0.7229 -0.3757
11512TIP3   OH256026   5.042   0.190   5.963 -0.1029 -0.3356 -0.5396
11512TIP3    H156027   5.074   0.110   6.005  0.1257 -0.0173 -0.1131
11512TIP3    H256028   5.016   0.162   5.875 -0.7440 -1.0364 -0.1319
11513TIP3   OH256029   0.604   6.166   5.346 -0.3435  0.0751  0.4715
11513TIP3    H156030   0.662   6.210   5.408 -1.3774 -0.0884  1.5703
11513TIP3    H256031   0.542   6.119   5.401 -1.4598  0.1741 -0.6998
11514TIP3   OH256032   2.444   1.997   0.736 -0.2454 -0.3386  0.6949
11514TIP3    H156033   2.483   1.965   0.654 -1.6156 -0.9208  0.2679
11514TIP3    H256034   2.390   2.071   0.709  0.3680  0.3315  1.2646
11515TIP3   OH256035   0.330   0.873  13.865  0.6850 -0.0857  0.3752
11515TIP3    H156036   0.392   0.945  13.878  0.0904  0.2112  1.7396
11515TIP3    H256037   0.384   0.795  13.856  1.3010  0.3616  0.1598
11516TIP3   OH256038   1.228   4.310  14.793 -0.4997 -0.1441 -0.2205
11516TIP3    H156039   1.271   4.382  14.746 -2.0389  0.4251 -0.8002
11516TIP3    H256040   1.137   4.316  14.766 -0.6965 -2.1762 -0.0781
11517TIP3   OH256041   0.057   5.414   5.873 -0.3598 -0.2500 -0.4791
11517TIP3    H156042   0.125   5.356   5.839 -0.5679  0.3330 -1.9086
11517TIP3    H256043   0.079   5.500   5.837 -2.1712 -0.1657 -1.4102
11518TIP3   OH256044   3.041   6.703  15.351 -0.0348 -0.1128 -0.5374
11518TIP3    H156045   3.133   6.677  15.355  0.5843  2.0304 -0.3514
11518TIP3    H256046   3.017   6.720  15.442 -0.5117 -0.3632 -0.6196
11519TIP3   OH256047   5.450   6.370   2.767 -0.2067 -0.0785  0.5704
11519TIP3    H156048   5.480   6.408   2.850  0.9426  0.5371 -0.1166
11519TIP3    H256049   5.529   6.358   2.716 -0.4878 -3.8095  0.8793
11520TIP3   OH256050   3.646   3.852   2.744 -0.1880  0.5909  0.4720
11520TIP3    H156051   3.660   3.939   2.780 -0.3815  1.3243 -1.1836
11520TIP3    H256052   3.706   3.795   2.793 -0.6106  1.4970  2.0879
11521TIP3   OH256053   0.793   1.534  17.152 -0.1854  0.0491  0.5842
11521TIP3    H156054   0.831   1.566  17.071 -0.8477  0.2922  0.3607
11521TIP3    H256055   0.709   1.580  17.158 -0.9592 -1.3381  0.4871
11522TIP3   OH256056   4.162   4.535   2.701  0.2923  0.0714 -0.2244
11522TIP3    H156057   4.201   4.605   2.753  1.0054 -0.9084  0.5889
11522TIP3    H256058   4.207   4.456   2.730 -0.9709 -0.8198 -0.6512
11523TIP3   OH256059   0.085   5.796  16.325 -0.0322  0.3557 -0.3922
11523TIP3    H156060   0.030   5.869  16.296 -1.0906 -0.3451 -0.1898
11523TIP3    H256061   0.024   5.722  16.333  1.0248 -0.5530 -0.6108
11524TIP3   OH256062   6.208   0.327  15.058  0.3849  0.0691  0.0859
11524TIP3    H156063   6.116   0.338  15.084 -0.2787 -1.7162 -1.4325
11524TIP3    H256064   6.258   0.367  15.130 -1.5476  0.4319  1.2699
11525TIP3   OH256065   1.597   3.387  14.239 -0.5852 -0.3199  0.4053
11525TIP3    H156066   1.664   3.329  14.276  0.0054  0.1270  0.0379
11525TIP3    H256067   1.571   3.345  14.158  0.5191  0.3824 -0.3407
11526TIP3   OH256068   1.989   0.139  15.304  0.4920  0.3198  0.2813
11526TIP3    H156069   1.977   0.070  15.239  1.9389  0.3297 -0.0308
11526TIP3    H256070   2.059   0.106  15.361 -1.3467 -0.0696  2.3773
11527TIP3   OH256071   1.500   3.152   3.253  0.0029 -0.3292 -0.5514
11527TIP3    H156072   1.468   3.063   3.267 -0.2496 -0.0420  0.7311
11527TIP3    H256073   1.502   3.191   3.340  0.9962  0.6245 -0.9951
11528TIP3   OH256074   1.171   2.809  14.137  0.0250  0.5454  0.5010
11528TIP3    H156075   1.244   2.748  14.147 -0.9069 -0.7735 -0.6300
11528TIP3    H256076   1.155   2.841  14.226  0.1000 -1.3513  1.2238
11529TIP3   OH256077   4.696   6.411   3.992  0.3591 -0.2794 -0.2696
11529TIP3    H156078   4.616   6.444   3.950  0.4690 -0.4731 -0.6401
11529TIP3    H256079   4.666   6.374   4.075  0.1240  0.0355 -0.2125
11530TIP3   OH256080   1.329   3.064  14.059  0.1833  0.8159  0.3618
11530TIP3    H156081   1.234   3.050  14.062  0.1490  0.7974 -0.6310
11530TIP3    H256082   1.359   3.005  13.991  0.7263  1.8087 -0.2728
11531TIP3   OH256083   3.546   6.381  10.983  0.5006  0.6651  0.4140
11531TIP3    H156084   3.470   6.366  10.927  1.4122 -1.2563 -0.3598
11531TIP3    H256085   3.621   6.369  10.925  1.4175  1.0376  1.5147
11532TIP3   OH256086   3.880   5.759   1.414  0.1596  0.6802 -1.2200
11532TIP3    H156087   3.925   5.697   1.357 -0.5666 -0.3377 -0.6809
11532TIP3    H256088   3.790   5.728   1.419  0.7186 -0.5559  2.3036
11533TIP3   OH256089   6.359   6.512   3.514  0.0978  0.0320 -0.2704
11533TIP3    H156090   6.407   6.438   3.552  1.1547  1.6403  1.6041
11533TIP3    H256091   6.311   6.550   3.588  1.5642  2.7478 -0.6609
11534TIP3   OH256092   1.918   3.452  15.225  0.0907 -0.8249  0.0589
11534TIP3    H156093   1.957   3.488  15.305  0.0086 -1.3144  0.3208
11534TIP3    H256094   1.854   3.517  15.198 -1.2214 -1.4986  1.4343
11535TIP3   OH256095   3.986   0.756   0.564 -0.0174 -0.0909 -0.2244
11535TIP3    H156096   3.944   0.799   0.638  1.1706 -0.8274  0.8878
11535TIP3    H256097   3.944   0.795   0.487 -1.6537  0.2821  0.8340
11536TIP3   OH256098   4.125   0.286  10.538  0.5986  0.2588  1.2118
11536TIP3    H156099   4.187   0.332  10.595  1.5262  2.0202 -1.1351
11536TIP3    H256100   4.181   0.242  10.473 -0.5046 -0.0992  0.4969
11537TIP3   OH256101   4.288   4.604  15.692  0.1700 -0.1147 -0.2052
11537TIP3    H156102   4.279   4.678  15.753  1.9250  2.0618 -2.4686
11537TIP3    H256103   4.382   4.592  15.684 -0.1040 -2.2827 -0.3076
11538TIP3   OH256104   2.477   4.723   0.776  0.3987  0.0229  0.4599
11538TIP3    H156105   2.564   4.737   0.813 -0.5394  0.9777  2.3669
11538TIP3    H256106   2.429   4.674   0.843 -0.2162 -1.4457 -1.0231
11539TIP3   OH256107   6.195   4.173   1.878  0.4586  0.1214  0.0660
11539TIP3    H156108   6.168   4.265   1.872  1.2444  0.4098  0.7781
11539TIP3    H256109   6.215   4.148   1.788  0.9080  0.8663 -0.0472
11540TIP3   OH256110   6.497   5.035  11.288  0.0895 -0.6483  0.0882
11540TIP3    H156111   6.584   5.074  11.296  0.1998 -0.9579  0.3861
11540TIP3    H256112   6.445   5.079  11.355  0.4796 -1.7538  1.1161
11541TIP3   OH256113   3.852   5.332  16.844  0.5613 -0.0168 -0.4583
11541TIP3    H156114   3.933   5.304  16.888  0.6047 -0.1103 -0.5938
11541TIP3    H256115   3.875   5.416  16.805  0.4259  0.2201 -0.0323
11542TIP3   OH256116   2.103   2.794   4.173  0.0908  0.6461  0.6235
11542TIP3    H156117   2.042   2.757   4.237 -1.6205 -0.4780 -1.5966
11542TIP3    H256118   2.183   2.743   4.184 -0.5470 -0.2576  1.1340
11543TIP3   OH256119   1.910   6.179   5.170  0.0911  0.5280  0.4343
11543TIP3    H156120   1.869   6.145   5.250  2.0111  1.6778  1.9498
11543TIP3    H256121   1.840   6.229   5.127 -1.2582 -0.9560  0.8376
11544TIP3   OH256122   0.179   0.106   1.933  0.0834  0.3989 -0.2110
11544TIP3    H156123   0.192   0.198   1.912  1.9351  0.2751  0.3333
11544TIP3    H256124   0.137   0.107   2.019 -1.6186  0.7574 -1.0278
11545TIP3   OH256125   0.282   1.938   2.043  0.0220 -0.5250  0.2785
11545TIP3    H156126   0.288   1.863   1.984  0.5694 -0.4102  0.1867
11545TIP3    H256127   0.219   1.997   2.002 -0.5815 -1.0414  0.4657
11546TIP3   OH256128   0.088   0.000   0.791  0.3428  0.5882  0.1198
11546TIP3    H156129   0.101   0.014   0.697  3.2716  0.0282  0.3811
11546TIP3    H256130   0.084   0.088   0.828  0.8638  0.8133 -0.3498
11547TIP3   OH256131   1.666   1.170   2.702 -0.2677 -0.2063 -0.4503
11547TIP3    H156132   1.629   1.202   2.784  2.1002 -0.6136  0.8053
11547TIP3    H256133   1.635   1.233   2.636  0.0939  1.7264  1.1776
11548TIP3   OH256134   2.074   5.079  17.198  0.7663  0.2207 -0.2802
11548TIP3    H156135   1.988   5.116  17.177  0.3488 -1.3344 -1.3850
11548TIP3    H256136   2.132   5.155  17.206 -0.3267  1.1693 -1.3508
11549TIP3   OH256137   5.228   6.369   0.859  0.1371 -0.3077 -0.3964
11549TIP3    H156138   5.295   6.304   0.879 -0.2512 -0.5300  0.2137
11549TIP3    H256139   5.263   6.418   0.784  0.5529 -1.0408 -0.6916
11550TIP3   OH256140   0.023   2.406   1.348 -0.8047 -0.2631 -0.1838
11550TIP3    H156141   0.071   2.333   1.387  0.1712  0.7159  0.4953
11550TIP3    H256142  -0.064   2.371   1.330 -0.2188 -1.7136 -0.2646
11551TIP3   OH256143   5.758   1.745  12.807 -0.2967  0.2532  0.0446
11551TIP3    H156144   5.732   1.789  12.888  1.6573 -0.1455  0.8976
11551TIP3    H256145   5.794   1.661  12.835 -0.3688 -0.2429 -1.2985
11552TIP3   OH256146   3.530   2.794   4.816 -0.2700 -0.0015 -0.1743
11552TIP3    H156147   3.568   2.816   4.901 -1.6053  1.8083  0.0035
11552TIP3    H256148   3.473   2.719   4.833 -1.0517  0.7782  0.6832
11553TIP3   OH256149   3.119   5.582   1.240 -0.2500  0.2256 -0.0578
11553TIP3    H156150   3.103   5.584   1.334 -2.0384  0.5024 -0.3533
11553TIP3    H256151   3.187   5.648   1.226 -0.0290  0.2360  1.0196
11554TIP3   OH256152   5.916   6.671   0.186 -0.0193  0.2311 -0.2946
11554TIP3    H156153   5.946   6.681   0.276 -1.2695 -0.2067  0.1847
11554TIP3    H256154   5.905   6.576   0.175  0.7772  0.2351 -1.1203
11555TIP3   OH256155   3.347   5.738   1.660 -0.3224 -0.4236 -0.1877
11555TIP3    H156156   3.298   5.678   1.717  0.2260 -3.1682 -2.5201
11555TIP3    H256157   3.438   5.712   1.671 -0.1756 -0.7291 -1.9775
11556TIP3   OH256158   3.646   6.435  16.418 -0.3633  0.1793 -0.0931
11556TIP3    H156159   3.681   6.441  16.507  2.0428 -0.6957 -0.9656
11556TIP3    H256160   3.592   6.514  16.409  0.9516  1.2941  1.4571
11557TIP3   OH256161   0.998   6.551   6.182  0.6845 -0.4838  0.1490
11557TIP3    H156162   0.948   6.540   6.263  0.4699  0.2335  0.1170
11557TIP3    H256163   0.987   6.468   6.135 -0.3862 -0.3740  0.1951
11558TIP3   OH256164   5.115   0.016  13.237 -0.0003  0.1796 -0.3995
11558TIP3    H156165   5.076  -0.039  13.305  1.1112 -0.3399 -0.1803
11558TIP3    H256166   5.134   0.099  13.280 -0.5974  0.3341 -0.4319
11559TIP3   OH256167   0.747   5.259  11.665  0.5147  0.1919  0.5461
11559TIP3    H156168   0.789   5.289  11.745 -0.5539 -1.0027  1.5649
11559TIP3    H256169   0.767   5.165  11.661 -0.4496  0.0053  0.0434
11560TIP3   OH256170   1.115   4.130   1.624  0.3791  0.2330  0.3352
11560TIP3    H156171   1.159   4.151   1.541  1.4950 -0.9677  0.5992
11560TIP3    H256172   1.089   4.038   1.613 -1.9700  0.8960  0.2351
11561TIP3   OH256173   4.715   0.731   0.092  0.6694 -0.0864 -0.3463
11561TIP3    H156174   4.641   0.792   0.088  2.8043  2.5649 -0.5667
11561TIP3    H256175   4.688   0.666   0.157 -1.2902  1.6083  0.6004
11562TIP3   OH256176   4.764   3.509   1.824  0.0411 -0.7218  0.0392
11562TIP3    H156177   4.757   3.415   1.843  1.6586 -0.9696 -0.5063
11562TIP3    H256178   4.757   3.515   1.729  1.4419 -0.4604 -0.0606
11563TIP3   OH256179   6.254   4.582   1.658  0.0301  0.1746  0.2307
11563TIP3    H156180   6.330   4.548   1.610 -0.8094 -0.3827 -0.7277
11563TIP3    H256181   6.291   4.629   1.732  1.2504 -2.8485  1.6299
11564TIP3   OH256182   6.608   3.376  14.791 -0.2038 -0.7689  0.1161
11564TIP3    H156183   6.539   3.438  14.817 -0.2952 -0.4557 -0.8628
11564TIP3    H256184   6.579   3.292  14.826 -0.9640 -0.5945 -0.0833
11565TIP3   OH256185   5.834   1.718  11.496 -0.6942  0.3082 -0.4066
11565TIP3    H156186   5.889   1.725  11.574  0.1268  0.5103 -1.0014
11565TIP3    H256187   5.744   1.730  11.529 -0.1153  3.9794  0.0370
11566TIP3   OH256188   3.836   3.239   0.346  0.7859 -0.1018 -0.1845
11566TIP3    H156189   3.928   3.224   0.323  0.7982  1.1227 -1.0105
11566TIP3    H256190   3.818   3.328   0.316 -0.6774 -0.3327 -0.0443
11567TIP3   OH256191   4.523   2.998   4.875  0.2221 -0.3886  0.3522
11567TIP3    H156192   4.462   2.991   4.802  1.1579  0.7102 -0.5691
11567TIP3    H256193   4.469   3.026   4.949 -0.5644 -0.4841 -0.1813
11568TIP3   OH256194   6.330   2.027   2.822 -0.0416 -0.0565 -0.1612
11568TIP3    H156195   6.406   2.016   2.879 -0.3773 -2.0837 -0.0590
11568TIP3    H256196   6.266   1.963   2.855 -1.5088  1.0676 -0.7315
11569TIP3   OH256197   3.263   6.044  10.774  0.1788  0.1994 -0.3136
11569TIP3    H156198   3.348   6.001  10.778 -0.2764 -0.7969 -1.0776
11569TIP3    H256199   3.228   6.020  10.687 -1.0356  0.2845  0.1380
11570TIP3   OH256200   1.801   2.330   0.422  0.1573 -0.0241  0.8394
11570TIP3    H156201   1.869   2.330   0.489 -0.4511 -0.0536  1.4655
11570TIP3    H256202   1.763   2.418   0.425  1.4372  0.6100 -0.8271
11571TIP3   OH256203   4.888   0.027   3.743  0.0076  0.2092  0.0043
11571TIP3    H156204   4.796   0.031   3.769 -0.4154 -1.8442 -1.0380
11571TIP3    H256205   4.897  -0.059   3.702  2.5304  0.1571  0.5835
11572TIP3   OH256206   6.148   0.692  13.251 -0.5896 -0.2129  0.6523
11572TIP3    H156207   6.142   0.701  13.346  0.0273  1.0810  0.5678
11572TIP3    H256208   6.115   0.603  13.234  1.8665 -1.5062  2.3239
11573TIP3   OH256209   2.667   1.672   2.944 -0.2850 -0.8719  0.1473
11573TIP3    H156210   2.692   1.719   2.865 -2.4495  0.6734  0.3392
11573TIP3    H256211   2.733   1.698   3.009 -0.0389 -0.0504 -0.4286
11574TIP3   OH256212   6.051   3.004   0.957  0.0852  0.3821  0.8325
11574TIP3    H156213   6.046   2.957   1.040  2.5559 -0.6588  0.4204
11574TIP3    H256214   5.999   3.083   0.971 -1.7748 -1.0851  2.4638
11575TIP3   OH256215   1.897   0.682  13.827 -0.0548  0.1011 -0.3412
11575TIP3    H156216   1.926   0.591  13.817  0.3678  0.4344 -2.3544
11575TIP3    H256217   1.810   0.684  13.788  0.0830  0.6304 -0.6269
11576TIP3   OH256218   3.570   3.701  11.611  0.3002 -0.1759  0.7912
11576TIP3    H156219   3.503   3.639  11.584  1.2537 -0.7655 -0.2362
11576TIP3    H256220   3.602   3.668  11.695  1.0241 -1.2717  0.0996
11577TIP3   OH256221   2.057   5.450  16.379  0.7716 -0.0640 -0.3489
11577TIP3    H156222   2.046   5.536  16.420  0.6910  0.2594 -1.0385
11577TIP3    H256223   2.109   5.466  16.301  0.3637 -0.5643 -0.7367
11578TIP3   OH256224   1.103   5.265   2.031 -0.0412  0.1582 -0.2980
11578TIP3    H156225   1.058   5.260   1.946 -1.9161  0.8081  0.6317
11578TIP3    H256226   1.149   5.349   2.027  1.2605 -0.5862 -1.3236
11579TIP3   OH256227   4.482   1.482  14.748  0.1184 -0.2792  0.5865
11579TIP3    H156228   4.545   1.528  14.693 -0.8729  0.9915  0.4744
11579TIP3    H256229   4.527   1.470  14.832  0.3576  1.0569  0.6709
11580TIP3   OH256230   2.267   4.406  11.263 -0.6044  0.0907 -0.2246
11580TIP3    H156231   2.184   4.360  11.279 -0.0676  0.3883  3.7134
11580TIP3    H256232   2.332   4.355  11.311  1.3757  0.5481 -2.3020
11581TIP3   OH256233   0.808   4.158   1.025  0.0548  0.0948  0.0916
11581TIP3    H156234   0.727   4.152   0.975  0.5914 -1.1411 -0.6511
11581TIP3    H256235   0.805   4.245   1.066 -1.8078 -0.1039  0.3849
11582TIP3   OH256236   5.656   1.236   5.804  0.9153  0.1261  0.5035
11582TIP3    H156237   5.581   1.192   5.763  0.2792  1.8329 -0.2210
11582TIP3    H256238   5.623   1.267   5.888  0.1021  2.8259 -0.7528
11583TIP3   OH256239   2.307   1.751   1.224  0.1275 -0.0975  0.3269
11583TIP3    H156240   2.273   1.700   1.298  1.0421 -1.5164 -0.2357
11583TIP3    H256241   2.296   1.694   1.148  1.1495  0.5434 -0.3055
11584TIP3   OH256242   6.080   0.502   4.918  0.1907 -1.3377 -0.2924
11584TIP3    H156243   6.006   0.487   4.859 -0.1195  0.3302 -0.3630
11584TIP3    H256244   6.056   0.457   4.998 -0.5736 -1.4253 -0.5636
11585TIP3   OH256245   3.223   5.569  16.808 -0.2696  0.0504 -0.0349
11585TIP3    H156246   3.292   5.529  16.754 -1.1517  0.4658 -1.5114
11585TIP3    H256247   3.142   5.543  16.765 -0.9972  0.2634  1.2150
11586TIP3   OH256248   4.200   1.307   1.902 -0.1974  0.2211  0.0644
11586TIP3    H156249   4.218   1.330   1.810  2.1185  0.9034  0.6634
11586TIP3    H256250   4.124   1.250   1.897 -0.0742  0.1965 -2.3046
11587TIP3   OH256251   2.622   2.692  13.037 -0.0059  0.7026 -0.1124
11587TIP3    H156252   2.711   2.708  13.007 -0.1115 -1.7263 -1.9536
11587TIP3    H256253   2.594   2.616  12.986 -3.6021  2.2335 -0.5753
11588TIP3   OH256254   0.558   3.434   5.840 -0.0319 -0.1441  0.0635
11588TIP3    H156255   0.594   3.397   5.921  0.6742  0.6460  0.1219
11588TIP3    H256256   0.616   3.402   5.771  0.3330  0.4864  0.0664
11589TIP3   OH256257   2.512   1.447   0.149 -0.5143  0.5357  0.3245
11589TIP3    H156258   2.606   1.432   0.153 -0.7878 -1.0911  0.9999
11589TIP3    H256259   2.503   1.531   0.104  1.3225  1.6416  1.9484
11590TIP3   OH256260   5.176   1.090   3.455  0.2174 -0.3855 -0.2121
11590TIP3    H156261   5.200   1.178   3.427 -1.2091  1.0174  2.6958
11590TIP3    H256262   5.246   1.063   3.515 -0.3841 -0.3621  0.5127
11591TIP3   OH256263   1.888   4.695  16.922 -0.0193 -0.4741  0.1063
11591TIP3    H156264   1.857   4.686  16.831  1.0087  0.0484 -0.2980
11591TIP3    H256265   1.901   4.788  16.934 -0.0839 -0.5524  0.7753
11592TIP3   OH256266   2.370   3.765  16.696  0.5531 -0.0313  0.0411
11592TIP3    H156267   2.436   3.730  16.636  0.5257  0.8245 -0.4993
11592TIP3    H256268   2.353   3.853  16.664 -0.6323 -0.1368  0.3629
11593TIP3   OH256269   5.691   5.425   0.683 -0.0817  0.2744 -0.0666
11593TIP3    H156270   5.602   5.457   0.675  0.2844  1.2045 -0.4688
11593TIP3    H256271   5.703   5.367   0.608 -0.2086  0.4829 -0.2476
11594TIP3   OH256272   0.174   0.385   5.552  0.1611 -0.1276 -0.2635
11594TIP3    H156273   0.170   0.289   5.550  1.0681 -0.1670  0.0934
11594TIP3    H256274   0.165   0.408   5.644  1.0819  0.0884 -0.2291
11595TIP3   OH256275   5.435   3.426  17.236 -0.1809 -0.7707 -0.5631
11595TIP3    H156276   5.454   3.469  17.152  0.3616 -0.8132 -0.4672
11595TIP3    H256277   5.498   3.354  17.240  0.5467 -0.0994  0.3856
11596TIP3   OH256278   5.363   0.171   0.873  0.3692  0.1526 -0.2488
11596TIP3    H156279   5.360   0.087   0.828 -1.0080 -0.6188  1.2214
11596TIP3    H256280   5.443   0.167   0.926 -0.4749 -0.8651  0.9754
11597TIP3   OH256281   3.820   0.017  14.068  0.4386  0.2586 -0.0583
11597TIP3    H156282   3.877  -0.045  14.114  1.0176  0.6892 -0.1956
11597TIP3    H256283   3.839   0.003  13.975 -0.1688 -0.0659 -0.1421
11598TIP3   OH256284   4.268   2.319  16.104  0.2628  0.4260  0.6245
11598TIP3    H156285   4.320   2.249  16.064  0.3649 -0.1854  1.8220
11598TIP3    H256286   4.305   2.400  16.068  0.7451 -0.0900 -0.0518
11599TIP3   OH256287   4.698   0.192  14.578  0.0882  0.0771  0.4873
11599TIP3    H156288   4.623   0.172  14.635 -1.0544 -0.5917 -1.2061
11599TIP3    H256289   4.672   0.159  14.492  2.1582  0.2576 -0.2337
11600TIP3   OH256290   1.230   1.994   1.567  0.1272  0.1313 -0.2482
11600TIP3    H156291   1.223   1.954   1.481  0.0763 -1.1435  0.3450
11600TIP3    H256292   1.321   1.979   1.593 -0.5899 -1.9818  1.1230
11601TIP3   OH256293   5.300   2.159  15.199  0.4377  0.0554 -0.4867
11601TIP3    H156294   5.244   2.081  15.202  3.1365 -1.9323  2.1827
11601TIP3    H256295   5.263   2.218  15.265  2.0838 -1.7535  2.1356
11602TIP3   OH256296   4.791   6.255   1.030 -0.4491 -0.2172  0.2576
11602TIP3    H156297   4.780   6.347   1.054  1.1001 -0.5652  2.5479
11602TIP3    H256298   4.722   6.237   0.967 -2.3965  1.8239  1.7550
11603TIP3   OH256299   6.270   3.175  15.860  0.1668 -0.0034  0.4506
11603TIP3    H156300   6.261   3.089  15.900 -0.6295 -0.4370 -0.6474
11603TIP3    H256301   6.361   3.201  15.878  0.2900 -0.9017  1.1142
11604TIP3   OH256302   2.735   2.749   0.375  0.6593 -0.0872 -0.3191
11604TIP3    H156303   2.700   2.836   0.359  1.4464  0.7529  2.2385
11604TIP3    H256304   2.823   2.750   0.338  0.1154 -0.3280 -1.6522
11605TIP3   OH256305   4.838   5.192   2.071  0.2783  0.3657 -0.3330
11605TIP3    H156306   4.791   5.234   2.143  0.6239  0.1891 -0.0036
11605TIP3    H256307   4.918   5.244   2.062  0.2875  0.3182 -0.5177
11606TIP3   OH256308   1.280   0.433  16.378  0.3082 -0.0416  0.2961
11606TIP3    H156309   1.349   0.370  16.398  0.7259  0.5778  0.8103
11606TIP3    H256310   1.241   0.454  16.462 -0.0052  0.1889  0.0946
11607TIP3   OH256311   5.939   1.204   6.724 -0.3349 -0.0770  0.2594
11607TIP3    H156312   5.858   1.153   6.720 -0.9604  1.0102 -1.4867
11607TIP3    H256313   6.003   1.149   6.679 -0.9081  0.4837 -1.2657
11608TIP3   OH256314   6.536   0.587   3.943 -0.8594 -0.0097 -0.4043
11608TIP3    H156315   6.515   0.499   3.974 -0.4958  1.0054  2.9770
11608TIP3    H256316   6.452   0.628   3.926 -1.2768  0.3641  2.2733
11609TIP3   OH256317   2.483   3.515  12.109  1.0724 -0.2115  0.1891
11609TIP3    H156318   2.439   3.527  12.024 -0.5981  0.6782  1.1439
11609TIP3    H256319   2.538   3.439  12.096  0.2356 -0.5794 -1.4786
11610TIP3   OH256320   4.058   2.393   4.994  0.2791 -0.5384  0.2539
11610TIP3    H156321   4.053   2.411   4.900  0.7246  2.4256  0.7557
11610TIP3    H256322   3.968   2.400   5.025 -0.0306 -2.6279 -0.1140
11611TIP3   OH256323   5.304   2.163  15.495 -0.6975  0.1287  0.1851
11611TIP3    H156324   5.243   2.097  15.529  0.2137 -1.3993 -1.0571
11611TIP3    H256325   5.388   2.117  15.491 -0.1079  1.2923 -0.9565
11612TIP3   OH256326   1.931   6.561   0.941 -0.2219  0.0409  0.0594
11612TIP3    H156327   1.938   6.477   0.895 -0.1603  0.1171 -0.0696
11612TIP3    H256328   1.837   6.569   0.961 -0.0279 -0.7776  1.4141
11613TIP3   OH256329   4.390   3.229  14.451  0.1919  0.0553 -0.2142
11613TIP3    H156330   4.472   3.225  14.401  1.8641 -1.5048  2.5216
11613TIP3    H256331   4.352   3.142  14.443  0.5964 -0.2832  1.3899
11614TIP3   OH256332   4.792   0.583  16.410 -0.0397  0.3727 -0.1514
11614TIP3    H156333   4.848   0.627  16.474  0.8876  0.2418 -0.8546
11614TIP3    H256334   4.841   0.589  16.328 -1.1256  0.3711 -0.8077
11615TIP3   OH256335   1.014   1.530   0.691 -0.4922 -0.4308  0.3831
11615TIP3    H156336   1.042   1.621   0.686  1.0254 -0.9154 -0.1010
11615TIP3    H256337   0.950   1.520   0.620  0.6990 -0.2131 -0.7348
11616TIP3   OH256338   1.541   6.091   5.432  0.0054 -0.2532 -0.1324
11616TIP3    H156339   1.491   6.009   5.436 -1.6085  0.8079  1.9679
11616TIP3    H256340   1.535   6.118   5.340 -2.7318 -0.4958 -0.0631
11617TIP3   OH256341   6.022   6.142  12.455 -0.4802 -0.1949  0.2809
11617TIP3    H156342   6.070   6.167  12.376 -0.7004  0.8712  0.4720
11617TIP3    H256343   5.947   6.202  12.458 -0.9829 -0.8352  0.8015
11618TIP3   OH256344   0.887   1.937   0.279 -0.1165 -0.1973  0.2689
11618TIP3    H156345   0.845   1.930   0.194 -1.2558 -1.0920  0.9026
11618TIP3    H256346   0.957   1.872   0.278 -1.3574 -1.5662  0.7150
11619TIP3   OH256347   0.382   2.643  15.922 -0.0118  0.3258 -0.5817
11619TIP3    H156348   0.324   2.717  15.940  0.7358  1.4839 -2.7944
11619TIP3    H256349   0.444   2.643  15.996 -0.9690  0.9425  0.2300
11620TIP3   OH256350   4.382   3.979  15.134 -0.5767 -0.0920 -0.1528
11620TIP3    H156351   4.336   4.043  15.189  1.9098  1.0631  0.6320
11620TIP3    H256352   4.384   3.900  15.187 -0.8911  0.1081  0.1604
11621TIP3   OH256353   3.413   6.530   6.115  0.8830  0.4521  0.2677
11621TIP3    H156354   3.508   6.521   6.125  1.0881  0.9671 -1.0663
11621TIP3    H256355   3.384   6.442   6.089  0.8404  0.0388  1.6494
11622TIP3   OH256356   5.249   6.713   1.886 -0.1368  0.2124 -0.4601
11622TIP3    H156357   5.208   6.646   1.941  0.2575 -0.2575 -0.7313
11622TIP3    H256358   5.339   6.683   1.874  0.3377  1.3245  0.2633
11623TIP3   OH256359   5.101   3.792  13.255 -0.6129 -0.6658 -0.2660
11623TIP3    H156360   5.157   3.834  13.190 -1.5931  0.3432 -0.4622
11623TIP3    H256361   5.111   3.698  13.238  0.9440 -0.4964 -0.3556
11624TIP3   OH256362   2.366   2.648  17.000  0.3785 -0.1067 -0.0289
11624TIP3    H156363   2.272   2.663  16.993  0.5861  0.5064 -1.5843
11624TIP3    H256364   2.377   2.602  17.084 -0.9256  2.9273  1.8778
11625TIP3   OH256365   1.115   5.860  16.617  0.4185  0.2023 -0.5733
11625TIP3    H156366   1.045   5.820  16.565 -0.0505 -1.3792  1.2278
11625TIP3    H256367   1.070   5.927  16.668  0.0628 -1.3462  1.1697
11626TIP3   OH256368   3.912   0.200   5.410 -0.2146  0.1877  0.0434
11626TIP3    H156369   3.992   0.150   5.393  0.4221  1.8625 -2.1407
11626TIP3    H256370   3.859   0.187   5.331 -0.2769  2.4566 -0.3130
11627TIP3   OH256371   0.365   3.447   3.230  0.1592 -0.0285  0.3357
11627TIP3    H156372   0.382   3.479   3.141 -2.1570  2.4283  0.6894
11627TIP3    H256373   0.429   3.493   3.284 -1.8331  2.6430  0.5616
11628TIP3   OH256374   3.355   5.403   1.376  1.2366 -0.3587 -0.4446
11628TIP3    H156375   3.273   5.429   1.419  1.8776 -0.9830  1.2220
11628TIP3    H256376   3.366   5.465   1.305 -0.1867  0.3396 -0.0766
11629TIP3   OH256377   0.363   6.333  14.321 -0.0513 -0.0861  0.5507
11629TIP3    H156378   0.380   6.251  14.369 -3.2754 -0.8344  0.5208
11629TIP3    H256379   0.377   6.401  14.387 -1.0446 -0.9027  1.6391
11630TIP3   OH256380   5.415   1.544  14.661  0.1926 -0.3821 -0.0627
11630TIP3    H156381   5.431   1.633  14.693  2.4474 -0.0487 -1.9381
11630TIP3    H256382   5.340   1.513  14.711 -0.3973  2.4462  0.8864
11631TIP3   OH256383   1.368   4.856   2.635 -0.3808 -0.4376  0.2037
11631TIP3    H156384   1.295   4.798   2.611 -0.5005 -0.2574  0.1343
11631TIP3    H256385   1.384   4.837   2.727  0.3879 -1.4724 -0.1353
11632TIP3   OH256386   1.725   2.583   2.874  0.2791 -0.2464  0.3375
11632TIP3    H156387   1.759   2.637   2.802 -0.5087  0.3979  0.4434
11632TIP3    H256388   1.658   2.528   2.833  0.1414 -0.1908  0.4848
11633TIP3   OH256389   5.961   6.272   2.175  0.3410  0.0984  0.1804
11633TIP3    H156390   5.902   6.347   2.183 -0.5242 -0.7215  1.9330
11633TIP3    H256391   6.044   6.302   2.213  1.4568  1.6214 -3.3320
11634TIP3   OH256392   3.137   5.802  14.330 -0.4418  0.7484 -0.3286
11634TIP3    H156393   3.066   5.824  14.390 -0.2187 -0.8769  0.5668
11634TIP3    H256394   3.204   5.869  14.347 -0.6797  0.7242  0.7284
11635TIP3   OH256395   2.514   4.872   5.579 -0.3362 -0.2795  0.0080
11635TIP3    H156396   2.465   4.900   5.656 -1.3703 -0.7530 -0.4634
11635TIP3    H256397   2.583   4.815   5.614 -0.5094 -0.1206  0.6170
11636TIP3   OH256398   6.219   2.815   2.156  0.4834 -0.5017  0.0966
11636TIP3    H156399   6.127   2.808   2.182  0.1945  0.8456 -0.5082
11636TIP3    H256400   6.241   2.730   2.118 -0.6226 -0.6889 -0.1165
11637TIP3   OH256401   5.564   6.602  14.591  0.8597  0.0452 -0.3402
11637TIP3    H156402   5.489   6.556  14.553  0.4457 -1.0687  1.7241
11637TIP3    H256403   5.630   6.601  14.522 -0.0908 -1.2815 -1.2655
11638TIP3   OH256404   4.505   5.341   1.471  0.0888 -0.5373  0.3298
11638TIP3    H156405   4.568   5.392   1.523 -0.2545  1.3300 -1.0159
11638TIP3    H256406   4.542   5.342   1.383 -1.1563 -0.5592 -0.2003
11639TIP3   OH256407   0.563   6.262   1.169 -0.3009 -0.8961 -0.2558
11639TIP3    H156408   0.575   6.237   1.260 -0.3096 -0.4608 -0.1393
11639TIP3    H256409   0.642   6.231   1.125 -0.0421 -0.5926 -0.0024
11640TIP3   OH256410   2.533   2.715  11.790 -0.2552  0.1204 -0.1654
11640TIP3    H156411   2.599   2.756  11.734 -0.8865  0.7982 -0.4251
11640TIP3    H256412   2.511   2.782  11.854  0.6619 -0.7500  1.0808
11641TIP3   OH256413   5.244   1.119   4.126 -0.2251  0.0573 -0.1129
11641TIP3    H156414   5.246   1.045   4.187 -1.3391 -0.1487 -0.3070
11641TIP3    H256415   5.336   1.135   4.104  0.1162 -0.4512  0.9135
11642TIP3   OH256416   4.868   5.123  15.877 -0.3550 -0.5404 -0.1302
11642TIP3    H156417   4.910   5.148  15.795  1.8043 -0.2124  1.0354
11642TIP3    H256418   4.818   5.200  15.903  0.9939  0.2801  0.1094
11643TIP3   OH256419   0.425   2.312  15.757 -0.1036  0.8420 -0.3119
11643TIP3    H156420   0.337   2.285  15.785  0.3242  0.9371  1.1760
11643TIP3    H256421   0.449   2.250  15.689 -0.7564 -0.0636  0.2660
11644TIP3   OH256422   1.150   6.417  17.142  0.2361  0.1561  0.1268
11644TIP3    H156423   1.168   6.340  17.087  2.2502  1.2964 -0.8810
11644TIP3    H256424   1.062   6.445  17.117 -0.4271 -1.6525  0.3316
11645TIP3   OH256425   5.557   3.871   0.840  0.5101 -0.5346 -0.2329
11645TIP3    H156426   5.502   3.950   0.838  0.0112 -0.8959 -0.6662
11645TIP3    H256427   5.501   3.801   0.807  0.0599 -1.6386  2.7069
11646TIP3   OH256428   5.233   2.870   0.003  0.2957 -0.4169 -0.0967
11646TIP3    H156429   5.255   2.818  -0.074 -2.3793 -2.1602  0.2417
11646TIP3    H256430   5.264   2.819   0.077 -1.2921 -0.9973  0.1833
11647TIP3   OH256431   0.154   5.256  10.488  0.0250 -0.4940 -0.1858
11647TIP3    H156432   0.229   5.295  10.532 -0.1417 -0.4036  0.0172
11647TIP3    H256433   0.094   5.231  10.559 -0.9532  1.0946 -0.4277
11648TIP3   OH256434   1.166   3.484   2.124  0.1440 -0.1624  0.6339
11648TIP3    H156435   1.174   3.473   2.219  1.1890 -1.2262  0.4246
11648TIP3    H256436   1.146   3.397   2.091 -1.7510  0.4735  0.0052
11649TIP3   OH256437   1.929   3.252   6.045 -0.0842  0.0979 -0.1971
11649TIP3    H156438   1.853   3.209   6.083  0.3110 -0.4756 -0.0496
11649TIP3    H256439   1.999   3.238   6.110 -0.0107  1.1614 -0.0342
11650TIP3   OH256440   4.984   0.474   5.640  0.7773  0.7015  0.1480
11650TIP3    H156441   5.050   0.531   5.677  2.7358  0.1186 -2.2802
11650TIP3    H256442   4.981   0.497   5.547 -2.1206  0.3868  0.0941
11651TIP3   OH256443   4.940   1.908   0.851  0.0861  0.3361  0.9053
11651TIP3    H156444   5.006   1.946   0.793 -0.3337  1.3931  1.1199
11651TIP3    H256445   4.932   1.817   0.821  1.0202  0.4302  0.3374
11652TIP3   OH256446   2.993   5.667  15.819 -0.8203  0.0117  0.6826
11652TIP3    H156447   2.961   5.650  15.730 -3.9057  2.2586  1.2647
11652TIP3    H256448   2.968   5.589  15.868  0.2898 -0.9506 -0.2463
11653TIP3   OH256449   3.693   6.269  11.748 -0.8519  0.1969  0.1403
11653TIP3    H156450   3.695   6.238  11.658  0.8927 -0.3265  0.3391
11653TIP3    H256451   3.670   6.362  11.741  1.6346  0.7716 -1.0480
11654TIP3   OH256452   1.011   2.765  11.553  0.3556 -0.3057 -0.3370
11654TIP3    H156453   1.050   2.750  11.467  0.0254 -0.5374 -0.4488
11654TIP3    H256454   0.944   2.832  11.538  2.8356  2.4481  0.4306
11655TIP3   OH256455   3.870   6.702  12.685  0.1780  0.0895 -0.1360
11655TIP3    H156456   3.872   6.780  12.742 -1.2099  0.0302  0.0161
11655TIP3    H256457   3.894   6.735  12.599  0.6785  0.4908  0.1529
11656TIP3   OH256458   5.418   6.381  14.977  0.2016  0.1692 -0.0336
11656TIP3    H156459   5.410   6.466  15.020  2.0587  0.1872  0.2947
11656TIP3    H256460   5.428   6.319  15.049 -0.5183 -0.2632 -0.3012
11657TIP3   OH256461   0.838   2.484   0.770 -1.0371 -0.4875  0.5710
11657TIP3    H156462   0.933   2.498   0.769 -1.1084  0.3099 -3.9118
11657TIP3    H256463   0.801   2.566   0.735 -3.1838 -1.7840 -0.2916
11658TIP3   OH256464   5.324   2.754  16.000 -0.1141 -0.0844 -0.4836
11658TIP3    H156465   5.302   2.746  16.093  0.2315 -1.6368 -0.5192
11658TIP3    H256466   5.297   2.843  15.976 -1.2098 -0.0511  0.8346
11659TIP3   OH256467   6.754   5.477   3.980  0.2466 -0.4180  0.0308
11659TIP3    H156468   6.816   5.504   4.048 -1.3718 -0.5795  1.6096
11659TIP3    H256469   6.699   5.554   3.965  0.5818 -0.3831 -1.1081
11660TIP3   OH256470   5.968   4.565   3.981 -0.7413 -0.2743  0.3617
11660TIP3    H156471   6.053   4.602   3.959 -1.0178  0.9517  1.3378
11660TIP3    H256472   5.989   4.493   4.040 -0.1822 -1.9827 -1.8305
11661TIP3   OH256473   4.961   2.318  13.061  0.2173  0.6411  0.3213
11661TIP3    H156474   4.948   2.411  13.082 -0.8940  0.7419 -0.7755
11661TIP3    H256475   5.044   2.296  13.103  1.0832  2.4302 -0.3802
11662TIP3   OH256476   2.399   0.271   2.103 -0.2664  0.2233 -0.4357
11662TIP3    H156477   2.333   0.203   2.117 -0.1889  0.5198  1.5028
11662TIP3    H256478   2.475   0.223   2.069 -0.3873 -0.5829  0.4234
11663TIP3   OH256479   4.793   3.975  13.189 -0.2412  0.3518  0.2854
11663TIP3    H156480   4.741   3.940  13.261 -1.2340  0.5171 -0.3467
11663TIP3    H256481   4.839   4.050  13.226 -0.0582 -0.1003  0.9761
11664TIP3   OH256482   0.160   5.196   0.305  0.0094 -0.5220  0.3310
11664TIP3    H156483   0.083   5.143   0.284 -0.4045 -0.4559  1.6663
11664TIP3    H256484   0.201   5.213   0.220 -1.1919 -0.9443 -0.3431
11665TIP3   OH256485   6.500   3.985  11.731 -0.2527  0.1178  0.3191
11665TIP3    H156486   6.532   3.957  11.817  3.0210  1.1575 -0.4680
11665TIP3    H256487   6.507   3.907  11.676 -1.0646 -0.1963  0.6573
11666TIP3   OH256488   3.809   1.591  17.132  0.0197 -0.6164  0.0366
11666TIP3    H156489   3.764   1.517  17.174  1.0967 -2.2565 -1.6318
11666TIP3    H256490   3.783   1.667  17.185 -2.0448 -1.9852  1.0926
11667TIP3   OH256491   5.503   2.398  15.114  0.1961  0.2211 -0.2426
11667TIP3    H156492   5.482   2.455  15.040 -0.0756  1.3522  0.6944
11667TIP3    H256493   5.427   2.403  15.171 -0.6834 -2.6264 -1.0515
11668TIP3   OH256494   0.694   4.684  13.541  0.3863 -0.2017 -0.1903
11668TIP3    H156495   0.650   4.752  13.592 -0.8926  0.4559 -2.1369
11668TIP3    H256496   0.757   4.731  13.487  1.1774 -0.8188  0.1855
11669TIP3   OH256497   4.524   0.386  12.178  0.4147  0.6232 -0.0796
11669TIP3    H156498   4.576   0.309  12.157  0.8230  0.9676 -0.3400
11669TIP3    H256499   4.556   0.413  12.264 -1.5164 -1.0077  1.2003
11670TIP3   OH256500   5.691   2.122  16.408  0.1012  0.0463 -0.4225
11670TIP3    H156501   5.734   2.131  16.493 -0.8589 -1.5982  0.2496
11670TIP3    H256502   5.760   2.141  16.345  0.9585  0.7752  0.7009
11671TIP3   OH256503   6.019   6.008  13.564  0.3300 -0.3440  0.0277
11671TIP3    H156504   5.928   6.020  13.591  0.3831  2.4992 -0.8485
11671TIP3    H256505   6.050   5.932  13.613 -1.7389  0.2430  2.3068
11672TIP3   OH256506   1.392   3.657   0.909 -0.7342  0.6992  0.0346
11672TIP3    H156507   1.367   3.750   0.906 -2.3345  0.3892  2.4776
11672TIP3    H256508   1.315   3.612   0.942  0.9217 -1.1561  1.5344
11673TIP3   OH256509   6.124   2.262  12.199 -0.2509  0.4570  0.5266
11673TIP3    H156510   6.040   2.306  12.209 -0.7151  0.2582 -1.9468
11673TIP3    H256511   6.182   2.330  12.163  0.1948  0.1866  0.7412
11674TIP3   OH256512   3.097   5.071  11.789 -0.9581 -0.3810 -0.3163
11674TIP3    H156513   3.120   5.122  11.867 -0.5663 -1.8197  0.5364
11674TIP3    H256514   3.144   5.113  11.718 -0.0336 -0.0224  0.4959
11675TIP3   OH256515   0.240   1.159  11.549  0.4958  0.4704  0.8734
11675TIP3    H156516   0.273   1.232  11.495  0.2794 -0.3478 -0.4003
11675TIP3    H256517   0.167   1.196  11.597 -0.3367  0.8239 -0.6165
11676TIP3   OH256518   5.931   3.829  14.598 -0.6790 -0.1598  0.1326
11676TIP3    H156519   5.965   3.784  14.521 -2.7248  0.1409 -0.9855
11676TIP3    H256520   5.979   3.790  14.672  3.0020  1.2139 -1.4228
11677TIP3   OH256521   6.231   5.317  15.325 -0.2301  0.1487 -0.1131
11677TIP3    H156522   6.161   5.256  15.301  0.0298 -0.0979 -0.2513
11677TIP3    H256523   6.190   5.403  15.322 -0.0595  0.1848 -1.9888
11678TIP3   OH256524   0.310   4.283  12.830  0.2072  0.1443 -0.4533
11678TIP3    H156525   0.326   4.203  12.880  1.4273 -0.0573 -1.1301
11678TIP3    H256526   0.305   4.353  12.896 -0.0275 -0.3750  0.0780
11679TIP3   OH256527   1.245   1.214  16.109  0.9215 -0.2222  0.0422
11679TIP3    H156528   1.312   1.279  16.089  0.8712 -1.1717 -3.6117
11679TIP3    H256529   1.204   1.245  16.189  2.1398  3.2297 -0.6065
11680TIP3   OH256530   2.271   6.593  10.547  0.6835  0.2824  1.0599
11680TIP3    H156531   2.337   6.541  10.593 -0.7869 -1.2950  1.4501
11680TIP3    H256532   2.227   6.531  10.489 -0.1209  1.4010  0.4447
11681TIP3   OH256533   3.731   2.433   1.126 -0.1286 -0.4002  0.0963
11681TIP3    H156534   3.763   2.505   1.071  2.0333 -2.5358 -1.5097
11681TIP3    H256535   3.659   2.395   1.076 -0.7596  0.1022  0.5967
11682TIP3   OH256536   3.937   0.437   5.637  0.4085 -0.0676 -0.3220
11682TIP3    H156537   4.004   0.493   5.675  0.8070 -1.3965  0.9895
11682TIP3    H256538   3.869   0.433   5.704  1.2470 -2.6682  0.4100
11683TIP3   OH256539   0.645   0.514  10.827 -0.4042  0.1517  0.3687
11683TIP3    H156540   0.662   0.538  10.736  1.0588 -1.3901  0.2105
11683TIP3    H256541   0.710   0.445  10.847  0.0713  1.2597  2.9213
11684TIP3   OH256542   1.274   1.002   6.934  0.1117 -0.2734  0.1426
11684TIP3    H156543   1.219   1.016   6.856 -0.9120 -0.6953  0.7845
11684TIP3    H256544   1.330   0.927   6.911  1.8177  1.3619 -1.2480
11685TIP3   OH256545   6.811   1.894  16.702  0.5975 -0.5266  0.1238
11685TIP3    H156546   6.819   1.881  16.797  0.2176 -0.7545  0.1250
11685TIP3    H256547   6.804   1.806  16.667  0.0178 -0.4082 -0.0528
11686TIP3   OH256548   2.829   3.938  16.485 -0.3188 -0.4647  0.1163
11686TIP3    H156549   2.783   3.976  16.410  1.1155 -0.1095 -0.6130
11686TIP3    H256550   2.908   3.899  16.447 -0.2894 -1.5303  1.2646
11687TIP3   OH256551   6.797   4.150  14.938 -0.5098  0.1323 -0.7100
11687TIP3    H156552   6.804   4.243  14.918 -3.2122  0.2411 -1.4148
11687TIP3    H256553   6.816   4.106  14.855 -0.1059  0.0874 -0.5941
11688TIP3   OH256554   0.303   1.794  16.225  0.2154 -0.4189 -0.4664
11688TIP3    H156555   0.217   1.827  16.200  0.4787  0.9058  0.3444
11688TIP3    H256556   0.286   1.705  16.256 -0.4951 -1.0497 -2.6064
11689TIP3   OH256557   2.202   3.887   6.440 -0.4523  0.8126  0.3937
11689TIP3    H156558   2.174   3.833   6.514 -2.3929 -0.8790 -1.4956
11689TIP3    H256559   2.289   3.854   6.417 -1.9578 -2.2519 -1.2990
11690TIP3   OH256560   2.930   3.165   1.644 -0.5580  0.4391  1.0050
11690TIP3    H156561   3.017   3.127   1.632 -0.7791  0.0965  0.4767
11690TIP3    H256562   2.875   3.092   1.672 -1.1980  0.1478 -0.9480
11691TIP3   OH256563   4.067   3.196   4.986 -0.7732  0.3181 -0.0566
11691TIP3    H156564   3.972   3.204   4.985 -0.7389  0.8728  0.5312
11691TIP3    H256565   4.096   3.239   4.906 -0.8481  2.7290  1.1568
11692TIP3   OH256566   4.910   1.045   3.567  0.5014  0.0621 -0.1808
11692TIP3    H156567   4.936   1.087   3.649 -0.1115  0.8366 -0.3768
11692TIP3    H256568   4.990   1.043   3.514  0.5466  0.9415 -0.1505
11693TIP3   OH256569   3.972   5.420  11.674  0.1307 -0.1486 -0.1703
11693TIP3    H156570   3.986   5.514  11.663  0.8699 -0.2776 -0.3328
11693TIP3    H256571   3.886   5.404  11.636 -0.9538  0.8192  1.7785
11694TIP3   OH256572   1.157   6.806   1.900 -0.4151  0.2687  0.1638
11694TIP3    H156573   1.235   6.859   1.881  0.2223 -0.1128  1.6430
11694TIP3    H256574   1.118   6.847   1.976 -2.0436  0.8309 -0.9514
11695TIP3   OH256575   1.165   0.579   0.814  0.3785  1.0207  0.2343
11695TIP3    H156576   1.116   0.590   0.895  1.6208  0.0771  1.1346
11695TIP3    H256577   1.111   0.620   0.747 -1.7938 -0.3151  1.1362
11696TIP3   OH256578   1.263   2.978  11.647 -0.4210 -0.2126  0.0616
11696TIP3    H156579   1.306   2.937  11.573  1.8135  1.6427  0.2534
11696TIP3    H256580   1.282   2.921  11.721  2.1450  0.8095  0.2208
11697TIP3   OH256581   6.203   0.163   5.726 -0.1427 -0.6311  0.1688
11697TIP3    H156582   6.115   0.188   5.755  0.4719  0.9889  0.7278
11697TIP3    H256583   6.237   0.107   5.796 -1.3021 -2.5646 -0.7879
11698TIP3   OH256584   1.488   0.224   2.704 -0.1681 -0.0622 -0.0813
11698TIP3    H156585   1.575   0.222   2.742  0.0167 -2.2726 -0.5559
11698TIP3    H256586   1.439   0.285   2.759  1.3401  0.2860  0.8999
11699TIP3   OH256587   3.523   1.613   1.483 -0.4558 -0.5849  0.2216
11699TIP3    H156588   3.508   1.525   1.449  0.7630 -1.5099  2.0291
11699TIP3    H256589   3.448   1.631   1.540 -0.1233 -0.9022  0.7554
11700TIP3   OH256590   6.615   3.550  16.307  0.3451  0.2984 -0.0279
11700TIP3    H156591   6.578   3.613  16.370 -1.1449 -0.3530 -0.2343
11700TIP3    H256592   6.709   3.561  16.316  0.1413  1.0637  1.4864
11701TIP3   OH256593   5.685   4.699  13.229  0.3726 -0.1363 -0.5142
11701TIP3    H156594   5.614   4.758  13.253  0.5248  0.0714 -0.5721
11701TIP3    H256595   5.692   4.639  13.304  0.6490  0.3266 -0.1660
11702TIP3   OH256596   3.378   1.364  13.800 -0.0127 -0.4816 -0.3230
11702TIP3    H156597   3.327   1.364  13.881 -0.5585  1.3587 -0.6522
11702TIP3    H256598   3.313   1.351  13.730  0.2688 -0.5016 -0.5815
11703TIP3   OH256599   4.635   3.678   4.766 -0.3750 -0.3216 -0.1287
11703TIP3    H156600   4.710   3.721   4.723 -1.7321  1.8447 -0.4228
11703TIP3    H256601   4.612   3.606   4.708 -1.9811  2.3647 -2.9561
11704TIP3   OH256602   2.718   5.008  17.112 -0.7382  0.8894 -0.0445
11704TIP3    H156603   2.718   5.098  17.081 -2.9861  0.4976 -1.3107
11704TIP3    H256604   2.757   5.012  17.200  0.3459  2.8811 -0.6054
11705TIP3   OH256605   5.800   3.130   0.607 -0.0027 -0.3318  0.2693
11705TIP3    H156606   5.807   3.051   0.553 -1.5723  0.1691 -0.6940
11705TIP3    H256607   5.707   3.137   0.628 -0.2077  2.3250 -1.3000
11706TIP3   OH256608   0.862   4.908  16.527  0.1720  0.1315 -0.5964
11706TIP3    H156609   0.910   4.826  16.508 -1.0645 -0.1230 -2.7114
11706TIP3    H256610   0.837   4.899  16.620 -0.0391 -1.9555 -0.8109
11707TIP3   OH256611   5.938   4.923   2.563  0.2995  0.3754 -0.2389
11707TIP3    H156612   5.943   4.831   2.539  1.2303  0.5038 -0.5268
11707TIP3    H256613   5.926   4.969   2.480 -0.9629  0.4571 -0.0232
11708TIP3   OH256614   1.773   1.137   6.146  0.0333  0.3178 -0.5529
11708TIP3    H156615   1.744   1.089   6.069 -0.4813  0.8153 -0.6750
11708TIP3    H256616   1.729   1.095   6.220  0.9233 -0.4789 -0.4751
11709TIP3   OH256617   2.917   4.794   5.224  0.4366 -0.1366  0.1750
11709TIP3    H156618   2.972   4.843   5.164 -0.7093  1.5450  0.4605
11709TIP3    H256619   2.958   4.707   5.230  1.2455  0.0808 -2.0413
11710TIP3   OH256620   0.036   4.464  11.460 -0.0009 -0.7413 -0.4549
11710TIP3    H156621  -0.059   4.476  11.454 -0.0410 -1.0443 -0.4648
11710TIP3    H256622   0.068   4.545  11.500  0.0675  0.5991 -3.1204
11711TIP3   OH256623   6.438   5.932  11.444 -0.9568 -0.1159  0.1089
11711TIP3    H156624   6.365   5.870  11.442 -1.8751  0.9886 -1.8526
11711TIP3    H256625   6.403   6.011  11.404  1.4602  0.2981 -1.2715
11712TIP3   OH256626   1.249   0.680   1.096 -0.5590  0.2170 -0.1946
11712TIP3    H156627   1.315   0.621   1.062 -0.5290  0.4349 -0.5205
11712TIP3    H256628   1.249   0.666   1.191 -2.0196 -1.8245 -0.4628
11713TIP3   OH256629   4.686   5.718  12.977  0.1039  0.3117 -0.0276
11713TIP3    H156630   4.656   5.681  12.894  2.2352  1.7768 -1.5084
11713TIP3    H256631   4.766   5.766  12.955  0.5563  0.9948  2.8249
11714TIP3   OH256632   3.741   1.336   3.174 -0.4214 -0.0790 -0.1158
11714TIP3    H156633   3.740   1.309   3.266 -0.3851  0.8597  0.1722
11714TIP3    H256634   3.834   1.344   3.153 -0.4362  1.3439  0.2790
11715TIP3   OH256635   0.804   2.797  13.803  0.0238  1.1030 -0.1648
11715TIP3    H156636   0.882   2.817  13.854 -0.6773 -2.2511  2.4151
11715TIP3    H256637   0.731   2.827  13.857 -0.6332  0.0502 -0.4392
11716TIP3   OH256638   3.878   0.308  16.650  0.4449  0.2999  0.6638
11716TIP3    H156639   3.855   0.294  16.559  0.6661 -0.9205  0.7888
11716TIP3    H256640   3.794   0.316  16.696  0.3338  0.7780  0.3822
11717TIP3   OH256641   4.660   3.508   0.768  0.3816  0.6436  0.3886
11717TIP3    H156642   4.598   3.531   0.699 -0.3811  2.6865  1.6949
11717TIP3    H256643   4.647   3.415   0.783 -1.3004  0.7354 -0.4012
11718TIP3   OH256644   3.627   6.088  13.237 -0.0667  1.0463  0.8363
11718TIP3    H156645   3.679   6.027  13.185  0.7304  2.3262  0.1024
11718TIP3    H256646   3.656   6.074  13.327 -1.2628 -1.0000  0.9276
11719TIP3   OH256647   6.230   2.412  11.898 -0.2542  0.5263 -0.3292
11719TIP3    H156648   6.228   2.472  11.824 -1.2285  0.6553 -0.2070
11719TIP3    H256649   6.138   2.388  11.912  0.2074 -1.7183 -0.9654
11720TIP3   OH256650   1.441   4.415  15.241 -0.3883 -0.2063  0.2100
11720TIP3    H156651   1.448   4.389  15.332  1.5949  0.4898  0.2642
11720TIP3    H256652   1.373   4.357  15.205 -0.2766 -1.3498  1.7862
11721TIP3   OH256653   0.161   2.859  14.181 -0.1894 -0.4627 -0.3015
11721TIP3    H156654   0.087   2.818  14.135 -0.7660 -0.3946  0.5397
11721TIP3    H256655   0.121   2.935  14.226  0.2623 -0.7994  0.6822
11722TIP3   OH256656   1.540   5.943   4.390  0.4851  0.0683 -0.1496
11722TIP3    H156657   1.510   5.861   4.352  5.0011 -0.9472 -1.8250
11722TIP3    H256658   1.534   6.007   4.319  0.4162  0.3473  0.1027
11723TIP3   OH256659   6.042   1.509  15.735  0.3503  0.0753  0.2852
11723TIP3    H156660   6.106   1.450  15.695 -0.5647 -0.3653 -0.5518
11723TIP3    H256661   5.969   1.451  15.760 -0.0076  0.6649  0.6187
11724TIP3   OH256662   0.142   0.790  12.360  0.2633  0.2587  0.0643
11724TIP3    H156663   0.062   0.749  12.326  0.1502  1.1310 -0.7223
11724TIP3    H256664   0.167   0.734  12.434 -1.0893 -0.0050  0.3364
11725TIP3   OH256665   3.894   1.935  13.803 -0.4029  0.7594  0.4125
11725TIP3    H156666   3.835   1.894  13.867 -0.4424  0.3649  0.1239
11725TIP3    H256667   3.837   1.956  13.729 -0.2876  0.8943  0.3613
11726TIP3   OH256668   1.306   0.052   4.103 -0.6144  0.1488  0.0225
11726TIP3    H156669   1.232   0.006   4.063  0.0230 -2.0861  1.3608
11726TIP3    H256670   1.306   0.023   4.194  1.7422  0.3684  0.1126
11727TIP3   OH256671   0.148   0.483   4.493 -0.0094  0.8979  0.1170
11727TIP3    H156672   0.139   0.398   4.448 -1.7494  1.4406 -0.6169
11727TIP3    H256673   0.216   0.469   4.557 -1.6312 -1.6839  1.3596
11728TIP3   OH256674   4.443   1.001  13.183 -0.0339 -0.2469  0.1464
11728TIP3    H156675   4.468   0.928  13.240 -1.2531 -0.5555  0.3038
11728TIP3    H256676   4.417   0.960  13.101 -0.2125  0.0449  0.0552
11729TIP3   OH256677   2.614   2.538  15.808  0.3752  0.0848  0.1972
11729TIP3    H156678   2.564   2.611  15.770 -1.6980 -1.3759  0.0096
11729TIP3    H256679   2.689   2.579  15.851  1.4287  2.0182 -3.3140
11730TIP3   OH256680   0.805   6.472  12.429  0.6588 -0.2468  0.1109
11730TIP3    H156681   0.777   6.441  12.342 -0.6750 -1.4343  0.9527
11730TIP3    H256682   0.761   6.557  12.439  2.0005  0.6025 -0.9791
11731TIP3   OH256683   6.465   1.929   1.924 -0.1446  0.2474  0.1251
11731TIP3    H156684   6.512   1.852   1.958 -2.4146 -1.6627 -0.8981
11731TIP3    H256685   6.432   1.973   2.002  0.7842 -0.0802  0.7144
11732TIP3   OH256686   3.834   6.117   2.782 -0.1307 -0.1728  0.6665
11732TIP3    H156687   3.866   6.143   2.868 -0.4779  0.6982  0.5422
11732TIP3    H256688   3.740   6.137   2.785  0.1905  1.6648 -0.5496
11733TIP3   OH256689   0.940   5.088   5.074  0.4276  0.0214 -0.6162
11733TIP3    H156690   0.863   5.051   5.031 -0.6579  0.4215  0.9434
11733TIP3    H256691   1.014   5.041   5.036 -0.6480 -1.0137 -1.4654
11734TIP3   OH256692   5.249   1.072   2.609  0.3988 -0.2876 -0.1042
11734TIP3    H156693   5.222   1.103   2.696  0.5470 -1.5494  0.4012
11734TIP3    H256694   5.172   1.085   2.554  0.1131 -0.0220  0.3509
11735TIP3   OH256695   4.168   1.585  12.245  0.1196 -0.5349 -0.0858
11735TIP3    H156696   4.138   1.612  12.331  0.8062  0.5810 -0.1890
11735TIP3    H256697   4.089   1.589  12.190 -0.1537 -0.4959  0.3104
11736TIP3   OH256698   4.141   0.155  13.987  0.3264 -0.6603  0.2533
11736TIP3    H156699   4.228   0.178  13.954  0.5270 -1.0367  0.5186
11736TIP3    H256700   4.125   0.067  13.954  0.5225 -1.0297  1.1419
11737TIP3   OH256701   6.532   1.195   3.188 -0.6149  0.7049 -0.5088
11737TIP3    H156702   6.589   1.131   3.231 -0.1769  2.0049  0.8848
11737TIP3    H256703   6.546   1.180   3.094  1.7834  0.7765 -0.1953
11738TIP3   OH256704   2.500   4.459  17.028  0.4266  0.5992  0.7222
11738TIP3    H156705   2.473   4.444  16.937  0.7796  0.0097  0.7149
11738TIP3    H256706   2.467   4.384  17.076  0.0347  1.0277  1.1278
11739TIP3   OH256707   3.397   3.675   5.924 -0.4136  0.3427 -0.3513
11739TIP3    H156708   3.412   3.768   5.943 -1.2783  0.6691 -1.1993
11739TIP3    H256709   3.482   3.641   5.897  0.2594  0.5015  1.5060
11740TIP3   OH256710   4.111   4.484   6.358 -0.2009 -0.7044  0.7391
11740TIP3    H156711   4.043   4.424   6.388 -0.4702 -1.4900 -1.3749
11740TIP3    H256712   4.069   4.570   6.358 -0.5392 -0.8602  1.4505
11741TIP3   OH256713   5.619   0.278   4.023  0.2202 -0.1889 -0.7608
11741TIP3    H156714   5.550   0.344   4.025  1.3541  1.0008  0.5299
11741TIP3    H256715   5.591   0.213   4.088  0.7524  0.7915  0.4885
11742TIP3   OH256716   3.362   6.252  17.074 -0.4094 -0.5055 -0.1191
11742TIP3    H156717   3.330   6.294  17.154 -2.1477  0.3140 -1.2054
11742TIP3    H256718   3.442   6.299  17.052  0.5589 -1.2930  1.5876
11743TIP3   OH256719   4.691   3.469   0.305  0.6213  0.5364  0.1202
11743TIP3    H156720   4.758   3.430   0.248 -0.1187 -0.9329  0.2357
11743TIP3    H256721   4.626   3.505   0.245  2.1280  3.1513 -0.0238
11744TIP3   OH256722   1.466   6.271  13.605  0.2972  0.6018  0.7933
11744TIP3    H156723   1.477   6.356  13.647  2.0777  0.4336  0.7380
11744TIP3    H256724   1.546   6.260  13.554 -1.3361  0.3137 -1.7877
11745TIP3   OH256725   5.216   6.588  14.923 -0.3015 -0.2185 -0.0452
11745TIP3    H156726   5.300   6.581  14.878 -0.2086  0.2562  0.0592
11745TIP3    H256727   5.151   6.595  14.852 -0.1046  1.1334 -0.1003
11746TIP3   OH256728   5.266   1.771  12.030 -0.3708  0.4087  0.2515
11746TIP3    H156729   5.310   1.690  12.005  3.3331  2.3638  0.1246
11746TIP3    H256730   5.260   1.765  12.126  2.7489  1.2656  0.5716
11747TIP3   OH256731   0.483   5.152  10.769  0.2910 -0.4134  0.3707
11747TIP3    H156732   0.405   5.113  10.807 -0.2178 -0.4091 -0.6395
11747TIP3    H256733   0.551   5.085  10.780 -0.7029 -1.8670 -1.8274
11748TIP3   OH256734   0.603   4.230   0.468  0.3589  0.7813  0.6039
11748TIP3    H156735   0.648   4.272   0.541 -0.2287  2.4424  0.0403
11748TIP3    H256736   0.511   4.230   0.494  0.2672  0.5387  0.2704
11749TIP3   OH256737   2.715   1.768  15.672  0.3299 -0.1819  0.2771
11749TIP3    H156738   2.668   1.690  15.642  0.1160 -0.3517  1.0430
11749TIP3    H256739   2.674   1.790  15.755 -0.9811  1.9782 -0.9161
11750TIP3   OH256740   6.089   0.950  15.999  0.3858 -0.6891 -0.4869
11750TIP3    H156741   6.048   0.979  16.081 -0.0556  0.8088 -1.2149
11750TIP3    H256742   6.101   0.856  16.010 -0.6794 -0.6841  0.8668
11751TIP3   OH256743   6.436   5.142   3.913  0.0335 -0.9391  0.7496
11751TIP3    H156744   6.399   5.108   3.995  0.6378 -0.3888  1.2538
11751TIP3    H256745   6.390   5.224   3.898 -0.2056 -1.1293  0.4377
11752TIP3   OH256746   4.780   2.204   0.556 -0.4960  0.0589  0.0614
11752TIP3    H156747   4.876   2.208   0.564 -0.5502  2.4657  0.0702
11752TIP3    H256748   4.750   2.176   0.642  0.1321  1.2153  0.6727
11753TIP3   OH256749   3.751   2.925  13.506 -0.2491  0.0327 -0.0502
11753TIP3    H156750   3.808   2.966  13.571  0.6766 -0.4340 -0.5498
11753TIP3    H256751   3.712   2.997  13.457  0.2485  0.3452  0.0207
11754TIP3   OH256752   5.805   0.333   5.574 -0.2539  0.3517  0.1398
11754TIP3    H156753   5.881   0.315   5.519  0.8181  4.0982  0.2340
11754TIP3    H256754   5.736   0.276   5.540  1.9403 -1.5014 -1.3754
11755TIP3   OH256755   1.620   6.805  11.403 -0.4908  0.0773 -0.0653
11755TIP3    H156756   1.598   6.714  11.381  2.8993 -0.3426 -1.9186
11755TIP3    H256757   1.588   6.856  11.328 -0.6056  0.2021  0.0669
11756TIP3   OH256758   6.455   5.744   3.168 -0.1649 -0.5637 -0.1271
11756TIP3    H156759   6.442   5.831   3.129  0.8769 -0.0908  0.5657
11756TIP3    H256760   6.512   5.699   3.106  1.9707  0.3900  1.1004
11757TIP3   OH256761   1.883   0.162  14.357 -0.1874 -0.4232 -0.2091
11757TIP3    H156762   1.974   0.191  14.344 -0.2109 -0.8583 -1.3585
11757TIP3    H256763   1.844   0.231  14.411  1.7364 -1.8523  3.2055
11758TIP3   OH256764   4.915   1.311  14.648 -0.4441 -0.3048 -0.3908
11758TIP3    H156765   4.820   1.306  14.646 -0.4636 -0.5792  0.7632
11758TIP3    H256766   4.944   1.220  14.638 -0.2956 -0.2231 -0.7364
11759TIP3   OH256767   6.191   3.868   1.895  0.0907 -0.8711  0.0059
11759TIP3    H156768   6.283   3.857   1.918 -0.0218  0.8625  1.4353
11759TIP3    H256769   6.175   3.962   1.903 -1.6288 -1.0540 -0.9154
11760TIP3   OH256770   6.562   0.265   5.797  0.8575  0.3516 -0.1322
11760TIP3    H156771   6.559   0.335   5.732  0.3557  1.1916  0.7808
11760TIP3    H256772   6.565   0.184   5.746 -0.5046  0.9574 -1.1925
11761TIP3   OH256773   0.035   2.006   5.148 -0.3448 -0.1605  0.1553
11761TIP3    H156774   0.128   2.021   5.131 -0.2664 -1.0731 -0.2583
11761TIP3    H256775  -0.004   2.093   5.146  0.6515  0.3269  1.2564
11762TIP3   OH256776   4.076   6.111  12.728  0.2909 -0.3476 -0.0749
11762TIP3    H156777   4.028   6.033  12.756  0.8400 -0.7662 -0.2848
11762TIP3    H256778   4.099   6.094  12.636  0.6537 -0.0580 -0.0406
11763TIP3   OH256779   0.647   0.451  15.185  0.3970  0.0298  0.4087
11763TIP3    H156780   0.739   0.462  15.160  0.3719 -0.7231 -0.0590
11763TIP3    H256781   0.650   0.401  15.266  0.4379  1.3009  1.2030
11764TIP3   OH256782   3.195   3.714   4.061  0.4277  0.2326  0.4238
11764TIP3    H156783   3.160   3.631   4.095 -3.4256  1.6264  0.1003
11764TIP3    H256784   3.148   3.782   4.110 -1.3194  2.2427 -3.7161
11765TIP3   OH256785   0.337   0.501   5.350 -0.5322 -0.2506 -0.0103
11765TIP3    H156786   0.409   0.438   5.339 -2.2183 -2.6142  1.9305
11765TIP3    H256787   0.281   0.461   5.416 -1.8390  3.2033  1.0495
11766TIP3   OH256788   2.101   6.282  14.815 -0.5842  0.1943  0.0487
11766TIP3    H156789   2.113   6.355  14.876 -1.1823  0.8127 -0.5591
11766TIP3    H256790   2.189   6.266  14.781 -0.4307  0.5846  0.2513
11767TIP3   OH256791   6.782   4.492  14.081 -0.5882  0.4359  0.4895
11767TIP3    H156792   6.719   4.560  14.059  0.1573  0.7988 -0.5312
11767TIP3    H256793   6.860   4.539  14.111 -0.7657 -0.0094  1.6982
11768TIP3   OH256794   2.525   5.603   3.848  0.2803 -0.6019 -0.7170
11768TIP3    H156795   2.465   5.569   3.914  0.6811  0.0502 -0.0121
11768TIP3    H256796   2.496   5.562   3.766 -0.2258 -1.4028 -0.1443
11769TIP3   OH256797   0.940   2.935  14.593  0.5439  0.5354 -0.5955
11769TIP3    H156798   0.887   2.865  14.555 -1.6435  1.8875 -0.1128
11769TIP3    H256799   0.992   2.968  14.519 -0.1807 -0.0144 -1.3617
11770TIP3   OH256800   6.421   2.121  15.365  0.5363 -0.6521  0.4803
11770TIP3    H156801   6.423   2.091  15.274  0.9606 -1.7985  0.8604
11770TIP3    H256802   6.482   2.195  15.368  2.0017 -1.8263  0.2526
11771TIP3   OH256803   3.386   3.662  11.138 -0.2809  0.1551 -0.7191
11771TIP3    H156804   3.431   3.673  11.222 -2.9735 -3.5947  1.3167
11771TIP3    H256805   3.347   3.748  11.121  0.6960  1.1051  1.5738
11772TIP3   OH256806   4.927   2.494  13.839  0.3464 -0.3770 -0.4877
11772TIP3    H156807   5.012   2.519  13.802  0.3046  0.5535  0.0370
11772TIP3    H256808   4.867   2.562  13.809  0.0665 -0.2864  0.2652
11773TIP3   OH256809   0.832   5.000  17.275  0.1447  0.0343  0.2420
11773TIP3    H156810   0.924   4.976  17.263  0.0272 -0.6403  0.6679
11773TIP3    H256811   0.825   5.026  17.366 -0.5958 -2.3267  0.9102
11774TIP3   OH256812   0.761   3.078  12.441  0.7581  0.5534 -0.2783
11774TIP3    H156813   0.779   2.995  12.396  1.6461 -0.0271  1.1072
11774TIP3    H256814   0.677   3.107  12.406 -0.5890 -1.9901  0.7689
11775TIP3   OH256815   0.624   6.490  14.726 -0.3062  0.0864 -0.6233
11775TIP3    H156816   0.636   6.441  14.807  0.8474  0.0097 -0.8330
11775TIP3    H256817   0.679   6.568  14.737  0.7153 -0.4578 -1.7630
11776TIP3   OH256818   2.663   6.265   3.769  0.7245  0.0113  0.2117
11776TIP3    H156819   2.636   6.221   3.850  1.9326 -0.6854  0.2503
11776TIP3    H256820   2.744   6.310   3.793  1.3019 -0.5207 -0.6964
11777TIP3   OH256821   4.181   0.282  11.472 -0.6224  0.1966 -0.5523
11777TIP3    H156822   4.109   0.278  11.409 -1.3587  2.2461  0.1276
11777TIP3    H256823   4.145   0.245  11.553 -1.1208  1.7698 -0.0395
11778TIP3   OH256824   6.555   4.764   3.590 -0.2886  0.1573 -0.4628
11778TIP3    H156825   6.531   4.766   3.497 -1.1398  0.6566 -0.2410
11778TIP3    H256826   6.486   4.711   3.631 -0.5448  0.8809  0.0491
11779TIP3   OH256827   4.853   6.231  12.938 -0.0600 -0.2465 -0.6577
11779TIP3    H156828   4.936   6.195  12.910  1.6556  0.5257  3.0364
11779TIP3    H256829   4.791   6.159  12.932  1.7089 -1.8387 -0.0786
11780TIP3   OH256830   2.110   1.949   0.062  0.1555  0.2860 -0.0649
11780TIP3    H156831   2.029   1.910   0.031 -0.3597  1.5159 -0.3041
11780TIP3    H256832   2.083   2.032   0.102  1.1670  0.1712  0.8640
11781TIP3   OH256833   1.855   3.296   0.947  0.0029  0.0941 -0.1472
11781TIP3    H156834   1.891   3.314   1.034 -0.7784 -2.0508  0.6439
11781TIP3    H256835   1.797   3.371   0.931 -0.5144  0.0988  1.5562
11782TIP3   OH256836   2.088   0.941  12.574  0.4346  0.0728 -0.3674
11782TIP3    H156837   2.032   1.018  12.586  0.5107  0.0385  0.2487
11782TIP3    H256838   2.027   0.868  12.560  0.3367  0.1021 -0.0966
11783TIP3   OH256839   5.604   3.015  12.946  0.4274  0.3676 -0.0736
11783TIP3    H156840   5.635   2.930  12.979 -0.0682  0.1938 -0.0503
11783TIP3    H256841   5.522   3.030  12.992 -0.8783 -0.4389 -2.0556
11784TIP3   OH256842   3.881   1.595  13.741  0.3025  0.1882 -0.1605
11784TIP3    H156843   3.792   1.614  13.713  1.0127  1.9497 -1.3672
11784TIP3    H256844   3.876   1.588  13.836 -1.0623  0.7131 -0.1854
11785TIP3   OH256845   5.655   1.519   5.286 -0.3672  0.4379 -0.0655
11785TIP3    H156846   5.598   1.519   5.363  0.6404 -0.4239  0.6918
11785TIP3    H256847   5.740   1.549   5.319  0.0110  0.2877 -0.8830
11786TIP3   OH256848   6.257   0.360  14.001 -0.7468  0.0110  0.4750
11786TIP3    H156849   6.187   0.397  13.947  0.1834  0.7004 -0.2642
11786TIP3    H256850   6.254   0.412  14.081 -1.6967 -0.5847  0.8388
11787TIP3   OH256851   5.778   0.101  12.287 -0.5132  0.1286 -0.0572
11787TIP3    H156852   5.800   0.017  12.248  1.0735 -0.4289  1.9525
11787TIP3    H256853   5.733   0.078  12.369  0.1556  1.2199  0.6257
11788TIP3   OH256854   5.888   2.920   5.921  0.9423 -0.3026 -0.1598
11788TIP3    H156855   5.906   2.827   5.937  0.5665 -0.5363 -1.0876
11788TIP3    H256856   5.878   2.958   6.008  0.2054 -1.3128  0.1980
11789TIP3   OH256857   2.866   0.654   0.005 -0.4010  0.3997  0.5977
11789TIP3    H156858   2.774   0.638  -0.017 -0.1396 -0.2826 -0.0363
11789TIP3    H256859   2.913   0.580  -0.035  0.7268  2.1071 -1.3105
11790TIP3   OH256860   2.880   5.832   3.075  0.8971  0.0693  0.5267
11790TIP3    H156861   2.883   5.882   2.993 -1.5640  0.2391  0.4839
11790TIP3    H256862   2.880   5.899   3.143 -0.2704  0.0613  0.5422
11791TIP3   OH256863   4.870   3.995  16.972 -0.0672  0.8682  0.7052
11791TIP3    H156864   4.790   3.955  17.005 -1.4861  2.5226 -0.6719
11791TIP3    H256865   4.911   3.926  16.919 -3.1862  1.5455 -2.7790
11792TIP3   OH256866   3.052   1.472  11.991 -0.5604 -0.3050  0.3238
11792TIP3    H156867   3.087   1.519  12.067  0.1628 -0.0313 -0.1732
11792TIP3    H256868   2.973   1.428  12.024 -1.0897  1.0218  0.8701
11793TIP3   OH256869   6.660   6.130  15.485 -0.3073 -0.0064 -0.3626
11793TIP3    H156870   6.644   6.037  15.472  1.2072 -0.2682 -0.3665
11793TIP3    H256871   6.739   6.149  15.435 -0.4010  1.2146 -0.0799
11794TIP3   OH256872   3.496   5.602  11.587 -0.6718 -0.3450  0.3809
11794TIP3    H156873   3.459   5.667  11.646  0.8749 -0.5898  1.6422
11794TIP3    H256874   3.553   5.548  11.642  0.6764 -0.6863 -1.2958
11795TIP3   OH256875   6.460   0.349   4.064  0.4597  0.2013  0.5433
11795TIP3    H156876   6.390   0.300   4.106 -1.2230  1.8018 -0.3305
11795TIP3    H256877   6.500   0.399   4.135 -0.2460  0.3991  0.8118
11796TIP3   OH256878   4.132   6.741  11.535 -0.2815  0.2907  0.1121
11796TIP3    H156879   4.186   6.717  11.611  0.1090  2.7355  0.6438
11796TIP3    H256880   4.049   6.770  11.573 -1.0680 -0.9937 -0.5774
11797TIP3   OH256881   6.539   3.268  12.211  0.0691  0.0519  0.0082
11797TIP3    H156882   6.459   3.321  12.216 -0.9133 -1.4635  0.7964
11797TIP3    H256883   6.517   3.189  12.259  2.2215 -0.1906  0.5999
11798TIP3   OH256884   0.203   2.248   1.733 -0.0267 -0.2023 -0.1889
11798TIP3    H156885   0.252   2.330   1.724  0.1329 -0.3577 -0.7798
11798TIP3    H256886   0.179   2.244   1.825 -0.6089  0.8434 -0.2873
11799TIP3   OH256887   1.036   3.421  16.049  0.2598  0.4755  0.1818
11799TIP3    H156888   1.107   3.356  16.054  0.1756  0.2952 -0.8611
11799TIP3    H256889   0.957   3.370  16.066  0.1572  0.2300 -1.0187
11800TIP3   OH256890   6.101   0.891  11.178  0.0030 -0.6555 -0.1102
11800TIP3    H156891   6.125   0.811  11.224 -0.9121 -1.0217 -0.2701
11800TIP3    H256892   6.129   0.876  11.087 -0.1777 -0.7944 -0.1419
11801TIP3   OH256893   0.171   4.350   0.992 -0.2060  0.0447  0.1845
11801TIP3    H156894   0.096   4.361   0.933  0.1699  0.9441 -0.1229
11801TIP3    H256895   0.139   4.382   1.077 -0.4388 -0.3561  0.2483
11802TIP3   OH256896   2.961   2.990  12.041 -0.9041 -0.1494 -0.0683
11802TIP3    H156897   2.933   3.080  12.060 -0.4956 -0.6062  3.0184
11802TIP3    H256898   3.044   2.981  12.089 -0.0482 -1.6515 -1.7671
11803TIP3   OH256899   5.289   6.736   6.044 -0.5449 -0.0868 -0.0241
11803TIP3    H156900   5.204   6.735   6.088 -0.9124 -1.5357 -0.7600
11803TIP3    H256901   5.301   6.647   6.011  1.9069 -0.2962  1.2895
11804TIP3   OH256902   0.589   2.628   2.223 -0.3185 -0.1431 -0.4086
11804TIP3    H156903   0.629   2.549   2.188 -0.6660  0.1937 -1.5946
11804TIP3    H256904   0.498   2.603   2.240  0.0837 -0.5811  1.1973
11805TIP3   OH256905   0.822   5.138   5.625  0.1216 -0.0649  0.6537
11805TIP3    H156906   0.794   5.194   5.698 -3.3639 -1.4160  0.4406
11805TIP3    H256907   0.835   5.198   5.552 -2.9892  0.6279  0.5860
11806TIP3   OH256908   4.381   4.850   0.879  0.6782  0.1612  0.0053
11806TIP3    H156909   4.449   4.784   0.865  0.6002 -0.0264  0.4904
11806TIP3    H256910   4.405   4.922   0.821  1.6770  0.3829  0.6787
11807TIP3   OH256911   4.185   0.104  11.906  0.5433 -0.1197  0.1188
11807TIP3    H156912   4.108   0.098  11.962  1.2246 -0.7712  1.0073
11807TIP3    H256913   4.243   0.164  11.952  1.3453 -1.1022  0.3960
11808TIP3   OH256914   5.775   5.805  10.751 -0.0707 -0.1074  0.2167
11808TIP3    H156915   5.735   5.886  10.781  0.2480  0.4429 -0.8245
11808TIP3    H256916   5.760   5.804  10.656  0.2138 -1.1016  0.1767
11809TIP3   OH256917   5.428   0.785  12.385 -0.2385 -0.2057  0.1459
11809TIP3    H156918   5.520   0.760  12.386 -0.3655 -0.6952 -0.1991
11809TIP3    H256919   5.399   0.777  12.476 -0.3861 -1.7077 -0.0275
11810TIP3   OH256920   5.945   2.784  15.596 -0.1590 -0.0205 -0.0851
11810TIP3    H156921   5.912   2.708  15.645 -1.8931  0.2768 -0.7777
11810TIP3    H256922   6.037   2.791  15.623 -0.1794 -1.9140  0.5489
11811TIP3   OH256923   3.065   2.406   0.613  0.0576 -0.7447 -0.0143
11811TIP3    H156924   3.025   2.383   0.697 -2.2463 -2.1321 -1.4311
11811TIP3    H256925   3.065   2.324   0.564  0.2224  0.3306 -1.8455
11812TIP3   OH256926   2.733   1.479   2.446  0.2334  0.1506 -0.5030
11812TIP3    H156927   2.807   1.481   2.385  0.3274  0.7412 -0.3671
11812TIP3    H256928   2.665   1.529   2.402  0.9618  2.2745  0.7437
11813TIP3   OH256929   2.049   3.622   6.393  0.5188  0.0363  0.2701
11813TIP3    H156930   2.111   3.606   6.464  1.6941  1.9619 -0.3009
11813TIP3    H256931   2.073   3.708   6.359 -1.1203 -0.1284 -1.3544
11814TIP3   OH256932   4.537   0.792   1.415  0.4538  0.3557  0.7207
11814TIP3    H156933   4.629   0.765   1.412  0.5220  0.6374  0.1850
11814TIP3    H256934   4.500   0.761   1.332  0.9345  3.2933 -0.6486
11815TIP3   OH256935   3.770   0.914   0.692 -0.0403  0.1350 -0.2610
11815TIP3    H156936   3.738   0.896   0.781  0.9323  0.4414  0.1690
11815TIP3    H256937   3.699   0.962   0.650 -0.7242 -0.4780  0.1727
11816TIP3   OH256938   6.761   5.694   4.393 -0.5089 -0.5923  0.1711
11816TIP3    H156939   6.694   5.626   4.397  0.4224 -1.4690  1.3558
11816TIP3    H256940   6.722   5.770   4.436 -1.6381 -0.2836 -1.3581
11817TIP3   OH256941   0.624   0.662   4.687  0.2407  0.5916  0.3066
11817TIP3    H156942   0.719   0.667   4.700  0.6242  0.2403 -2.0367
11817TIP3    H256943   0.595   0.596   4.750  1.8188 -0.5057 -0.0652
11818TIP3   OH256944   0.607   3.800   1.832  0.0862 -0.3311 -0.1797
11818TIP3    H156945   0.644   3.740   1.897  3.1355  3.0908  1.3898
11818TIP3    H256946   0.526   3.832   1.872  0.9385  0.2457  1.1216
11819TIP3   OH256947   1.335   3.925  15.630 -0.5521 -0.0520  0.2881
11819TIP3    H156948   1.417   3.931  15.581 -1.6076  0.9430 -1.3933
11819TIP3    H256949   1.294   3.844  15.599 -0.3989 -0.3340  0.8210
11820TIP3   OH256950   5.339   6.676   5.021 -0.2120  0.7427 -0.7232
11820TIP3    H156951   5.371   6.711   5.104  0.7053 -0.8501 -0.3860
11820TIP3    H256952   5.254   6.637   5.041 -0.5973  1.5354 -0.8109
11821TIP3   OH256953   2.157   3.304   5.642 -0.3786 -0.2980 -0.6697
11821TIP3    H156954   2.190   3.386   5.679 -0.0925 -0.8316  0.2612
11821TIP3    H256955   2.073   3.290   5.685  0.2177 -1.2176  0.2274
11822TIP3   OH256956   5.262   3.075   0.614  0.1233 -0.5176  0.4861
11822TIP3    H156957   5.177   3.032   0.608 -0.1195  0.0809 -0.5263
11822TIP3    H256958   5.252   3.140   0.684 -2.2268  3.8016 -3.4979
11823TIP3   OH256959   0.620   0.894   4.945 -0.1660 -0.3933  0.1728
11823TIP3    H156960   0.577   0.942   5.016 -0.4001  0.3648 -0.4762
11823TIP3    H256961   0.558   0.900   4.872  0.1547 -1.0169 -0.1549
11824TIP3   OH256962   5.450   2.686   0.935 -0.4093  0.2411 -0.1520
11824TIP3    H156963   5.392   2.654   0.866  1.5659 -0.7737 -1.4057
11824TIP3    H256964   5.486   2.767   0.900  0.9643 -0.5207 -0.5715
11825TIP3   OH256965   6.104   2.198   3.748 -0.4275 -0.5910  0.1194
11825TIP3    H156966   6.130   2.115   3.708 -1.2324 -0.5400 -0.5088
11825TIP3    H256967   6.034   2.231   3.692 -0.6083  0.1615  0.7838
11826TIP3   OH256968   0.080   5.946  16.733 -0.2825 -0.2537  0.1252
11826TIP3    H156969   0.065   5.973  16.823 -3.1369 -2.9154  0.5244
11826TIP3    H256970   0.041   6.016  16.680 -0.4486  0.2982  0.9737
11827TIP3   OH256971   2.110   2.890   3.569 -0.1468 -0.0206 -0.1255
11827TIP3    H156972   2.131   2.901   3.661 -1.2651  0.1851  0.1197
11827TIP3    H256973   2.141   2.803   3.547 -1.3173 -0.7093  0.8788
11828TIP3   OH256974   3.552   4.200  16.801 -0.2271 -0.1765 -0.2455
11828TIP3    H156975   3.642   4.173  16.815 -0.4752 -1.8436 -1.6265
11828TIP3    H256976   3.507   4.120  16.774 -1.9061  0.8231 -0.5202
11829TIP3   OH256977   6.017   2.628  16.540 -0.2919  0.5282  0.9095
11829TIP3    H156978   6.015   2.673  16.624 -0.1119  0.9303  0.6982
11829TIP3    H256979   6.092   2.665  16.494  0.3249 -0.5342  1.0331
11830TIP3   OH256980   3.150   6.716  16.575 -0.0870 -0.6480  0.8711
11830TIP3    H156981   3.199   6.797  16.560 -1.2012 -0.1329 -0.1249
11830TIP3    H256982   3.217   6.650  16.593  0.8093  0.5750  2.0935
11831TIP3   OH256983   1.975   4.235  14.307 -0.0714 -0.2949  0.4544
11831TIP3    H156984   1.895   4.220  14.358 -0.5792 -2.3897 -0.9108
11831TIP3    H256985   2.042   4.182  14.351  0.4023  0.8257  1.1143
11832TIP3   OH256986   0.993   1.191   4.354  0.2158 -0.1897  0.4100
11832TIP3    H156987   1.021   1.214   4.265 -0.2252  0.3269  0.4015
11832TIP3    H256988   0.984   1.096   4.353  0.1022 -0.1715 -0.1289
11833TIP3   OH256989   5.540   4.657   3.804  0.3353 -0.0244  0.1216
11833TIP3    H156990   5.578   4.669   3.717 -1.8033  0.9591 -0.7186
11833TIP3    H256991   5.457   4.613   3.788  1.4021 -2.8555  1.9845
11834TIP3   OH256992   0.210   1.134   4.219 -0.0306  0.0178  0.1044
11834TIP3    H156993   0.305   1.142   4.223  0.1039 -1.3647 -0.1900
11834TIP3    H256994   0.184   1.195   4.149  0.6916 -0.0144 -0.1936
11835TIP3   OH256995   2.327   6.696   6.070 -0.3020 -0.0593 -0.1696
11835TIP3    H156996   2.386   6.650   6.129 -0.2509 -1.0966 -1.0155
11835TIP3    H256997   2.239   6.673   6.100 -0.2728 -0.1503 -0.1538
11836TIP3   OH256998   1.722   3.804  16.303  0.0715 -0.4358 -0.1385
11836TIP3    H156999   1.739   3.897  16.318  2.4452 -0.6820 -1.0710
11836TIP3    H257000   1.727   3.764  16.390  1.6202 -0.0502 -0.0289
11837TIP3   OH257001   5.464   0.790   1.945 -0.1554 -0.6156 -0.2349
11837TIP3    H157002   5.458   0.695   1.936  0.9379 -0.8134  1.0533
11837TIP3    H257003   5.558   0.809   1.943 -0.2873  0.2620  1.2796
11838TIP3   OH257004   3.581   6.614  16.800 -0.4138  0.4660  0.3184
11838TIP3    H157005   3.558   6.660  16.881 -0.0822  2.2072 -0.5449
11838TIP3    H257006   3.610   6.683  16.741  0.5172 -0.9291 -0.8887
11839TIP3   OH257007   4.359   3.175  11.368  0.0862 -0.2369  0.1925
11839TIP3    H157008   4.372   3.267  11.347  1.3729 -0.4652 -0.0236
11839TIP3    H257009   4.350   3.132  11.283  0.3073 -0.4352  0.2714
11840TIP3   OH257010   2.765   3.771   5.669 -0.3227 -0.5343 -0.1328
11840TIP3    H157011   2.702   3.821   5.721  2.9032 -0.3711  3.8816
11840TIP3    H257012   2.754   3.680   5.698  2.7048 -0.1976  2.3243
11841TIP3   OH257013   5.000   1.322   2.340  0.2131 -0.0053 -0.0682
11841TIP3    H157014   4.977   1.319   2.247 -0.6868  1.5649  0.0742
11841TIP3    H257015   5.058   1.397   2.348  0.9270 -0.6166  0.5133
11842TIP3   OH257016   1.073   3.377   0.839 -0.5304  0.1154 -0.2570
11842TIP3    H157017   1.060   3.354   0.747  0.3402  0.2140 -0.4135
11842TIP3    H257018   1.044   3.468   0.846 -1.9491 -0.3441 -0.1130
11843TIP3   OH257019   2.689   6.340  11.058 -0.2119  0.0987  0.1981
11843TIP3    H157020   2.691   6.307  10.968  0.7964  1.3555 -0.2555
11843TIP3    H257021   2.596   6.349  11.078 -0.4343  0.1697 -0.8495
11844TIP3   OH257022   4.446   4.585   4.202  0.1209 -0.1967  0.3219
11844TIP3    H157023   4.462   4.679   4.193 -1.4667 -0.0791 -1.4770
11844TIP3    H257024   4.378   4.578   4.268  1.5061 -0.2245  1.7951
11845TIP3   OH257025   6.342   0.502   6.783 -0.2980 -0.1266 -0.2015
11845TIP3    H157026   6.355   0.564   6.712  0.4425 -0.2046 -0.1346
11845TIP3    H257027   6.255   0.523   6.817 -0.5868  0.0232 -1.0156
11846TIP3   OH257028   4.295   3.693  15.032  0.1834  0.0809  0.1728
11846TIP3    H157029   4.228   3.625  15.043  0.3283 -0.4659 -2.0017
11846TIP3    H257030   4.308   3.697  14.937  1.3053  2.0642  0.4037
11847TIP3   OH257031   5.367   2.040  12.670  0.0882  0.4159  0.0874
11847TIP3    H157032   5.277   2.058  12.696 -0.3490  0.0855 -1.1749
11847TIP3    H257033   5.369   1.946  12.650  0.9539  0.2180  1.0451
11848TIP3   OH257034   3.354   4.531   0.333 -0.2861  0.3672  0.5983
11848TIP3    H157035   3.391   4.443   0.322 -0.6714  0.5010 -2.2536
11848TIP3    H257036   3.394   4.582   0.263 -1.5940  1.9563  0.9884
11849TIP3   OH257037   2.743   5.048   6.407  0.1359 -0.1143 -0.3324
11849TIP3    H157038   2.689   4.985   6.455 -0.9268  1.4118  0.5659
11849TIP3    H257039   2.770   5.003   6.328 -0.4048 -1.7571  0.3990
11850TIP3   OH257040   3.780   4.277  14.750  0.4800 -0.1139  0.4909
11850TIP3    H157041   3.764   4.236  14.835 -0.6397  2.0773  1.3789
11850TIP3    H257042   3.857   4.333  14.764  1.8873 -1.7061 -0.6606
11851TIP3   OH257043   0.789   2.730   3.713  0.4448  0.5795  0.5860
11851TIP3    H157044   0.835   2.708   3.632 -0.4543 -2.2875  0.7783
11851TIP3    H257045   0.700   2.751   3.686  0.4727  0.8524  0.7062
11852TIP3   OH257046   3.497   5.053  14.666 -1.0058 -0.0638  0.2760
11852TIP3    H157047   3.570   5.027  14.721 -1.7361  0.2060  1.3856
11852TIP3    H257048   3.537   5.071  14.580  0.1072 -0.6363  0.6656
11853TIP3   OH257049   3.393   0.212   4.415 -0.6311  0.0568 -0.1259
11853TIP3    H157050   3.377   0.287   4.358  0.7117  0.5146  0.0879
11853TIP3    H257051   3.425   0.143   4.356 -3.5024 -0.9377 -0.5897
11854TIP3   OH257052   0.448   3.689  14.373  0.1921  0.6708 -0.1315
11854TIP3    H157053   0.508   3.756  14.342  2.2919 -1.0385  0.1130
11854TIP3    H257054   0.457   3.618  14.309 -0.7191 -0.0524  0.5392
11855TIP3   OH257055   0.539   0.484   4.312  0.8581  0.1333 -0.4547
11855TIP3    H157056   0.575   0.438   4.236  0.7133 -2.4442  0.9842
11855TIP3    H257057   0.466   0.429   4.340  0.4307  1.4665  1.1094
11856TIP3   OH257058   2.838   5.011   3.592  0.7034 -0.1183  0.1996
11856TIP3    H157059   2.802   5.093   3.625 -0.9241 -1.1708  1.0575
11856TIP3    H257060   2.933   5.021   3.602  0.5471  1.8422 -0.1566
11857TIP3   OH257061   4.996   6.657  14.491 -0.0026 -0.4467  0.9837
11857TIP3    H157062   4.948   6.633  14.412  0.7488 -1.4099  0.8151
11857TIP3    H257063   4.928   6.673  14.556 -0.5991 -0.4663  0.3802
11858TIP3   OH257064   5.382   0.888  14.643 -0.2716 -0.1228  0.2966
11858TIP3    H157065   5.294   0.881  14.680  0.6314  0.9016  2.7503
11858TIP3    H257066   5.440   0.894  14.719  2.0741 -2.1415 -1.2448
11859TIP3   OH257067   6.407   1.758  14.551  0.4720  0.4407 -0.2079
11859TIP3    H157068   6.497   1.770  14.581  0.0740 -1.1799  1.7114
11859TIP3    H257069   6.414   1.759  14.455  2.4166  1.0944 -0.0848
11860TIP3   OH257070   4.730   0.333   5.313 -0.4223  0.0325 -0.0340
11860TIP3    H157071   4.682   0.360   5.391 -0.2700  1.2308 -0.3446
11860TIP3    H257072   4.674   0.359   5.240 -0.2474 -0.4454 -0.3369
11861TIP3   OH257073   2.016   5.249   2.512  0.6677 -0.6675 -0.2206
11861TIP3    H157074   2.031   5.156   2.528 -0.3203 -0.5702  1.4241
11861TIP3    H257075   2.027   5.290   2.597 -2.4421  0.2249 -0.1887
11862TIP3   OH257076   0.115   0.718   4.396 -0.2947  0.2059 -0.0499
11862TIP3    H157077   0.127   0.629   4.429 -0.0446 -0.1057 -0.9881
11862TIP3    H257078   0.187   0.768   4.436 -0.1973 -0.1000  0.1577
11863TIP3   OH257079   5.180   3.898   3.851 -0.1799 -0.2097  0.1038
11863TIP3    H157080   5.195   3.938   3.765 -1.2277 -0.8198 -0.3695
11863TIP3    H257081   5.148   3.810   3.832  0.9434 -0.8651  1.1400
11864TIP3   OH257082   2.202   5.806   5.018 -0.2973 -0.2603 -0.0888
11864TIP3    H157083   2.121   5.817   5.068 -0.2048  1.3406 -0.2485
11864TIP3    H257084   2.196   5.872   4.948  0.2355 -1.4836 -1.3144
11865TIP3   OH257085   0.519   0.903  14.943  0.1427  0.0304 -0.3583
11865TIP3    H157086   0.459   0.828  14.947 -2.5132  1.9373 -2.7291
11865TIP3    H257087   0.563   0.895  14.859  1.4461  0.0338  0.2960
11866TIP3   OH257088   2.469   4.432  11.645  0.6280 -1.3542  0.1484
11866TIP3    H157089   2.376   4.454  11.635  0.7751 -0.8010  0.0072
11866TIP3    H257090   2.515   4.515  11.638  0.9331 -1.2266  2.9599
11867TIP3   OH257091   2.143   5.789  13.531  0.4125 -0.0728 -0.8251
11867TIP3    H157092   2.159   5.694  13.536  0.5150 -0.1309 -2.0381
11867TIP3    H257093   2.063   5.802  13.582 -0.2691 -0.9928 -1.6317
11868TIP3   OH257094   5.155   4.443  14.030 -0.2412  0.3069 -0.2527
11868TIP3    H157095   5.157   4.467  14.122  1.1399 -0.7624  0.0378
11868TIP3    H257096   5.063   4.427  14.010 -0.5660  0.7422  0.8942
11869TIP3   OH257097   3.198   4.777   3.300 -0.0095 -0.3370  0.7675
11869TIP3    H157098   3.107   4.804   3.284  0.0789  0.0186  0.8516
11869TIP3    H257099   3.191   4.705   3.363 -0.2625 -0.6647  0.3678
11870TIP3   OH257100   2.701   1.333   5.536 -0.2852 -0.1103  0.7216
11870TIP3    H157101   2.686   1.254   5.587  0.1506 -0.2834  0.5845
11870TIP3    H257102   2.779   1.373   5.575 -0.1875 -0.0323  0.4505
11871TIP3   OH257103   2.055   0.576  15.519  0.8785  0.4329 -0.0490
11871TIP3    H157104   2.000   0.650  15.493  0.0129 -0.5611 -1.1307
11871TIP3    H257105   2.099   0.549  15.439  4.0151  2.0272  1.0477
11872TIP3   OH257106   1.040   3.426  16.363  0.1722 -0.5016 -0.4830
11872TIP3    H157107   1.077   3.400  16.278  0.3218 -0.7325 -0.3470
11872TIP3    H257108   1.020   3.519  16.353  1.1224 -0.2891 -0.4368
11873TIP3   OH257109   5.560   0.458   0.639  0.0850  0.3952 -0.0779
11873TIP3    H157110   5.565   0.478   0.546  0.8618 -1.8431 -0.5583
11873TIP3    H257111   5.645   0.486   0.674 -0.7898  2.6908  0.2981
11874TIP3   OH257112   4.517   5.095  15.945 -0.4843 -0.7704 -0.0674
11874TIP3    H157113   4.599   5.141  15.961  0.2260 -2.0744  0.1179
11874TIP3    H257114   4.492   5.121  15.856  0.9451 -1.5572 -0.7225
11875TIP3   OH257115   2.680   1.303   1.219 -0.2239  0.0263  0.0984
11875TIP3    H157116   2.767   1.312   1.180  0.3585 -0.2756  1.3129
11875TIP3    H257117   2.686   1.225   1.275 -0.8127  0.8687  1.3658
11876TIP3   OH257118   4.337   6.197   2.979 -0.6001  0.0117 -0.4368
11876TIP3    H157119   4.397   6.209   3.052 -0.0971  2.2777 -1.1871
11876TIP3    H257120   4.322   6.285   2.945 -1.1967 -0.9410 -2.7642
11877TIP3   OH257121   4.456   5.367  12.110 -0.0802 -0.0048  0.5079
11877TIP3    H157122   4.364   5.365  12.136 -0.0170 -0.0406  0.7328
11877TIP3    H257123   4.485   5.276  12.119 -0.2596 -0.1568 -0.4422
11878TIP3   OH257124   1.620   3.714  14.220  0.1741 -0.2909 -0.0970
11878TIP3    H157125   1.617   3.618  14.212  0.3712 -0.3463  0.4565
11878TIP3    H257126   1.695   3.730  14.277  0.4551  0.2229 -0.6120
11879TIP3   OH257127   1.743   6.639   0.560 -0.1366 -0.6025  0.1661
11879TIP3    H157128   1.726   6.653   0.466 -1.4466 -0.2155  0.4574
11879TIP3    H257129   1.831   6.601   0.562  0.4198  0.5505 -1.1416
11880TIP3   OH257130   0.340   3.509  15.961  0.5004  0.2190 -0.3961
11880TIP3    H157131   0.328   3.416  15.980  0.7260  0.8449  3.0352
11880TIP3    H257132   0.435   3.519  15.951  0.8915  0.7111  3.1703
11881TIP3   OH257133   6.365   1.316   5.787 -0.4118  0.1596  0.1896
11881TIP3    H157134   6.377   1.231   5.829  0.6339  0.0468 -0.3224
11881TIP3    H257135   6.425   1.315   5.712 -0.9442  1.0526 -0.2590
11882TIP3   OH257136   3.890   1.603  16.833  0.0705 -0.3586  0.2681
11882TIP3    H157137   3.908   1.525  16.781  0.6245 -0.6835  0.9383
11882TIP3    H257138   3.795   1.601  16.848  0.1122 -0.9927  0.4313
11883TIP3   OH257139   2.603   4.179   4.817  0.1054  0.5954 -0.1153
11883TIP3    H157140   2.616   4.143   4.729  0.5511 -1.0516  0.6043
11883TIP3    H257141   2.592   4.102   4.873  0.5325  1.6005  1.3861
11884TIP3   OH257142   1.033   6.314   3.670  0.7994 -0.1222 -0.1198
11884TIP3    H157143   0.979   6.302   3.592  0.1189 -0.0367  0.3335
11884TIP3    H257144   1.086   6.391   3.651  1.3524 -0.6903 -0.9014
11885TIP3   OH257145   2.479   3.141  13.367 -0.1758  0.6453 -0.2016
11885TIP3    H157146   2.385   3.151  13.349 -0.8495 -2.4406  1.3698
11885TIP3    H257147   2.512   3.231  13.367 -3.4128  1.9245  0.6891
11886TIP3   OH257148   2.600   0.298   4.305 -0.7070  0.5373 -0.3050
11886TIP3    H157149   2.576   0.381   4.263 -0.4542  0.7132 -0.1026
11886TIP3    H257150   2.552   0.231   4.256 -1.0239  0.8180 -0.3791
11887TIP3   OH257151   0.847   4.579  12.320  0.7277  0.0823 -0.3472
11887TIP3    H157152   0.816   4.667  12.341 -0.1471 -0.2037 -0.4072
11887TIP3    H257153   0.822   4.567  12.228  2.4168  0.4347 -0.8713
11888TIP3   OH257154   5.884   4.867   5.843  0.2248  0.4162  0.0285
11888TIP3    H157155   5.978   4.862   5.858  0.0022  0.2031  1.3711
11888TIP3    H257156   5.850   4.910   5.921 -1.0045 -1.0465  0.3079
11889TIP3   OH257157   3.093   6.629   0.820 -0.0910 -0.5239  0.5534
11889TIP3    H157158   3.095   6.546   0.867 -1.0083 -1.2596 -0.6618
11889TIP3    H257159   3.033   6.613   0.747  0.8796  0.7485 -0.5426
11890TIP3   OH257160   5.632   2.713  16.406  0.3249 -0.4090  0.2415
11890TIP3    H157161   5.707   2.721  16.465  2.0329 -1.1295 -1.7842
11890TIP3    H257162   5.606   2.621  16.412  0.4575 -0.4675 -0.0926
11891TIP3   OH257163   5.925   4.394  11.456  0.0201  0.0111  0.2409
11891TIP3    H157164   5.926   4.299  11.457 -0.0146 -0.0248 -1.2445
11891TIP3    H257165   5.968   4.420  11.537 -1.5322 -1.2613  1.5033
11892TIP3   OH257166   3.164   1.957   2.806 -0.3787  0.1776 -0.0839
11892TIP3    H157167   3.141   1.867   2.780  0.7354 -0.0348 -0.3309
11892TIP3    H257168   3.198   1.996   2.726  1.0053  0.2089  0.5190
11893TIP3   OH257169   1.222   2.846  12.237  0.5261  0.7409  0.1626
11893TIP3    H157170   1.194   2.813  12.322  0.2663  0.7840  0.0941
11893TIP3    H257171   1.153   2.818  12.176  1.5402 -0.7380 -0.3333
11894TIP3   OH257172   5.467   5.423  12.064 -0.2146 -0.6773 -0.6377
11894TIP3    H157173   5.554   5.387  12.081 -0.2129  0.4339  1.8212
11894TIP3    H257174   5.414   5.395  12.139 -1.4161  0.4889 -1.0262
11895TIP3   OH257175   1.839   3.879   2.227 -0.0571 -0.0856 -0.6796
11895TIP3    H157176   1.762   3.935   2.239 -1.0653 -1.4702 -0.4918
11895TIP3    H257177   1.807   3.791   2.245  1.3510 -0.8020 -1.5900
11896TIP3   OH257178   4.849   6.328  13.213  0.3375 -0.0769  0.3480
11896TIP3    H157179   4.792   6.405  13.218 -0.9192 -0.9377 -0.4386
11896TIP3    H257180   4.849   6.304  13.121  1.8381 -0.2044  0.3701
11897TIP3   OH257181   3.756   0.405   3.731 -0.0305 -0.3132  0.5760
11897TIP3    H157182   3.757   0.310   3.741  0.1403 -0.2926  0.7552
11897TIP3    H257183   3.831   0.425   3.675  0.6000 -0.1835  1.4514
11898TIP3   OH257184   1.226   5.154   3.542  0.1030  0.0672 -0.2011
11898TIP3    H157185   1.178   5.072   3.529  0.3390 -0.2591  0.8876
11898TIP3    H257186   1.239   5.189   3.454  1.3136 -1.8308 -0.8209
11899TIP3   OH257187   2.158   1.011  12.861  0.6976  0.1732  0.0616
11899TIP3    H157188   2.111   1.090  12.831 -2.3291 -1.1818  1.0355
11899TIP3    H257189   2.182   0.966  12.780  2.7681  2.2175 -0.5220
11900TIP3   OH257190   5.415   1.534  15.107  0.1335 -0.0345 -0.1096
11900TIP3    H157191   5.506   1.552  15.081  0.0734  0.6245  0.1432
11900TIP3    H257192   5.371   1.618  15.101  0.4641  0.4868  3.6491
11901TIP3   OH257193   6.220   2.399  12.527  0.0383 -0.1170  0.1931
11901TIP3    H157194   6.218   2.354  12.612  0.1425 -1.1727 -0.3468
11901TIP3    H257195   6.161   2.473  12.537 -0.7190 -0.8060  0.8679
11902TIP3   OH257196   2.230   6.146  12.042  0.1643 -0.2179  0.1243
11902TIP3    H157197   2.278   6.222  12.010 -2.6252  1.0423 -1.3045
11902TIP3    H257198   2.268   6.126  12.127  1.8541  1.9082 -0.1082
11903TIP3   OH257199   0.061   3.134  10.906 -0.1173 -0.3573  0.0192
11903TIP3    H157200   0.108   3.071  10.851  1.5793  0.5193  0.4045
11903TIP3    H257201   0.086   3.220  10.869  1.0168  0.2415  2.1045
11904TIP3   OH257202   6.526   3.665   0.906  0.0225 -0.3502  0.7377
11904TIP3    H157203   6.434   3.641   0.902  0.4203 -2.0216  1.2424
11904TIP3    H257204   6.569   3.588   0.945  1.8886 -0.3682 -1.2859
11905TIP3   OH257205   5.106   1.209  15.232  0.0716  0.2775 -0.4481
11905TIP3    H157206   5.032   1.244  15.181 -0.2487  0.1485 -0.0694
11905TIP3    H257207   5.183   1.237  15.183 -0.2137  0.8086 -0.5981
11906TIP3   OH257208   3.041   3.722  17.281 -1.3743  0.5203 -0.2062
11906TIP3    H157209   3.052   3.632  17.250  0.1629  0.6626 -0.1423
11906TIP3    H257210   3.003   3.713  17.368  1.0980 -0.2094  0.8571
11907TIP3   OH257211   0.471   1.868  12.102 -0.4010 -0.4382  0.2938
11907TIP3    H157212   0.493   1.961  12.101 -0.4333 -0.4170  1.1198
11907TIP3    H257213   0.533   1.830  12.164  0.4452 -1.1871 -0.9929
11908TIP3   OH257214   0.147   2.842  15.124  0.3185  0.1686 -0.1297
11908TIP3    H157215   0.173   2.756  15.092  1.8331  0.6045 -0.1037
11908TIP3    H257216   0.207   2.861  15.196  0.3001  1.4420 -0.4351
11909TIP3   OH257217   0.074   5.609  13.108 -0.1387 -0.0748 -0.3141
11909TIP3    H157218   0.028   5.562  13.039  0.6783 -2.8726  0.9872
11909TIP3    H257219   0.012   5.609  13.182  0.3330 -0.2047  0.0876
11910TIP3   OH257220   3.340   0.314   3.490 -0.3528  0.3656 -0.1741
11910TIP3    H157221   3.303   0.401   3.479  4.0273  2.1003 -2.7516
11910TIP3    H257222   3.392   0.320   3.570  1.0066  0.5944 -1.0514
11911TIP3   OH257223   0.699   5.071   2.194 -0.4860 -0.4133  0.1919
11911TIP3    H157224   0.794   5.061   2.186 -0.6069 -0.6277 -1.1685
11911TIP3    H257225   0.668   4.986   2.223 -0.3242 -0.5333  0.0117
11912TIP3   OH257226   2.127   1.081   2.179 -0.2709  0.0972  0.1668
11912TIP3    H157227   2.045   1.067   2.226  0.4961  0.9196  1.7833
11912TIP3    H257228   2.107   1.151   2.116 -0.8602  0.1346  0.3936
11913TIP3   OH257229   4.570   1.365   1.441  0.5160  0.0580  0.0028
11913TIP3    H157230   4.531   1.288   1.483  0.7992 -0.3106 -0.4022
11913TIP3    H257231   4.578   1.340   1.349 -0.0501  0.8333 -0.2702
11914TIP3   OH257232   5.186   6.524  16.422 -0.1105  0.0083 -0.0903
11914TIP3    H157233   5.101   6.523  16.466 -0.9297  1.3774 -1.5890
11914TIP3    H257234   5.198   6.434  16.389 -1.3881  0.0224 -0.6126
11915TIP3   OH257235   1.614   5.277  15.707  0.2100  0.0126 -0.3044
11915TIP3    H157236   1.536   5.227  15.730  0.0681  0.8335  1.0023
11915TIP3    H257237   1.645   5.314  15.789  2.0198 -0.3449 -0.7963
11916TIP3   OH257238   2.742   2.853  15.697  0.1844 -0.1526 -0.1173
11916TIP3    H157239   2.719   2.787  15.632  0.6391 -1.1918  0.7622
11916TIP3    H257240   2.657   2.889  15.725 -0.1216 -0.8776 -0.0822
11917TIP3   OH257241   5.336   2.039  16.218  0.6701  0.6295 -0.3221
11917TIP3    H157242   5.259   2.095  16.224  1.8981  2.1330  2.3533
11917TIP3    H257243   5.334   1.986  16.297  0.9360 -1.3261 -1.5705
11918TIP3   OH257244   4.322   1.807   3.936 -0.1972 -0.3581 -0.1482
11918TIP3    H157245   4.315   1.801   3.841  1.0906 -1.2143 -0.1976
11918TIP3    H257246   4.384   1.739   3.960  0.8314  0.9961  1.1324
11919TIP3   OH257247   0.734   2.535   4.432  0.2447 -0.2400  0.2668
11919TIP3    H157248   0.657   2.544   4.376  0.8501 -0.8431 -0.6692
11919TIP3    H257249   0.793   2.477   4.383  0.5313 -1.2497  1.7729
11920TIP3   OH257250   1.929   1.133  15.012  0.3525  0.4499  0.5698
11920TIP3    H157251   1.926   1.183  14.931  0.8832  0.7370  0.7249
11920TIP3    H257252   1.883   1.187  15.076  0.1875  0.3567  0.5289
11921TIP3   OH257253   4.895   5.637  15.138 -0.1127 -0.5026  0.1467
11921TIP3    H157254   4.849   5.705  15.187  0.0505  0.2574 -0.7460
11921TIP3    H257255   4.861   5.644  15.049  1.4733 -0.1727 -0.4401
11922TIP3   OH257256   0.678   0.255  12.197 -0.2288  0.0628 -0.0936
11922TIP3    H157257   0.767   0.280  12.220  0.0885  0.2992 -1.5548
11922TIP3    H257258   0.653   0.191  12.264  1.2773 -0.5164 -0.0653
11923TIP3   OH257259   2.700   4.552  12.278  0.0483 -0.0822  0.0739
11923TIP3    H157260   2.753   4.478  12.308 -0.4082 -0.6814 -0.5643
11923TIP3    H257261   2.614   4.537  12.316  0.3957  1.0301  1.3277
11924TIP3   OH257262   5.040   4.506  12.369  0.4979 -0.3146  0.0163
11924TIP3    H157263   5.023   4.465  12.454  0.4185 -1.0036 -0.3266
11924TIP3    H257264   5.122   4.468  12.340  0.6940  0.1717 -0.0665
11925TIP3   OH257265   4.136   4.194   2.455 -0.3549 -0.0403  0.4509
11925TIP3    H157266   4.224   4.202   2.418 -0.1359  1.1200  1.1638
11925TIP3    H257267   4.081   4.167   2.382  0.1084  1.9638 -0.6814
11926TIP3   OH257268   0.399   6.011  16.187 -0.3296  0.1488 -0.1659
11926TIP3    H157269   0.310   6.041  16.171 -0.0519  0.7239 -0.6313
11926TIP3    H257270   0.392   5.916  16.194 -0.8972  0.1540 -0.7094
11927TIP3   OH257271   2.642   3.862  14.833  0.1638 -0.1058 -0.0643
11927TIP3    H157272   2.568   3.830  14.782  0.4644  0.5996 -0.9565
11927TIP3    H257273   2.661   3.949  14.797 -1.2517  1.5263  2.9648
11928TIP3   OH257274   1.634   4.646  13.739  0.2890  0.4829  0.0769
11928TIP3    H157275   1.616   4.599  13.657  1.0603  0.8990 -0.3349
11928TIP3    H257276   1.547   4.662  13.776 -0.1579  1.3927 -1.2870
11929TIP3   OH257277   5.700   6.775  16.840 -0.3901 -0.5933  0.1811
11929TIP3    H157278   5.608   6.784  16.862  0.4039  4.0317  2.2343
11929TIP3    H257279   5.746   6.827  16.906  3.4668 -0.5859 -2.3191
11930TIP3   OH257280   6.353   5.511   0.284  0.1159 -0.0281  0.5249
11930TIP3    H157281   6.340   5.416   0.285 -1.0260  0.1094 -0.0685
11930TIP3    H257282   6.441   5.524   0.320  2.0667 -1.5717 -3.4042
11931TIP3   OH257283   4.552   4.023   3.728  0.5583  0.8923  0.0101
11931TIP3    H157284   4.570   4.068   3.810 -1.9550 -1.8638  2.2199
11931TIP3    H257285   4.623   3.960   3.719  0.7891  1.1362  0.1117
11932TIP3   OH257286   0.503   4.014   1.142 -0.0831 -0.0205 -0.3074
11932TIP3    H157287   0.466   3.932   1.174 -1.7457  1.2168  1.0912
11932TIP3    H257288   0.523   4.063   1.221 -0.2845  1.4132 -1.1272
11933TIP3   OH257289   0.522   5.118  15.004 -0.2721  0.3383 -0.3693
11933TIP3    H157290   0.544   5.026  15.020  0.1084  0.3608 -0.7293
11933TIP3    H257291   0.607   5.161  14.995 -0.4228  1.0107  1.2800
11934TIP3   OH257292   6.101   1.323  13.665  0.3378  0.1805 -0.1816
11934TIP3    H157293   6.166   1.282  13.722  0.6736  0.0792 -0.6360
11934TIP3    H257294   6.044   1.251  13.639 -1.3795  0.6546  2.0992
11935TIP3   OH257295   5.809   0.726  12.743  0.1309 -0.2581  0.0761
11935TIP3    H157296   5.820   0.674  12.664 -0.3259 -0.1683 -0.0510
11935TIP3    H257297   5.788   0.814  12.711  1.1530  0.0596  0.2902
11936TIP3   OH257298   2.458   1.244   1.948  0.1321 -0.4991 -0.7506
11936TIP3    H157299   2.367   1.228   1.926  0.1394 -1.6643 -0.0173
11936TIP3    H257300   2.507   1.208   1.874 -0.0217  0.6045 -1.3869
11937TIP3   OH257301   2.941   4.165  14.815  0.0732 -0.3807  0.1115
11937TIP3    H157302   3.017   4.139  14.763  0.0751  1.7297 -1.0443
11937TIP3    H257303   2.868   4.162  14.753 -0.3482 -0.0974  0.5889
11938TIP3   OH257304   4.252   3.332  13.614 -0.3329  0.0394 -0.4170
11938TIP3    H157305   4.346   3.343  13.600 -0.3179 -0.2660 -0.5352
11938TIP3    H257306   4.211   3.373  13.538 -0.2761 -0.6547 -0.8199
11939TIP3   OH257307   0.659   6.410   6.157  0.0380 -0.2379  0.1619
11939TIP3    H157308   0.695   6.469   6.223  1.6538  0.2140 -1.0867
11939TIP3    H257309   0.577   6.378   6.195 -0.2107  1.7939  1.3975
11940TIP3   OH257310   4.662   5.199  15.189 -0.6998  0.1441  0.5428
11940TIP3    H157311   4.742   5.249  15.210 -0.2783  0.0768 -0.8665
11940TIP3    H257312   4.600   5.224  15.258  0.6408 -0.0627  1.8581
11941TIP3   OH257313   2.185   0.436   4.522 -0.4300  0.8457 -0.0759
11941TIP3    H157314   2.239   0.505   4.484 -1.2660  1.9966  0.8007
11941TIP3    H257315   2.233   0.409   4.601 -0.8451  1.4833  0.4009
11942TIP3   OH257316   6.171   4.422  14.901  0.3658 -0.1104 -0.1551
11942TIP3    H157317   6.164   4.446  14.809  1.4545  0.1634 -0.1751
11942TIP3    H257318   6.187   4.327  14.901 -2.0152 -0.5366 -0.1466
11943TIP3   OH257319   1.158   2.778   0.687  0.2871  0.1395  0.4691
11943TIP3    H157320   1.083   2.828   0.655  0.4042 -0.3870 -0.6870
11943TIP3    H257321   1.210   2.759   0.608  0.7324 -0.9702  1.0077
11944TIP3   OH257322   5.602   2.850  12.461 -0.4906 -0.0333  0.2740
11944TIP3    H157323   5.610   2.761  12.426  0.6861 -0.2973  1.1699
11944TIP3    H257324   5.599   2.838  12.556  0.2676  0.9069  0.4324
11945TIP3   OH257325   2.873   1.388   3.047 -0.0433  0.9708  0.8534
11945TIP3    H157326   2.814   1.412   3.118 -0.1536  1.3074  0.6489
11945TIP3    H257327   2.822   1.402   2.967  0.0069  0.3814  0.7188
11946TIP3   OH257328   3.417   1.091  16.518 -0.2446  0.0252 -0.5767
11946TIP3    H157329   3.504   1.086  16.478 -0.4985  0.0909 -1.1442
11946TIP3    H257330   3.413   1.016  16.577  0.3724  0.2871 -0.1996
11947TIP3   OH257331   5.187   5.346   0.589 -0.3775  0.0418 -0.5166
11947TIP3    H157332   5.113   5.294   0.559 -1.4383  2.0721 -1.5596
11947TIP3    H257333   5.223   5.297   0.663 -3.1108 -0.7142  0.3639
11948TIP3   OH257334   4.725   3.338  15.886  0.2292 -0.5502 -0.1230
11948TIP3    H157335   4.724   3.383  15.801  0.2147 -0.5406 -0.1173
11948TIP3    H257336   4.648   3.282  15.884 -0.3081  0.1656  0.2737
11949TIP3   OH257337   0.074   4.254  17.065 -0.3022 -0.0215 -0.2502
11949TIP3    H157338   0.033   4.190  17.124  1.1337  1.1108  2.0787
11949TIP3    H257339   0.163   4.219  17.051 -0.3837  0.1168 -1.1160
11950TIP3   OH257340   5.595   0.381  14.139  0.2626  0.1479 -0.2957
11950TIP3    H157341   5.628   0.420  14.220 -2.7217 -0.8368  1.4470
11950TIP3    H257342   5.637   0.295  14.135  1.1274  0.5625 -0.3083
11951TIP3   OH257343   2.162   2.674  11.252  0.5713 -0.2235  0.0558
11951TIP3    H157344   2.160   2.595  11.199 -0.6931 -0.9398  1.1300
11951TIP3    H257345   2.217   2.735  11.203  0.1486 -1.1654 -1.6180
11952TIP3   OH257346   5.001   5.319   0.898  0.0064 -0.1020  0.0394
11952TIP3    H157347   4.985   5.389   0.961 -0.0271 -1.3876  1.4891
11952TIP3    H257348   5.092   5.294   0.912  0.1627 -0.0209 -0.8124
11953TIP3   OH257349   0.236   6.049  13.117 -0.3238 -0.1913 -0.2349
11953TIP3    H157350   0.225   6.140  13.087 -0.2015 -0.4197 -0.9765
11953TIP3    H257351   0.329   6.042  13.137 -0.1593 -0.4302 -1.0838
11954TIP3   OH257352   5.674   2.634  15.224  0.2154  0.5345 -0.3588
11954TIP3    H157353   5.683   2.542  15.199  0.8557  0.8275 -1.2162
11954TIP3    H257354   5.764   2.668  15.223 -0.0871  1.3323 -0.6802
11955TIP3   OH257355   6.632   4.361  16.048  0.6751 -0.6866 -0.4694
11955TIP3    H157356   6.638   4.267  16.036  0.5657 -0.6337 -0.9776
11955TIP3    H257357   6.717   4.386  16.084  1.1944 -0.8055 -1.5887
11956TIP3   OH257358   4.854   5.947   4.513  0.2912 -0.2214 -0.1439
11956TIP3    H157359   4.925   5.912   4.567 -0.5646 -1.2597  0.3488
11956TIP3    H257360   4.785   5.970   4.576 -0.6311 -1.2376 -0.7499
11957TIP3   OH257361   4.340   3.101  11.732  0.9446 -0.0430 -0.0578
11957TIP3    H157362   4.349   3.132  11.822 -1.1984  3.5286 -0.9971
11957TIP3    H257363   4.245   3.088  11.721  1.0535  0.8165 -2.1644
11958TIP3   OH257364   4.453   5.800   4.461 -0.0171  0.6623 -0.7378
11958TIP3    H157365   4.541   5.766   4.444 -0.4004 -0.2447 -0.9361
11958TIP3    H257366   4.406   5.786   4.379 -0.9318 -0.7423  0.0098
11959TIP3   OH257367   3.443   6.345  13.890  0.0525  0.5955 -0.0856
11959TIP3    H157368   3.517   6.403  13.878  0.8545 -0.8254 -2.2836
11959TIP3    H257369   3.480   6.266  13.930 -0.9056  1.2833  2.2305
11960TIP3   OH257370   5.456   5.965   5.446  0.8596 -0.1455  0.2981
11960TIP3    H157371   5.551   5.960   5.457  0.8662 -1.1708 -0.1460
11960TIP3    H257372   5.423   5.991   5.532  1.5017 -0.3705  0.6169
11961TIP3   OH257373   2.490   0.504   3.208 -0.0696  0.6550  0.4507
11961TIP3    H157374   2.401   0.468   3.211  0.3974 -0.4391  1.3943
11961TIP3    H257375   2.478   0.599   3.219 -1.3062  0.8451 -2.0235
11962TIP3   OH257376   0.790   2.090  11.587 -0.4394 -0.5113 -0.4879
11962TIP3    H157377   0.722   2.135  11.636  0.5650 -1.3109  1.7482
11962TIP3    H257378   0.747   2.060  11.507 -2.5076 -0.3111  0.5105
11963TIP3   OH257379   2.158   0.251   2.504  0.5054 -0.4495  0.3177
11963TIP3    H157380   2.118   0.307   2.569 -0.7479 -1.0663  0.0894
11963TIP3    H257381   2.218   0.309   2.456 -0.9249  0.7443 -0.0613
11964TIP3   OH257382   6.108   2.093   4.975  0.1232 -0.5454 -0.4777
11964TIP3    H157383   6.185   2.058   4.931  0.2347  0.4870 -1.1370
11964TIP3    H257384   6.112   2.188   4.958 -0.4774 -0.2900  0.7513
11965TIP3   OH257385   4.616   4.301   1.741 -0.1566 -0.4087  0.1841
11965TIP3    H157386   4.591   4.215   1.706 -0.3990 -0.4750  0.5154
11965TIP3    H257387   4.686   4.282   1.803 -0.5785 -0.4288  0.6602
11966TIP3   OH257388   0.929   6.762  12.080 -0.7737 -0.0300 -0.0614
11966TIP3    H157389   0.948   6.855  12.069 -0.0388 -0.1921 -0.1858
11966TIP3    H257390   0.910   6.731  11.992  2.3851 -0.7284 -0.5827
11967TIP3   OH257391   5.576   1.424  11.784  0.1763 -0.2168  0.3356
11967TIP3    H157392   5.614   1.337  11.768 -0.3807 -0.6415  1.2636
11967TIP3    H257393   5.517   1.438  11.711 -0.9025 -1.3063  0.9689
11968TIP3   OH257394   4.665   4.286  15.185 -0.1731  0.3370 -0.9528
11968TIP3    H157395   4.678   4.351  15.116  0.5697  1.1419 -0.0775
11968TIP3    H257396   4.731   4.218  15.167 -1.1997 -0.3678 -2.0852
11969TIP3   OH257397   5.257   5.385  13.748 -0.4565 -0.0413  0.8770
11969TIP3    H157398   5.290   5.295  13.747 -1.0809 -0.2657  0.1419
11969TIP3    H257399   5.167   5.378  13.779 -0.0225  0.5027  2.2910
11970TIP3   OH257400   4.187   3.793   2.913 -0.5401  0.2056  0.3682
11970TIP3    H157401   4.220   3.732   2.847  0.9100  0.5291  0.7955
11970TIP3    H257402   4.259   3.853   2.930 -1.8207  1.8333  0.2301
11971TIP3   OH257403   2.208   5.673  11.478  0.7805 -0.2815 -0.0633
11971TIP3    H157404   2.207   5.580  11.457 -0.6504 -0.4112  0.5484
11971TIP3    H257405   2.143   5.683  11.547 -0.9380  1.5662 -1.8524
11972TIP3   OH257406   5.109   3.999  12.911 -0.5665  0.0415 -0.1661
11972TIP3    H157407   5.180   3.944  12.944  0.1611 -1.0186 -3.2517
11972TIP3    H257408   5.030   3.964  12.951  0.4632  0.3450  2.2320
11973TIP3   OH257409   3.685   6.224   3.688  0.1232 -0.8437  0.0278
11973TIP3    H157410   3.780   6.215   3.690 -0.0762 -3.3109  0.8657
11973TIP3    H257411   3.664   6.283   3.760  1.0986  0.8367 -1.0423
11974TIP3   OH257412   3.244   3.822  16.934  0.4107  0.0821  0.3344
11974TIP3    H157413   3.240   3.864  17.020 -0.2032 -0.3120  0.4997
11974TIP3    H257414   3.176   3.754  16.937 -1.8018  2.1122 -1.5247
11975TIP3   OH257415   3.395   4.484   4.206  0.1952 -0.1898  0.1836
11975TIP3    H157416   3.407   4.543   4.280 -2.3002  1.9941 -1.0683
11975TIP3    H257417   3.316   4.434   4.228 -0.4302  0.3182 -0.8419
11976TIP3   OH257418   1.409   5.160   6.305  0.6761  0.3858  0.1371
11976TIP3    H157419   1.485   5.211   6.334 -0.0034  0.2904  2.1586
11976TIP3    H257420   1.348   5.226   6.272  1.1249  0.5787 -0.3172
11977TIP3   OH257421   5.296   3.168  10.438  0.3340  0.2714 -0.7403
11977TIP3    H157422   5.225   3.223  10.406 -0.4190 -0.7606 -0.8557
11977TIP3    H257423   5.253   3.100  10.490  1.2343 -0.3196 -0.7424
11978TIP3   OH257424   2.185   2.213   5.202 -0.5369 -0.0190 -0.4601
11978TIP3    H157425   2.248   2.239   5.269 -2.1468  0.8203  0.7721
11978TIP3    H257426   2.234   2.155   5.144  1.1620  0.0261  0.8856
11979TIP3   OH257427   3.261   0.801  14.719  0.1120 -0.3960  0.3935
11979TIP3    H157428   3.283   0.721  14.671 -0.4832 -1.2262  1.4620
11979TIP3    H257429   3.294   0.785  14.808  0.3422  0.7188  0.5156
11980TIP3   OH257430   2.404   5.560   0.216 -0.4654  0.9055  0.1123
11980TIP3    H157431   2.329   5.501   0.213  1.0164 -1.0518 -0.0182
11980TIP3    H257432   2.410   5.596   0.128 -1.3754  1.2456  0.1857
11981TIP3   OH257433   1.378   6.274  13.893  0.3199 -0.1239  0.4261
11981TIP3    H157434   1.339   6.187  13.895 -2.1256  0.9102 -0.2249
11981TIP3    H257435   1.422   6.280  13.809  2.0333 -1.3530  1.2173
11982TIP3   OH257436   6.541   4.685  13.317 -0.1778  0.3735 -0.1485
11982TIP3    H157437   6.614   4.669  13.378 -1.6230 -0.1051  1.5039
11982TIP3    H257438   6.479   4.736  13.368 -1.2177  0.3606 -1.3901
11983TIP3   OH257439   6.726   5.139   4.982  0.0274  0.0107  0.2166
11983TIP3    H157440   6.670   5.145   4.905 -1.2725  0.1091  1.1697
11983TIP3    H257441   6.793   5.206   4.968 -1.4198  1.4623  0.1837
11984TIP3   OH257442   0.731   3.488   0.527  0.2755 -0.0212  0.2008
11984TIP3    H157443   0.810   3.518   0.483  0.0159  1.0544  0.4346
11984TIP3    H257444   0.660   3.512   0.467  0.1460 -1.2277 -0.1328
11985TIP3   OH257445   2.651   6.324   0.264  0.0583 -0.3075  0.4181
11985TIP3    H157446   2.692   6.410   0.259  2.0194 -1.3158 -1.7241
11985TIP3    H257447   2.585   6.325   0.194  0.6214 -0.7913 -0.1286
11986TIP3   OH257448   4.999   4.217   5.670  0.3063 -0.0970 -0.0677
11986TIP3    H157449   5.075   4.198   5.616  1.2686  0.6609  0.9951
11986TIP3    H257450   5.018   4.174   5.754  0.4857  1.7218  0.8590
11987TIP3   OH257451   3.673   3.916  14.784  0.3264  0.0057 -0.1629
11987TIP3    H157452   3.578   3.914  14.800  0.4935  1.0302  0.9967
11987TIP3    H257453   3.689   3.840  14.729 -1.5616  1.2311 -2.5153
11988TIP3   OH257454   2.872   4.172  12.758  0.3754 -0.0554  0.0238
11988TIP3    H157455   2.886   4.233  12.830 -0.1574  1.3570 -1.0338
11988TIP3    H257456   2.959   4.141  12.735  0.9983  2.5092 -1.2686
11989TIP3   OH257457   2.792   0.644   3.982 -0.6099 -0.2931  0.7030
11989TIP3    H157458   2.814   0.707   4.051 -0.3198  0.7693 -0.3331
11989TIP3    H257459   2.791   0.697   3.902 -0.8808 -1.5224 -0.1097
11990TIP3   OH257460   0.035   5.452   3.027  0.1744 -0.1822 -0.4477
11990TIP3    H157461   0.022   5.384   2.961 -1.6678  0.2689 -0.5635
11990TIP3    H257462   0.030   5.405   3.111 -0.5640 -0.2687 -0.5404
11991TIP3   OH257463   2.429   6.531   5.172  0.6600 -0.6176 -0.1304
11991TIP3    H157464   2.485   6.469   5.220  0.8825 -1.4845 -1.4752
11991TIP3    H257465   2.489   6.599   5.143  0.9329 -1.2237 -1.0306
11992TIP3   OH257466   1.784   0.590   0.709  0.6745 -0.5378 -0.7216
11992TIP3    H157467   1.694   0.606   0.739  0.6367  0.8251 -1.5520
11992TIP3    H257468   1.837   0.598   0.789  0.3096  0.8116 -0.6012
11993TIP3   OH257469   3.204   1.619   3.542 -0.3417 -0.1577 -0.2345
11993TIP3    H157470   3.254   1.700   3.554 -0.3418  0.0959 -1.7560
11993TIP3    H257471   3.116   1.649   3.521 -0.6360 -0.5730  0.4174
11994TIP3   OH257472   4.573   6.736  10.724 -0.2520  0.2351 -0.3772
11994TIP3    H157473   4.525   6.819  10.725  1.2883  1.1625 -1.5449
11994TIP3    H257474   4.541   6.691  10.646  0.9716  0.9777 -1.3119
11995TIP3   OH257475   5.387   2.725   4.335 -0.0130  0.0849 -0.0783
11995TIP3    H157476   5.310   2.760   4.291 -1.1837 -0.8417  1.1829
11995TIP3    H257477   5.389   2.769   4.420 -0.4608 -1.5095  0.7873
11996TIP3   OH257478   1.288   1.242  11.017 -0.0870  0.0156  0.1183
11996TIP3    H157479   1.217   1.305  11.033 -0.0482  0.7945 -2.5140
11996TIP3    H257480   1.244   1.159  11.000 -0.2976  0.1053  0.2271
11997TIP3   OH257481   5.976   1.464   0.863 -0.2789 -0.3578 -0.4192
11997TIP3    H157482   6.023   1.381   0.862 -0.6370 -0.5571 -0.6668
11997TIP3    H257483   5.965   1.487   0.771  2.3527  1.3929 -0.3542
11998TIP3   OH257484   4.036   5.267   0.188  0.0177 -0.4047  0.1864
11998TIP3    H157485   3.991   5.184   0.174 -0.6045 -0.2117  1.0295
11998TIP3    H257486   4.013   5.320   0.112  0.6744 -1.1130 -0.5112
11999TIP3   OH257487   3.519   0.350   1.693 -0.4787 -0.0285 -0.1252
11999TIP3    H157488   3.491   0.436   1.725 -1.0238 -0.3949  0.4039
11999TIP3    H257489   3.491   0.349   1.601 -3.2170 -0.7904  0.6691
12000TIP3   OH257490   0.906   3.458   2.442  0.3731 -0.0335 -0.0512
12000TIP3    H157491   0.995   3.491   2.429  0.1676  0.4355 -0.2795
12000TIP3    H257492   0.853   3.505   2.378 -0.0512 -0.2722  0.1200
12001TIP3   OH257493   0.438   5.436  12.669 -0.3748  0.3683  0.0648
12001TIP3    H157494   0.449   5.436  12.764 -3.3864  0.9679  0.4403
12001TIP3    H257495   0.345   5.450  12.654 -0.2086 -1.1155 -2.9809
12002TIP3   OH257496   2.908   3.010  11.538 -0.0839  0.0445  0.2528
12002TIP3    H157497   2.979   3.045  11.592 -1.6828  0.5162  2.1194
12002TIP3    H257498   2.924   2.916  11.535  0.0832  0.0163  1.5295
12003TIP3   OH257499   1.338   3.220   1.126  0.0768  0.0736  0.2999
12003TIP3    H157500   1.266   3.270   1.166 -1.3248 -1.4632 -0.2189
12003TIP3    H257501   1.336   3.245   1.034  2.4724  2.6327  0.8841
12004TIP3   OH257502   5.378   0.210   2.269 -0.2187  0.1081 -0.3634
12004TIP3    H157503   5.391   0.269   2.344  0.3968 -0.8815  0.3147
12004TIP3    H257504   5.361   0.269   2.195  0.7657  1.1621  0.2289
12005TIP3   OH257505   6.408   1.720   3.480  0.2573  0.5506 -0.7854
12005TIP3    H157506   6.473   1.767   3.427  1.9933 -1.3340 -0.3789
12005TIP3    H257507   6.392   1.639   3.431 -0.4465  0.2011  0.0155
12006TIP3   OH257508   2.894   1.778  13.142 -0.0751 -0.0222 -0.0403
12006TIP3    H157509   2.849   1.721  13.205 -0.2483 -0.4021 -0.5051
12006TIP3    H257510   2.825   1.806  13.082  0.2309 -0.2612 -0.5026
12007TIP3   OH257511   6.012   1.615  15.349  0.1758  0.4424  0.0939
12007TIP3    H157512   6.033   1.658  15.431 -1.7500  0.0271  0.8407
12007TIP3    H257513   5.981   1.685  15.292  0.9547  0.6452 -0.0789
12008TIP3   OH257514   3.707   2.371   0.099 -0.4673 -0.0423 -0.3470
12008TIP3    H157515   3.651   2.324   0.036 -0.2651 -0.9801  0.1593
12008TIP3    H257516   3.677   2.341   0.185 -1.6072  2.2246  0.0739
12009TIP3   OH257517   5.472   0.598   4.066 -0.0123  0.4710  0.1566
12009TIP3    H157518   5.428   0.678   4.096 -0.0087  0.3448  0.5038
12009TIP3    H257519   5.401   0.535   4.053 -0.0826  0.7377 -0.7860
12010TIP3   OH257520   0.213   0.614   0.355 -0.3264 -0.5323  0.7714
12010TIP3    H157521   0.257   0.697   0.341  0.5097 -0.9362  0.9649
12010TIP3    H257522   0.124   0.638   0.380  0.2115  0.3361  1.9277
12011TIP3   OH257523   5.389   1.762  12.308 -0.5465  0.0580 -0.1895
12011TIP3    H157524   5.416   1.674  12.284 -1.1160  0.2797 -1.7086
12011TIP3    H257525   5.302   1.750  12.348 -1.0352  0.0240 -1.2549
12012TIP3   OH257526   0.584   1.144   3.034  1.0381  0.0665  0.0310
12012TIP3    H157527   0.652   1.077   3.042  0.8273 -0.0774  0.6786
12012TIP3    H257528   0.510   1.109   3.082  1.1636  1.0670  0.9971
12013TIP3   OH257529   5.644   0.966  12.010 -0.0128 -0.0774  0.3080
12013TIP3    H157530   5.562   0.977  12.058 -0.7640  1.0554 -1.1817
12013TIP3    H257531   5.660   0.872  12.011 -1.4178 -0.3210  0.4927
12014TIP3   OH257532   6.095   6.521   1.045  0.0271 -0.1897  0.5100
12014TIP3    H157533   6.158   6.593   1.040  0.6684 -0.7910 -0.2057
12014TIP3    H257534   6.028   6.544   0.981  0.4164 -0.3921  0.0191
12015TIP3   OH257535   3.800   2.886   4.504  0.4691  0.7007 -0.2894
12015TIP3    H157536   3.748   2.806   4.509  3.1243 -1.0981 -0.8491
12015TIP3    H257537   3.734   2.956   4.500 -1.9007 -1.4512 -0.5324
12016TIP3   OH257538   0.295   1.488   0.210  0.3260  0.3519 -0.3300
12016TIP3    H157539   0.357   1.491   0.283 -1.2955  0.4016  1.0526
12016TIP3    H257540   0.341   1.437   0.143  1.8779  0.4069  0.6547
12017TIP3   OH257541   4.887   3.198   5.935 -0.2405  0.6478 -0.1953
12017TIP3    H157542   4.890   3.106   5.908 -1.1635  0.1796  1.2366
12017TIP3    H257543   4.816   3.236   5.884  0.8887  0.8533 -1.6267
12018TIP3   OH257544   6.054   1.117  13.404  0.9086 -0.3154  0.0245
12018TIP3    H157545   6.074   1.023  13.406 -2.0485 -0.9881  0.1264
12018TIP3    H257546   6.029   1.138  13.494 -0.9242 -0.0228 -0.5415
12019TIP3   OH257547   0.454   6.409  11.658 -0.0396 -0.2958 -0.5474
12019TIP3    H157548   0.412   6.331  11.622 -1.8393  0.5822 -0.4035
12019TIP3    H257549   0.419   6.481  11.606  0.5718  0.5548  0.2032
12020TIP3   OH257550   2.730   3.243   1.998  0.7082  0.7906 -0.1537
12020TIP3    H157551   2.782   3.271   2.074 -0.6257 -0.0450  1.0959
12020TIP3    H257552   2.723   3.321   1.944  0.7909  1.6926  1.1044
12021TIP3   OH257553   4.530   0.890  16.070  0.2665  0.1300 -0.3442
12021TIP3    H157554   4.445   0.891  16.114  0.2265  0.0027 -0.4185
12021TIP3    H257555   4.575   0.814  16.107  1.0083  1.1756  0.9436
12022TIP3   OH257556   0.021   3.295   4.770  0.3033  0.3527  0.1786
12022TIP3    H157557   0.088   3.342   4.820  0.6261  1.3404 -1.1221
12022TIP3    H257558  -0.055   3.290   4.828  0.8046  1.0874  0.9030
12023TIP3   OH257559   6.541   4.244  17.219 -0.3328  0.3634  0.2688
12023TIP3    H157560   6.466   4.236  17.278 -0.4717 -0.9395 -0.0770
12023TIP3    H257561   6.504   4.239  17.131  0.3348 -2.1015  0.1015
12024TIP3   OH257562   2.950   0.919  17.150  1.0156 -0.0002 -0.2246
12024TIP3    H157563   2.902   0.844  17.183  0.8648  0.0497 -0.3311
12024TIP3    H257564   3.036   0.914  17.193  0.5347  0.5413  0.8173
12025TIP3   OH257565   6.017   3.799   4.201 -0.8185 -0.0635 -0.1727
12025TIP3    H157566   6.036   3.737   4.271 -0.0079 -0.0498 -0.3767
12025TIP3    H257567   5.935   3.769   4.164 -0.7244 -0.6759  0.1059
12026TIP3   OH257568   0.087   4.991   1.697 -0.3134  0.1649 -0.0322
12026TIP3    H157569   0.096   4.900   1.726  2.8917  0.9397  1.6163
12026TIP3    H257570   0.098   5.043   1.777  0.1284  2.0747 -1.3048
12027TIP3   OH257571   4.003   4.773   4.107  0.2765  0.1064  0.3009
12027TIP3    H157572   3.983   4.783   4.014  0.2592 -1.2615  0.1434
12027TIP3    H257573   4.069   4.840   4.124  1.7077 -0.8604 -1.1734
12028TIP3   OH257574   0.352   5.628  15.956  0.6717  0.2860 -0.0365
12028TIP3    H157575   0.313   5.640  16.042  1.6986  1.4677  0.2960
12028TIP3    H257576   0.437   5.588  15.974 -0.1041 -1.7050 -0.6980
12029TIP3   OH257577   3.907   3.876  17.285 -0.6511  0.2328 -0.3124
12029TIP3    H157578   3.932   3.900  17.374 -1.1072  0.1549 -0.1619
12029TIP3    H257579   3.903   3.960  17.238  1.3820  0.1046 -0.7278
12030TIP3   OH257580   4.565   1.461  16.717  0.8537 -0.0445  0.6743
12030TIP3    H157581   4.652   1.501  16.711  1.1151 -0.6278  0.5524
12030TIP3    H257582   4.517   1.518  16.778  0.6534  1.4478 -0.8510
12031TIP3   OH257583   0.847   1.058  16.606 -0.0423  0.2939  0.5757
12031TIP3    H157584   0.763   1.023  16.634  0.4700 -0.9348  0.5956
12031TIP3    H257585   0.846   1.149  16.636 -0.5134 -0.2976  2.4111
12032TIP3   OH257586   5.788   6.380  12.278  0.2272 -0.1157 -0.1404
12032TIP3    H157587   5.802   6.407  12.187 -0.1424 -0.0616 -0.1829
12032TIP3    H257588   5.716   6.318  12.274  0.5587 -0.5135  0.0526
12033TIP3   OH257589   5.290   2.337   1.981 -0.1371 -0.9215 -0.5158
12033TIP3    H157590   5.353   2.371   1.918 -0.0975  1.4528  0.7521
12033TIP3    H257591   5.343   2.313   2.057 -0.5953 -0.2077  0.0349
12034TIP3   OH257592   0.730   2.241  15.292  0.1438 -0.6218  0.5681
12034TIP3    H157593   0.765   2.296  15.362  1.7989 -1.6169  0.5614
12034TIP3    H257594   0.783   2.261  15.216 -1.3782  0.1441 -0.3210
12035TIP3   OH257595   4.858   2.039   3.732 -0.3984  0.4882  0.0928
12035TIP3    H157596   4.948   2.027   3.702 -1.1588  0.0684 -2.1021
12035TIP3    H257597   4.866   2.084   3.816  1.9533 -1.5644  1.0433
12036TIP3   OH257598   5.981   6.682  15.218  0.2099 -0.1250  0.0597
12036TIP3    H157599   5.986   6.652  15.308  2.0023  1.9413  0.6970
12036TIP3    H257600   6.072   6.690  15.190 -0.1830  3.3886 -0.4693
12037TIP3   OH257601   0.943   5.089  15.943 -0.4499 -0.2667  0.0117
12037TIP3    H157602   1.017   5.114  15.998 -0.2713  1.4226 -0.9633
12037TIP3    H257603   0.983   5.052  15.865 -0.6180  0.8624 -0.6161
12038TIP3   OH257604   0.281   0.888   4.026  0.0879 -0.4818  0.1391
12038TIP3    H157605   0.230   0.933   4.094  0.4350 -2.1112  1.5286
12038TIP3    H257606   0.217   0.834   3.980  0.2507 -1.2762  0.8197
12039TIP3   OH257607   6.233   1.507   3.035 -0.5658 -0.3123 -0.4543
12039TIP3    H157608   6.169   1.472   2.973 -0.4677 -1.7686  0.2533
12039TIP3    H257609   6.318   1.485   2.995 -0.4967 -1.7506  0.4371
12040TIP3   OH257610   4.117   4.693  13.126 -0.5934 -0.2247  0.0331
12040TIP3    H157611   4.174   4.761  13.089 -1.2552  0.5396  0.4027
12040TIP3    H257612   4.143   4.613  13.081  0.8152  0.1000  0.2209
12041TIP3   OH257613   6.105   1.382  16.557 -0.0981 -0.5066 -0.0582
12041TIP3    H157614   6.043   1.396  16.629 -1.6760 -0.3659 -1.4146
12041TIP3    H257615   6.129   1.290  16.563  2.4622  0.2669  2.7190
12042TIP3   OH257616   1.914   0.302  15.900 -0.5595 -0.2690  0.1532
12042TIP3    H157617   1.851   0.232  15.918 -0.1372 -0.8756 -0.7195
12042TIP3    H257618   1.900   0.365  15.971 -2.7042  0.0068 -0.4689
12043TIP3   OH257619   3.488   6.647   3.637 -0.0325  0.0504  0.1328
12043TIP3    H157620   3.411   6.704   3.641  1.2543  1.7609  0.8214
12043TIP3    H257621   3.532   6.672   3.556  0.1385 -0.4913  0.0580
12044TIP3   OH257622   1.465   1.377   4.985 -0.0911 -0.2627  0.4212
12044TIP3    H157623   1.378   1.382   5.025 -0.1905  0.4655  0.1251
12044TIP3    H257624   1.502   1.464   4.999  1.3745 -1.1436  2.2839
12045TIP3   OH257625   1.996   6.147   0.013  0.6662  0.3570  0.2124
12045TIP3    H157626   1.949   6.092  -0.050  1.4341 -0.3289  0.2217
12045TIP3    H257627   1.929   6.205   0.050  0.1769  0.6640 -1.1189
12046TIP3   OH257628   2.567   6.567   1.390  0.3024  0.2646 -0.0096
12046TIP3    H157629   2.639   6.625   1.412 -0.4392  0.9142  0.7616
12046TIP3    H257630   2.549   6.583   1.298  0.5921  0.6990  0.0113
12047TIP3   OH257631   4.886   5.947  16.661  0.5281  0.5170  0.0856
12047TIP3    H157632   4.802   5.964  16.618 -0.3496  0.7258  1.8476
12047TIP3    H257633   4.889   5.852  16.673  0.9411  0.4203 -0.7661
12048TIP3   OH257634   2.324   5.224   4.299  1.0656 -0.3350 -0.2288
12048TIP3    H157635   2.337   5.143   4.251  0.2725 -1.5585  1.5863
12048TIP3    H257636   2.410   5.266   4.299  1.0896 -0.2951 -2.6582
12049TIP3   OH257637   4.875   4.085   4.493 -0.9479 -0.3779  0.6754
12049TIP3    H157638   4.872   4.062   4.400 -0.4243 -2.6048  1.1689
12049TIP3    H257639   4.965   4.115   4.507 -0.6905 -1.1245  0.6771
12050TIP3   OH257640   2.741   2.116   4.706  0.5596  0.0391 -0.3606
12050TIP3    H157641   2.692   2.081   4.631 -0.3958  2.3175 -0.8472
12050TIP3    H257642   2.679   2.110   4.779  0.6110  0.1216 -0.3107
12051TIP3   OH257643   5.139   5.626  15.246 -0.2163  0.4892  0.2132
12051TIP3    H157644   5.050   5.643  15.214 -0.7275 -1.5380  0.5206
12051TIP3    H257645   5.179   5.713  15.252 -1.7800  1.3213 -1.0625
12052TIP3   OH257646   3.576   3.347  13.217  0.2353  0.5917 -0.6147
12052TIP3    H157647   3.565   3.288  13.143 -0.4925 -0.7910  0.5561
12052TIP3    H257648   3.498   3.403  13.216 -0.0916  0.1416 -0.5213
12053TIP3   OH257649   3.006   4.916   2.733 -0.1602 -0.2419  0.3712
12053TIP3    H157650   3.026   5.007   2.713  1.5115 -1.0467 -1.8547
12053TIP3    H257651   2.912   4.908   2.718 -0.1282  0.8756 -0.4730
12054TIP3   OH257652   4.376   0.606   4.588 -0.4707  0.1301 -0.5856
12054TIP3    H157653   4.430   0.594   4.667 -1.2986  1.8714  0.2670
12054TIP3    H257654   4.412   0.685   4.547 -2.1936  1.1721 -0.1278
12055TIP3   OH257655   5.693   0.338   2.721 -0.3165  0.1244 -0.0625
12055TIP3    H157656   5.711   0.427   2.691  0.8347 -0.1726 -0.2508
12055TIP3    H257657   5.597   0.333   2.722 -0.3880  1.1343 -0.7239
12056TIP3   OH257658   4.763   3.498  15.682 -0.2845 -0.0758  0.4397
12056TIP3    H157659   4.749   3.590  15.705  0.1747  0.5459 -1.7116
12056TIP3    H257660   4.856   3.483  15.701 -0.0109  0.3120 -0.5764
12057TIP3   OH257661   3.122   2.170   6.508  0.3797 -0.3676  0.2203
12057TIP3    H157662   3.122   2.215   6.424  0.3934 -0.8392 -0.0291
12057TIP3    H257663   3.174   2.227   6.565 -0.1339  0.2504  0.0715
12058TIP3   OH257664   0.308   3.531   2.655  0.0926 -0.2890  0.5556
12058TIP3    H157665   0.323   3.489   2.570  0.0768 -0.5640  0.6893
12058TIP3    H257666   0.214   3.522   2.669  0.0277  0.1303  0.4066
12059TIP3   OH257667   0.732   0.720   3.556 -0.6756 -0.0056  0.1115
12059TIP3    H157668   0.730   0.699   3.649  0.9737 -1.3889 -0.1448
12059TIP3    H257669   0.708   0.638   3.512  2.6835 -0.5568 -0.7928
12060TIP3   OH257670   2.512   0.752  12.014  0.3873 -0.2092  0.1422
12060TIP3    H157671   2.524   0.664  11.978 -0.7653 -0.3776  0.1589
12060TIP3    H257672   2.601   0.781  12.038  0.9917 -0.6561 -1.5032
12061TIP3   OH257673   0.987   3.162  11.210  0.0354 -0.2928 -0.3016
12061TIP3    H157674   1.000   3.227  11.142 -0.4489  0.2600  0.1291
12061TIP3    H257675   1.071   3.158  11.256 -0.3230  0.9670  0.4826
12062TIP3   OH257676   3.642   0.956   1.874  0.6457  0.1424  0.0644
12062TIP3    H157677   3.633   0.914   1.788 -0.6817  0.6899 -0.0829
12062TIP3    H257678   3.597   0.897   1.934 -0.8049  1.0648 -0.0668
12063TIP3   OH257679   6.117   1.336   5.962 -0.1830  0.0059  0.1403
12063TIP3    H157680   6.167   1.326   5.880 -0.5917 -4.0750  0.2647
12063TIP3    H257681   6.044   1.275   5.952 -1.2346  0.7726  2.8614
12064TIP3   OH257682   2.491   0.544   2.151  0.3382 -0.3495  0.4088
12064TIP3    H157683   2.448   0.600   2.216  0.2182 -0.9187  0.8224
12064TIP3    H257684   2.448   0.459   2.160  2.3229 -1.2505  1.6217
12065TIP3   OH257685   0.270   4.803  15.768  0.1084 -0.8425 -0.2414
12065TIP3    H157686   0.221   4.870  15.814  1.8460 -0.1280  0.6378
12065TIP3    H257687   0.300   4.846  15.688 -0.9900 -1.3889 -0.9567
12066TIP3   OH257688   2.214   6.547   4.280  0.1712  0.0119 -0.0728
12066TIP3    H157689   2.162   6.472   4.251  0.1019  0.5796 -1.4303
12066TIP3    H257690   2.292   6.508   4.319  0.3675 -0.7637 -1.2211
12067TIP3   OH257691   2.447   2.671   3.742  0.4595 -0.5099 -0.3128
12067TIP3    H157692   2.426   2.762   3.760 -2.1068 -1.3903  1.3487
12067TIP3    H257693   2.539   2.662   3.769  0.9196  1.6666 -1.0299
12068TIP3   OH257694   4.228   2.933   0.250 -0.2393 -0.1167  0.0363
12068TIP3    H157695   4.206   2.967   0.164  1.9822  0.1421 -0.4600
12068TIP3    H257696   4.166   2.860   0.263 -0.1825 -0.5777 -2.0434
12069TIP3   OH257697   6.706   4.199  11.971 -0.4299  0.2890  0.1666
12069TIP3    H157698   6.665   4.119  11.938 -1.2722  0.5036  0.6777
12069TIP3    H257699   6.703   4.190  12.066  0.7666  0.2819  0.2097
12070TIP3   OH257700   2.898   2.050   2.305 -0.0501 -0.7312 -0.7895
12070TIP3    H157701   2.970   2.109   2.330 -0.2280 -0.6747 -0.4085
12070TIP3    H257702   2.828   2.070   2.367  0.4920 -2.5617  0.4521
12071TIP3   OH257703   1.402   4.517  14.636 -0.3668  0.1773 -0.0088
12071TIP3    H157704   1.380   4.556  14.552 -0.8140  0.3093  0.1693
12071TIP3    H257705   1.456   4.441  14.614  2.0446  1.9086 -0.2799
12072TIP3   OH257706   5.949   5.598   4.947 -0.2154 -0.0767  0.1507
12072TIP3    H157707   5.855   5.613   4.942 -0.3405 -0.9896 -0.2995
12072TIP3    H257708   5.958   5.509   4.982  0.4761  0.0317  0.2571
12073TIP3   OH257709   0.408   1.050  16.124  0.3676 -0.2458  0.1431
12073TIP3    H157710   0.360   0.983  16.173 -0.0938 -0.4722 -0.5950
12073TIP3    H257711   0.431   1.116  16.189 -0.8879 -0.1701  0.5287
12074TIP3   OH257712   3.002   6.733  11.536  0.2247  0.3609 -0.3018
12074TIP3    H157713   3.058   6.681  11.479  0.1126 -0.4065  0.2853
12074TIP3    H257714   2.919   6.686  11.540  0.5954 -0.2054  1.3829
12075TIP3   OH257715   4.403   2.731  13.618  0.0251  0.0193 -0.6367
12075TIP3    H157716   4.391   2.797  13.687  2.0692 -0.7967  0.5437
12075TIP3    H257717   4.487   2.754  13.578  0.5800 -1.6609 -0.4559
12076TIP3   OH257718   3.464   1.069  13.437  0.4138 -0.1421  0.1609
12076TIP3    H157719   3.537   1.109  13.485  0.6103  0.5732 -0.7169
12076TIP3    H257720   3.498   0.984  13.410  0.8699  0.1199 -0.1042
12077TIP3   OH257721   4.389   1.581   2.808 -0.1716  1.0586  0.0819
12077TIP3    H157722   4.482   1.556   2.809 -0.4208  0.1137  1.3861
12077TIP3    H257723   4.370   1.600   2.716  0.8252 -0.5691 -0.4751
12078TIP3   OH257724   4.505   5.612   4.077 -0.1210  0.1015  0.5661
12078TIP3    H157725   4.531   5.702   4.055 -0.4605  0.1444  0.3395
12078TIP3    H257726   4.419   5.622   4.119  0.6037  0.0365  2.0644
12079TIP3   OH257727   2.979   3.683  13.079 -0.4367  0.1014 -0.5868
12079TIP3    H157728   3.013   3.725  13.158 -0.7423  1.8434 -1.3595
12079TIP3    H257729   2.893   3.648  13.106 -0.0587 -0.2834  0.1359
12080TIP3   OH257730   5.256   2.678   2.397 -0.2501 -0.1247  0.3561
12080TIP3    H157731   5.320   2.729   2.448 -0.4305  0.3420  0.1160
12080TIP3    H257732   5.273   2.587   2.423 -0.4223  0.1117  1.3490
12081TIP3   OH257733   2.744   1.109   1.441 -0.5138 -0.0698 -0.4016
12081TIP3    H157734   2.727   1.093   1.534  0.4577  0.6852 -0.0931
12081TIP3    H257735   2.750   1.021   1.402  0.6229 -0.3995  0.5243
12082TIP3   OH257736   0.517   4.237   1.361  0.2179  0.0866  0.3515
12082TIP3    H157737   0.480   4.288   1.289  1.0275 -1.3251 -1.0851
12082TIP3    H257738   0.607   4.267   1.369  0.1501  0.1933  0.7382
12083TIP3   OH257739   4.791   0.823   5.855 -0.4546  0.2245 -0.1956
12083TIP3    H157740   4.861   0.873   5.815 -0.5645  0.5242 -0.0136
12083TIP3    H257741   4.831   0.783   5.932 -0.7128  1.1323  0.4182
12084TIP3   OH257742   5.372   1.247  11.352  0.0561 -0.0803  0.1324
12084TIP3    H157743   5.306   1.286  11.409 -1.5127 -1.4696 -0.6686
12084TIP3    H257744   5.413   1.179  11.405  0.8453  0.7874  0.6347
12085TIP3   OH257745   5.504   0.956   3.967 -0.2209  0.3567 -0.4009
12085TIP3    H157746   5.535   1.037   4.007  0.0019  0.1968 -0.2560
12085TIP3    H257747   5.477   0.902   4.041 -3.7623  1.6722 -0.5952
12086TIP3   OH257748   2.952   3.305  12.587  0.4494 -0.0216 -0.2330
12086TIP3    H157749   2.937   3.356  12.507 -0.9897 -0.8625 -0.5227
12086TIP3    H257750   2.866   3.299  12.628  0.9719 -0.5435  0.8096
12087TIP3   OH257751   4.396   4.019   0.648 -0.7008 -0.1101 -1.3548
12087TIP3    H157752   4.402   3.946   0.586  0.0289 -0.9086 -0.3638
12087TIP3    H257753   4.464   4.001   0.713 -2.1100  0.1846  0.2442
12088TIP3   OH257754   3.902   6.197  14.271  0.3920 -0.2593 -0.4408
12088TIP3    H157755   3.883   6.207  14.177  3.7589  0.1548 -1.1215
12088TIP3    H257756   3.965   6.125  14.275  1.7107  0.9719  1.3244
12089TIP3   OH257757   3.922   4.579   0.444  0.6744 -0.1260 -0.3160
12089TIP3    H157758   3.861   4.505   0.450 -0.1803  0.5925 -0.0808
12089TIP3    H257759   3.883   4.638   0.380 -0.5733  1.9052  2.2298
12090TIP3   OH257760   5.003   0.970  14.020  0.0915  0.2527 -0.2687
12090TIP3    H157761   4.971   1.052  13.984  0.8053  0.9376  0.6484
12090TIP3    H257762   4.952   0.902  13.974 -2.1143  1.2674  0.6007
12091TIP3   OH257763   4.600   0.393   2.745 -0.4117 -0.2611  0.2634
12091TIP3    H157764   4.537   0.463   2.729  1.8091  1.5186 -0.9968
12091TIP3    H257765   4.596   0.338   2.666  0.4742  0.5705 -0.3794
12092TIP3   OH257766   1.701   5.779   4.571 -0.1101  0.7128  0.9753
12092TIP3    H157767   1.639   5.821   4.512  0.2214  0.3388  0.3525
12092TIP3    H257768   1.731   5.849   4.628  0.1000  1.2290  0.2331
12093TIP3   OH257769   5.348   2.063   5.215  0.0553  0.1715 -0.5765
12093TIP3    H157770   5.392   2.024   5.139 -0.8270  0.0181 -1.0097
12093TIP3    H257771   5.313   1.988   5.263  2.8973  0.0289  1.4606
12094TIP3   OH257772   4.077   4.899   1.514  0.3757  0.1021  0.8205
12094TIP3    H157773   4.035   4.837   1.455  2.0585 -0.6178  0.3350
12094TIP3    H257774   4.048   4.873   1.602  0.2215 -0.6947  0.5318
12095TIP3   OH257775   5.630   6.455  10.863 -0.4888 -0.1788 -0.6296
12095TIP3    H157776   5.663   6.371  10.829 -0.1513 -1.0486  1.7066
12095TIP3    H257777   5.673   6.521  10.808  3.0525 -1.3896  0.4826
12096TIP3   OH257778   2.965   1.765   3.440  0.0452  0.2336  0.1605
12096TIP3    H157779   2.982   1.760   3.346 -0.1846 -1.0926  0.1841
12096TIP3    H257780   2.880   1.808   3.447  0.1415  0.4932 -0.2190
12097TIP3   OH257781   5.758   4.671   2.914 -0.0504 -0.4374  0.1208
12097TIP3    H157782   5.827   4.684   2.979  0.0423 -1.8763  0.3239
12097TIP3    H257783   5.759   4.751   2.861  0.1389  0.6018  1.6302
12098TIP3   OH257784   3.020   0.661  14.723 -0.1817  0.2298  0.1370
12098TIP3    H157785   3.078   0.738  14.725 -0.8336  0.7311 -0.3997
12098TIP3    H257786   3.078   0.588  14.746  0.5457  0.8103  0.1840
12099TIP3   OH257787   5.605   2.195   5.282  0.3876  0.5035  0.4692
12099TIP3    H157788   5.535   2.131   5.293  0.5582 -0.2255 -2.3540
12099TIP3    H257789   5.566   2.265   5.230  1.4756  0.4996 -0.3775
12100TIP3   OH257790   2.230   4.984   0.680 -0.2282  0.1488  0.0112
12100TIP3    H157791   2.210   4.896   0.711  0.7460 -0.9981 -2.5287
12100TIP3    H257792   2.176   4.995   0.602 -1.2867  2.3239  0.9807
12101TIP3   OH257793   1.055   1.353  13.141  0.2213  0.1795  0.4546
12101TIP3    H157794   1.047   1.289  13.212 -0.7443 -2.0797 -1.6276
12101TIP3    H257795   1.149   1.361  13.126  0.3736 -0.2603  1.1505
12102TIP3   OH257796   2.300   3.599  14.947  0.2173 -0.8817  0.4502
12102TIP3    H157797   2.334   3.509  14.946 -0.0440 -0.9792  0.1846
12102TIP3    H257798   2.205   3.588  14.953  0.1118 -0.6462 -0.6719
12103TIP3   OH257799   1.704   5.107   5.255  0.8137 -0.4079  0.0441
12103TIP3    H157800   1.793   5.105   5.291  0.4931  1.2830  0.9863
12103TIP3    H257801   1.712   5.160   5.176  0.1976  1.8969  1.4866
12104TIP3   OH257802   5.702   3.552   0.257 -0.9425 -0.0515 -0.2993
12104TIP3    H157803   5.650   3.582   0.332  1.6187  1.2483  1.0213
12104TIP3    H257804   5.751   3.477   0.292 -1.0780 -0.5521 -1.1922
12105TIP3   OH257805   4.722   6.637  13.724  0.8648 -0.0403 -0.4097
12105TIP3    H157806   4.669   6.699  13.674  0.8261 -0.3342 -0.7320
12105TIP3    H257807   4.746   6.569  13.661  0.3511 -0.7009  0.1036
12106TIP3   OH257808   2.929   2.494   6.277 -0.1629 -0.0287  0.3658
12106TIP3    H157809   2.888   2.417   6.238  0.7210 -0.3314  0.0101
12106TIP3    H257810   3.022   2.484   6.257 -0.1012  1.3741 -0.0839
12107TIP3   OH257811   5.616   1.200  15.073 -0.7807  0.0782 -0.1003
12107TIP3    H157812   5.662   1.282  15.092 -1.9498  0.6383  0.3281
12107TIP3    H257813   5.650   1.174  14.987  1.8661 -0.6186  1.0906
12108TIP3   OH257814   5.532   1.234   4.051 -0.3750  0.1130 -0.0635
12108TIP3    H157815   5.573   1.290   3.985  0.6982 -0.3436  0.2023
12108TIP3    H257816   5.586   1.246   4.129 -0.2114 -1.1905  0.0382
12109TIP3   OH257817   6.363   3.573   3.565  0.0937  0.2627  0.5905
12109TIP3    H157818   6.307   3.506   3.526 -0.0970  1.1813 -0.7586
12109TIP3    H257819   6.352   3.649   3.508  0.4096  1.4056  2.0201
12110TIP3   OH257820   5.228   4.314   5.124  0.2541  0.1612  0.3023
12110TIP3    H157821   5.137   4.332   5.101 -0.8093 -0.7527  3.5095
12110TIP3    H257822   5.228   4.223   5.152  2.3397 -0.0852 -0.4303
12111TIP3   OH257823   2.409   0.857   5.120  0.2149  0.6127  0.4884
12111TIP3    H157824   2.355   0.793   5.166  0.5250  0.7968  1.1185
12111TIP3    H257825   2.402   0.937   5.172  1.2665  0.5748  0.7103
12112TIP3   OH257826   3.971   2.345  15.655 -0.0407 -0.6218  0.3372
12112TIP3    H157827   3.949   2.300  15.573 -0.6659 -0.4174  0.3869
12112TIP3    H257828   4.020   2.281  15.705  0.9574 -0.5195 -0.4816
12113TIP3   OH257829   3.730   4.785  15.935 -0.0263  0.5577  0.5015
12113TIP3    H157830   3.650   4.802  15.884  0.9958 -0.1973 -1.4161
12113TIP3    H257831   3.781   4.865  15.928  0.3191  0.2910 -0.0600
12114TIP3   OH257832   0.457   4.667   5.564 -0.4111 -0.4065  0.4850
12114TIP3    H157833   0.398   4.711   5.503 -0.3821 -1.1256 -0.0788
12114TIP3    H257834   0.485   4.735   5.624 -1.8052 -0.0553  0.7499
12115TIP3   OH257835   2.776   6.711  14.171 -0.3261 -0.0158 -0.0263
12115TIP3    H157836   2.689   6.709  14.130  0.3341 -0.3049 -1.4570
12115TIP3    H257837   2.794   6.805  14.182 -0.6166  0.0569 -0.1598
12116TIP3   OH257838   6.637   6.153  13.000 -0.2104  0.1106  0.7899
12116TIP3    H157839   6.622   6.131  13.092  1.5255 -0.2930  0.9869
12116TIP3    H257840   6.626   6.070  12.953 -2.4129  0.5673  0.4534
12117TIP3   OH257841   2.087   0.708  16.231 -0.1886  0.2076 -0.0360
12117TIP3    H157842   2.133   0.733  16.151 -0.1704  0.0454 -0.0756
12117TIP3    H257843   2.150   0.652  16.278 -0.4065 -0.1593 -0.1765
12118TIP3   OH257844   2.174   4.307  16.852 -0.5882 -0.1275  0.3212
12118TIP3    H157845   2.109   4.363  16.809 -0.9709 -0.6301  0.2339
12118TIP3    H257846   2.255   4.322  16.804 -0.4866  0.9760  0.8263
12119TIP3   OH257847   3.443   0.892  16.336 -0.3720 -0.1077 -0.5983
12119TIP3    H157848   3.380   0.937  16.392  0.9748  0.4501  0.4997
12119TIP3    H257849   3.508   0.959  16.315  0.8289 -1.1411 -0.2177
12120TIP3   OH257850   2.673   1.727   5.382 -0.1330  0.3834  0.4302
12120TIP3    H157851   2.661   1.819   5.357 -0.2442  0.4523  0.7451
12120TIP3    H257852   2.593   1.684   5.352  0.1948  0.2687 -0.3014
12121TIP3   OH257853   2.697   6.342  17.041  0.3426 -0.3290 -0.2862
12121TIP3    H157854   2.619   6.287  17.047  0.5875 -0.8658 -1.8233
12121TIP3    H257855   2.669   6.427  17.075 -1.1744 -0.2612 -1.6281
12122TIP3   OH257856   4.882   4.297  15.692  0.6721  0.3305  0.0241
12122TIP3    H157857   4.870   4.239  15.767 -0.9641 -1.6238 -1.7202
12122TIP3    H257858   4.808   4.357  15.697 -0.3604 -0.8523 -0.9636
12123TIP3   OH257859   6.112   4.680   4.930  0.5673 -0.7628  0.3994
12123TIP3    H157860   6.078   4.713   5.013 -0.0116 -1.5286  0.4745
12123TIP3    H257861   6.155   4.755   4.890  0.2290 -0.2055  1.0696
12124TIP3   OH257862   1.750   6.095  12.276  0.1145 -0.2603  0.0459
12124TIP3    H157863   1.779   6.175  12.320  1.1263 -1.8268  2.2664
12124TIP3    H257864   1.791   6.100  12.189  3.4351 -0.2512  1.5459
12125TIP3   OH257865   1.231   4.295  15.887  0.2141  0.0859 -0.0223
12125TIP3    H157866   1.300   4.233  15.910 -1.9763 -2.0754  0.9342
12125TIP3    H257867   1.174   4.247  15.826 -0.9313  1.4966 -0.0951
12126TIP3   OH257868   0.030   5.406  12.401 -0.5942  0.7279  0.4460
12126TIP3    H157869   0.059   5.330  12.450 -0.8187  1.0273  1.0475
12126TIP3    H257870  -0.014   5.370  12.324  1.5207  0.2715 -0.5728
12127TIP3   OH257871   3.633   1.995  11.828  0.1244  0.0458  0.3721
12127TIP3    H157872   3.647   2.006  11.734  2.8096 -0.0018  0.7281
12127TIP3    H257873   3.556   1.940  11.834  1.4902 -2.2508 -1.8869
12128TIP3   OH257874   0.775   4.711  15.380  0.7961 -0.3845  0.5909
12128TIP3    H157875   0.784   4.677  15.291  0.6462 -3.4961  1.7298
12128TIP3    H257876   0.680   4.715  15.394  0.8303 -0.2762  0.7887
12129TIP3   OH257877   2.444   1.392   2.692  0.1298  0.6305  0.1459
12129TIP3    H157878   2.411   1.416   2.606  0.1882  0.1097 -0.0271
12129TIP3    H257879   2.372   1.343   2.732  0.8986 -1.0604 -0.4797
12130TIP3   OH257880   2.487   6.022  13.246  0.1024  0.2537 -0.0718
12130TIP3    H157881   2.467   5.931  13.269  1.4151  0.0761  0.3862
12130TIP3    H257882   2.582   6.024  13.237  0.3221  2.1027  2.2245
12131TIP3   OH257883   6.587   5.390  11.510 -0.0621 -0.8398 -0.0261
12131TIP3    H157884   6.640   5.463  11.541 -0.7430 -0.4498  0.2328
12131TIP3    H257885   6.516   5.432  11.461  0.2517 -1.3887 -0.9547
12132TIP3   OH257886   6.702   2.359  16.642  0.2762  0.0562 -0.0125
12132TIP3    H157887   6.724   2.279  16.594 -0.3133  0.7300 -1.4279
12132TIP3    H257888   6.607   2.356  16.652  0.4659 -0.4345  1.7863
12133TIP3   OH257889   3.406   4.750   1.474  0.0278  0.0532  0.1725
12133TIP3    H157890   3.474   4.728   1.410  0.3457 -1.1772  0.9090
12133TIP3    H257891   3.453   4.795   1.544 -0.4485  2.1365 -0.8209
12134TIP3   OH257892   2.304   3.644   3.724 -0.0362 -0.1229 -0.0732
12134TIP3    H157893   2.344   3.567   3.683  0.8997 -0.8027  2.0456
12134TIP3    H257894   2.345   3.719   3.681 -0.0997 -0.7922 -1.3362
12135TIP3   OH257895   6.520   2.110   4.069  0.9191 -0.2801  0.0634
12135TIP3    H157896   6.489   2.063   3.992  3.0652 -2.2529  0.3441
12135TIP3    H257897   6.615   2.109   4.061  1.1347  0.5749  2.0971
12136TIP3   OH257898   2.941   6.400   3.788  0.3907 -0.3354 -0.0075
12136TIP3    H157899   2.987   6.445   3.717  0.3302 -0.1306  0.0830
12136TIP3    H257900   3.009   6.349   3.832  0.4473 -0.3819 -0.1486
12137TIP3   OH257901   5.461   4.358   3.339 -0.1901  0.5974 -0.3473
12137TIP3    H157902   5.487   4.277   3.295  0.7582  0.8308 -0.2276
12137TIP3    H257903   5.522   4.424   3.306  0.4604  0.7988  1.2005
12138TIP3   OH257904   5.970   0.391   6.782  0.5489  0.3346  0.4288
12138TIP3    H157905   6.017   0.307   6.784 -0.4773 -0.2466  0.1587
12138TIP3    H257906   5.894   0.375   6.727 -0.7885  0.8519  2.0950
12139TIP3   OH257907   2.505   5.919  14.382 -0.5212 -0.1627 -0.2707
12139TIP3    H157908   2.433   5.969  14.343  0.3008  1.2976  0.0521
12139TIP3    H257909   2.579   5.933  14.323  0.3354  0.8855  1.0127
12140TIP3   OH257910   0.233   1.025  14.794  0.0757  0.7744  0.8572
12140TIP3    H157911   0.212   0.948  14.743 -0.1559  0.4811  1.3925
12140TIP3    H257912   0.177   1.020  14.871  0.1318  1.4209  0.9486
12141TIP3   OH257913   5.805   5.044  12.121 -0.5882 -0.2689 -0.2453
12141TIP3    H157914   5.843   5.011  12.203 -1.2787  1.1689  0.6767
12141TIP3    H257915   5.827   4.977  12.056 -0.8005 -1.8773  1.2807
12142TIP3   OH257916   0.929   4.338   2.884  0.3748  0.1318  0.2432
12142TIP3    H157917   0.937   4.253   2.927 -1.3740 -0.9202 -1.4102
12142TIP3    H257918   0.904   4.399   2.953  0.4726 -0.9349  1.2189
12143TIP3   OH257919   5.338   2.626  14.629  0.4253 -0.5853  0.0931
12143TIP3    H157920   5.336   2.586  14.716 -2.0718 -2.0798 -0.5992
12143TIP3    H257921   5.351   2.553  14.569  0.4307  0.2153 -0.8949
12144TIP3   OH257922   2.437   5.165  13.832 -0.3149  0.1079 -0.0089
12144TIP3    H157923   2.393   5.085  13.803 -1.3052  0.8281 -0.5191
12144TIP3    H257924   2.413   5.231  13.767 -1.8560  1.5238  1.9119
12145TIP3   OH257925   3.011   1.758  16.689 -0.1543 -0.5476 -0.3848
12145TIP3    H157926   2.992   1.837  16.638 -0.5271 -1.2728 -1.3823
12145TIP3    H257927   2.970   1.774  16.774  0.3455  0.6116 -0.3545
12146TIP3   OH257928   6.356   0.896  15.421 -0.0382 -0.0795 -0.0307
12146TIP3    H157929   6.269   0.930  15.444  0.4473  0.7618  0.5392
12146TIP3    H257930   6.417   0.959  15.457  0.8384 -0.9701  0.0536
12147TIP3   OH257931   1.954   6.631  10.330 -0.5679  0.0120 -0.3183
12147TIP3    H157932   1.861   6.635  10.307 -0.6132  0.3397 -0.0823
12147TIP3    H257933   1.963   6.691  10.404  0.1407  1.2913 -1.3975
12148TIP3   OH257934   4.537   6.661  17.068 -0.8328  0.1432 -0.3058
12148TIP3    H157935   4.563   6.747  17.036 -0.5176 -0.3404 -1.4065
12148TIP3    H257936   4.442   6.658  17.057 -0.8174  0.2746 -0.4635
12149TIP3   OH257937   2.664   3.221   2.735  0.0794  0.0404  0.5729
12149TIP3    H157938   2.686   3.225   2.642 -2.6352  0.3655 -0.1074
12149TIP3    H257939   2.679   3.129   2.759 -1.4240 -0.6017 -0.8101
12150TIP3   OH257940   0.420   5.309   3.226  0.2901  0.0960 -0.4907
12150TIP3    H157941   0.504   5.314   3.271  1.1424 -0.9454 -1.9199
12150TIP3    H257942   0.365   5.258   3.285  0.9349  0.0035  0.0412
12151TIP3   OH257943   5.092   2.689   0.535  0.1807 -0.3898 -0.5398
12151TIP3    H157944   5.023   2.624   0.542 -0.7772  0.8716  2.2919
12151TIP3    H257945   5.077   2.749   0.608  3.4325  0.7041 -0.6662
12152TIP3   OH257946   1.919   5.855   5.862  0.2434 -0.5474  0.1856
12152TIP3    H157947   1.920   5.895   5.949 -0.7889 -1.0809  0.4465
12152TIP3    H257948   2.007   5.820   5.851  0.7886  0.6951  0.4621
12153TIP3   OH257949   5.982   1.979  11.410  0.1881  0.3764 -0.2380
12153TIP3    H157950   5.949   1.973  11.321  0.5866 -0.6241 -0.3254
12153TIP3    H257951   5.931   1.914  11.460  0.4336  0.4460  0.1107
12154TIP3   OH257952   5.292   4.993  12.717  0.3940  0.9775 -0.0399
12154TIP3    H157953   5.203   4.972  12.687  0.2588  1.5430 -0.0409
12154TIP3    H257954   5.279   5.037  12.801  0.6075  1.9472 -0.5000
12155TIP3   OH257955   1.202   1.113  17.200 -0.1396 -0.1842 -0.2612
12155TIP3    H157956   1.258   1.119  17.277 -0.9348 -0.4526  0.3496
12155TIP3    H257957   1.134   1.179  17.214 -1.3232 -1.4587  0.1487
12156TIP3   OH257958   5.454   2.004  17.176 -0.7009 -0.2229  0.0700
12156TIP3    H157959   5.483   1.939  17.111 -0.3104 -2.1419  2.1133
12156TIP3    H257960   5.432   1.952  17.253 -3.6129  1.7961  0.6624
12157TIP3   OH257961   1.514   1.371   3.643  0.2798  0.1959 -0.6444
12157TIP3    H157962   1.467   1.441   3.597  0.5771  0.5502 -0.4120
12157TIP3    H257963   1.453   1.341   3.710  0.4506  0.7814 -0.2223
12158TIP3   OH257964   5.728   2.424  14.910 -0.2396  0.0005 -0.7003
12158TIP3    H157965   5.696   2.380  14.988  1.3828 -1.2977 -0.7292
12158TIP3    H257966   5.798   2.481  14.941  0.9913 -1.1574 -1.2703
12159TIP3   OH257967   5.534   5.535   5.206 -0.1756  0.1762 -0.0531
12159TIP3    H157968   5.599   5.472   5.176  1.7783  3.1267 -2.2188
12159TIP3    H257969   5.459   5.522   5.148 -0.1959 -0.8556  0.1983
12160TIP3   OH257970   2.456   3.958  16.984 -0.1456  0.4136 -0.2158
12160TIP3    H157971   2.362   3.972  16.995 -0.4139 -1.2495 -0.2766
12160TIP3    H257972   2.485   3.929  17.070  0.4870  1.8314  0.0513
12161TIP3   OH257973   5.950   4.991   2.840 -0.9229  0.0890  0.3777
12161TIP3    H157974   6.014   4.921   2.850  2.1911  2.9156  1.2592
12161TIP3    H257975   5.940   5.001   2.745 -1.6468 -1.6910  0.2454
12162TIP3   OH257976   5.778   0.207  17.015  0.0116 -0.3840  0.0254
12162TIP3    H157977   5.739   0.256  16.943 -1.4527 -0.4122  0.7634
12162TIP3    H257978   5.804   0.274  17.078  2.3319 -0.2797 -0.9764
12163TIP3   OH257979   3.022   1.387   4.899  0.2745 -0.1461 -0.2641
12163TIP3    H157980   3.070   1.327   4.842  0.9631 -1.3226  1.5292
12163TIP3    H257981   3.057   1.474   4.877  1.0633 -0.6706 -1.0938
12164TIP3   OH257982   4.414   5.577  14.580 -0.1086 -0.0012  0.1324
12164TIP3    H157983   4.504   5.550  14.561  0.7940  2.1339  1.1858
12164TIP3    H257984   4.361   5.532  14.514  1.6823 -1.5508 -0.2930
12165TIP3   OH257985   0.299   4.439  13.150  0.5869  0.4196  0.4082
12165TIP3    H157986   0.391   4.421  13.166  1.1147  1.1223 -1.7783
12165TIP3    H257987   0.256   4.353  13.156  1.6416 -0.1591 -0.3097
12166TIP3   OH257988   2.605   5.842   3.927 -0.2389  0.1646  0.5020
12166TIP3    H157989   2.529   5.848   3.984 -1.1530 -0.4623 -0.6346
12166TIP3    H257990   2.600   5.754   3.889  0.3674  0.5652 -0.5334
12167TIP3   OH257991   0.817   3.578   6.323 -0.1542 -0.4398 -0.2606
12167TIP3    H157992   0.820   3.673   6.315  2.2191 -0.3135  1.6392
12167TIP3    H257993   0.793   3.561   6.413 -1.9272 -1.6698 -0.9429
12168TIP3   OH257994   0.761   2.304   0.972  0.3179 -0.7770  0.1018
12168TIP3    H157995   0.670   2.331   0.983 -0.1483 -2.2349 -0.0550
12168TIP3    H257996   0.792   2.354   0.896 -1.1748 -2.1867 -1.5053
12169TIP3   OH257997   3.796   1.976   3.190  0.4611  0.3782 -0.0779
12169TIP3    H157998   3.840   2.050   3.231  0.3036  0.3954  0.0615
12169TIP3    H257999   3.707   1.980   3.224  0.6177 -0.2469  0.4178
12170TIP3   OH258000   6.120   6.395   0.071  0.4625  0.0929 -0.8444
12170TIP3    H158001   6.033   6.376   0.105 -0.2516 -0.6132 -2.9817
12170TIP3    H258002   6.169   6.428   0.146 -2.1636  2.2523  0.0030
12171TIP3   OH258003   0.980   1.803   5.943 -0.5174 -0.5031  0.0202
12171TIP3    H158004   1.015   1.825   5.857 -3.3685  0.4243 -0.9824
12171TIP3    H258005   1.054   1.813   6.003  0.7537  1.9890 -1.8669
12172TIP3   OH258006   2.921   4.688  14.752  0.0877  0.0306  0.5012
12172TIP3    H158007   2.826   4.677  14.763  0.2074  0.0053  1.5824
12172TIP3    H258008   2.958   4.604  14.781  0.4488  0.0715  0.1669
12173TIP3   OH258009   4.900   3.518  13.556  0.1275 -0.0215  0.0002
12173TIP3    H158010   4.899   3.439  13.504 -2.3241 -0.6733  0.9841
12173TIP3    H258011   4.961   3.499  13.627 -0.4844 -1.0493  0.2573
12174TIP3   OH258012   5.320   1.530   5.631  0.4395 -0.0568 -0.0473
12174TIP3    H158013   5.365   1.550   5.713  0.3634  1.2150 -0.3124
12174TIP3    H258014   5.302   1.615   5.591  1.8419 -0.7043 -2.1553
12175TIP3   OH258015   6.717   0.785  13.616 -0.6104 -0.2666 -0.6604
12175TIP3    H158016   6.687   0.847  13.550  0.2960  0.1485 -0.6884
12175TIP3    H258017   6.775   0.725  13.569 -1.1164 -0.8589 -0.5385
12176TIP3   OH258018   5.900   1.019  16.734 -0.0296 -0.1468  0.3980
12176TIP3    H158019   5.921   1.004  16.826 -1.1230  1.3904  0.9096
12176TIP3    H258020   5.815   1.062  16.736  0.7282  1.4727 -1.2495
12177TIP3   OH258021   4.007   1.973  15.134 -0.4100 -0.2436 -0.7151
12177TIP3    H158022   4.020   2.032  15.208 -0.3331 -1.3430  0.1433
12177TIP3    H258023   4.035   1.888  15.165 -1.5289 -0.9552 -1.6170
12178TIP3   OH258024   4.068   1.079   0.209  0.2481  0.0835  0.1636
12178TIP3    H158025   4.094   1.100   0.119 -2.4486  0.2706 -0.6123
12178TIP3    H258026   4.151   1.070   0.256  1.6883  1.1097 -2.0750
12179TIP3   OH258027   1.441   3.752  17.107  0.2379  0.0267  0.2033
12179TIP3    H158028   1.513   3.801  17.146  1.0229 -0.4856 -0.5786
12179TIP3    H258029   1.383   3.819  17.071  0.8462  0.4094 -0.0698
12180TIP3   OH258030   1.457   4.032   6.337 -0.0519  0.0774  0.1474
12180TIP3    H158031   1.525   4.016   6.403  0.2427  1.2128  0.1274
12180TIP3    H258032   1.504   4.069   6.262 -0.4049 -1.0809 -0.6597
12181TIP3   OH258033   3.899   2.455  17.038 -0.0722  0.4624  0.4289
12181TIP3    H158034   3.932   2.416  17.119  1.0928  0.7356  0.0827
12181TIP3    H258035   3.877   2.380  16.982 -4.0644  0.1684  2.2259
12182TIP3   OH258036   0.588   4.218   3.005 -0.2636  0.1973  0.0574
12182TIP3    H158037   0.505   4.181   3.033  0.8810 -2.0760  0.6023
12182TIP3    H258038   0.581   4.312   3.022 -2.2283 -0.1568  1.2505
12183TIP3   OH258039   3.996   3.276   5.560  0.1542  0.0632 -0.3095
12183TIP3    H158040   3.957   3.344   5.506  1.0866  1.2447  0.4599
12183TIP3    H258041   4.014   3.204   5.500 -1.6789  0.1272 -0.9672
12184TIP3   OH258042   6.801   2.614   1.667  0.6369  0.3678  0.1154
12184TIP3    H158043   6.736   2.682   1.684 -1.2477 -1.9269  2.6376
12184TIP3    H258044   6.750   2.536   1.645  2.6989 -0.5389 -1.6702
12185TIP3   OH258045   0.369   3.405  12.557  0.3334  0.0886  0.2198
12185TIP3    H158046   0.394   3.352  12.481 -0.6532 -0.7691  0.4910
12185TIP3    H258047   0.295   3.457  12.526  0.1347 -0.0280  0.4977
12186TIP3   OH258048   5.682   1.388  11.443 -0.6190 -0.0260 -0.2659
12186TIP3    H158049   5.662   1.303  11.483 -0.9098  0.1574 -0.0246
12186TIP3    H258050   5.603   1.441  11.457 -1.3065 -0.4334 -2.3590
12187TIP3   OH258051   6.476   1.052  15.077  0.5042  0.2866 -0.4522
12187TIP3    H158052   6.471   0.978  15.138  1.5838 -0.0276 -0.7410
12187TIP3    H258053   6.393   1.099  15.090 -0.1066 -0.8555 -0.1200
12188TIP3   OH258054   0.729   2.908   3.448 -0.6664 -0.1249  0.5826
12188TIP3    H158055   0.647   2.901   3.498 -1.1729  0.7483 -0.1173
12188TIP3    H258056   0.762   2.995   3.470 -1.4102  0.6727 -1.3801
12189TIP3   OH258057   6.316   0.729  13.897 -0.6478  0.1387  0.4236
12189TIP3    H158058   6.404   0.719  13.931 -0.5868  0.4621  0.3616
12189TIP3    H258059   6.324   0.713  13.803 -0.6131  0.4202  0.3794
12190TIP3   OH258060   3.492   6.468  13.019 -0.6240  0.2122 -0.2586
12190TIP3    H158061   3.441   6.530  12.967 -1.3629 -0.8341 -0.8098
12190TIP3    H258062   3.429   6.433  13.082 -1.1299 -2.4702 -2.1455
12191TIP3   OH258063   5.725   1.845  11.839 -0.5110 -0.5331  0.0205
12191TIP3    H158064   5.731   1.940  11.848  1.2028 -0.5974 -0.2563
12191TIP3    H258065   5.724   1.813  11.929  0.7170 -0.3457  0.1026
12192TIP3   OH258066   5.556   0.528  13.697  0.4159 -0.0338 -0.2491
12192TIP3    H158067   5.569   0.599  13.760 -0.6092  0.1340 -0.2273
12192TIP3    H258068   5.645   0.500  13.674  0.8462  2.0341 -1.1679
12193TIP3   OH258069   6.018   2.758   0.540 -0.0913 -0.4823  0.1605
12193TIP3    H158070   6.037   2.837   0.591  1.1897 -1.1321  0.7085
12193TIP3    H258071   5.980   2.697   0.603 -0.3771 -0.5739 -0.1001
12194TIP3   OH258072   0.677   5.727  13.343  0.0557 -0.3540  0.0325
12194TIP3    H158073   0.769   5.735  13.320 -0.1763  0.7712 -0.5395
12194TIP3    H258074   0.675   5.742  13.438  0.4030  0.0320 -0.0228
12195TIP3   OH258075   6.645   0.641   2.216  0.7747 -0.1229 -0.6588
12195TIP3    H158076   6.702   0.688   2.155  2.5142  3.6425  3.5601
12195TIP3    H258077   6.691   0.559   2.234  2.1555  0.4559 -1.4652
12196TIP3   OH258078   4.074   5.749  16.026  0.5380 -0.2768 -0.2339
12196TIP3    H158079   4.081   5.655  16.043 -0.3206 -0.7229 -2.3039
12196TIP3    H258080   4.148   5.787  16.074  0.2687 -1.8671  1.5162
12197TIP3   OH258081   2.329   2.040   5.041  0.0024 -0.4429 -0.1227
12197TIP3    H158082   2.313   1.949   5.068  2.2055 -0.7797  0.1602
12197TIP3    H258083   2.415   2.038   5.000  0.2322  1.6064  0.1976
12198TIP3   OH258084   4.551   0.722  16.907  0.4452 -0.5273 -0.2291
12198TIP3    H158085   4.544   0.657  16.837  0.3166 -1.3422  0.5165
12198TIP3    H258086   4.589   0.673  16.981 -1.3378 -0.2507  0.9285
12199TIP3   OH258087   1.376   5.322   2.640 -0.0282 -0.3761  0.6159
12199TIP3    H158088   1.431   5.247   2.616  0.0223 -0.3494  0.6452
12199TIP3    H258089   1.310   5.327   2.570  0.2104 -0.2042  0.3996
12200TIP3   OH258090   3.566   5.565   1.673 -1.0304  0.4136  0.5200
12200TIP3    H158091   3.495   5.502   1.684 -0.2048 -0.3321  1.8021
12200TIP3    H258092   3.602   5.576   1.761  1.4112 -0.4183 -0.3260
12201TIP3   OH258093   0.538   4.158  16.694  0.1469  0.6547 -0.1819
12201TIP3    H158094   0.490   4.077  16.713 -0.4926  1.1587  0.3529
12201TIP3    H258095   0.517   4.177  16.602  1.6124 -0.6705 -0.8243
12202TIP3   OH258096   4.347   2.173  11.054 -0.1338 -0.5750 -0.2980
12202TIP3    H158097   4.366   2.150  11.145  2.7099 -0.0057 -0.6868
12202TIP3    H258098   4.281   2.110  11.026  1.7129 -3.1720  1.0325
12203TIP3   OH258099   3.316   0.577  16.046  0.3449 -0.2353  0.7610
12203TIP3    H158100   3.263   0.585  15.966 -0.0976  1.6620  1.2227
12203TIP3    H258101   3.402   0.551  16.014  0.4835  1.5928 -0.4651
12204TIP3   OH258102   5.135   6.266  11.307 -0.4860  0.0688 -0.9195
12204TIP3    H158103   5.148   6.336  11.371 -0.5174 -2.1254  1.6152
12204TIP3    H258104   5.175   6.298  11.227  0.4592  2.5314  0.4867
12205TIP3   OH258105   5.330   0.129  13.488 -0.0147 -0.5820  0.1046
12205TIP3    H158106   5.358   0.041  13.460 -0.3451 -1.2664  1.8602
12205TIP3    H258107   5.367   0.138  13.576 -2.7835 -0.2949  1.2735
12206TIP3   OH258108   2.607   5.956  12.956 -0.0112  0.1612 -0.3313
12206TIP3    H158109   2.617   5.985  12.866 -0.8444 -0.8727 -0.7629
12206TIP3    H258110   2.565   6.030  13.000  0.6896  0.7890 -0.7030
12207TIP3   OH258111   0.664   4.421  14.898 -0.1311 -0.0132 -0.4563
12207TIP3    H158112   0.757   4.400  14.912 -0.8331 -1.9155  1.4612
12207TIP3    H258113   0.623   4.337  14.879 -1.6118  0.7285 -0.5678
12208TIP3   OH258114   2.017   5.085   3.234  0.2606 -0.3719  0.5248
12208TIP3    H158115   1.940   5.141   3.231  0.5889  0.2925  3.1151
12208TIP3    H258116   1.983   4.996   3.221 -0.5115  0.1962 -1.5376
12209TIP3   OH258117   0.945   6.238   5.387 -0.1564  0.0951  0.4028
12209TIP3    H158118   0.881   6.195   5.330 -0.7177  0.1784  0.9489
12209TIP3    H258119   0.910   6.223   5.476  1.2150 -0.8913  0.7849
12210TIP3   OH258120   1.381   2.908   3.198 -0.3309 -0.1882  0.0153
12210TIP3    H158121   1.454   2.848   3.213 -1.1644 -1.4347 -0.7946
12210TIP3    H258122   1.304   2.852   3.191 -1.1115  0.9499 -0.9391
12211TIP3   OH258123   0.264   0.525  16.369 -0.4295  0.2921  0.5599
12211TIP3    H158124   0.346   0.562  16.335 -1.0100 -0.7011 -2.0413
12211TIP3    H258125   0.289   0.439  16.402 -0.4378 -0.0433 -0.3052
12212TIP3   OH258126   6.128   5.699  10.577 -0.0444 -0.0191 -0.1626
12212TIP3    H158127   6.151   5.663  10.662 -0.7612  0.2415  0.1405
12212TIP3    H258128   6.069   5.634  10.538  1.6235 -0.9619 -1.1789
12213TIP3   OH258129   4.879   4.107   0.440  0.1741 -0.3280  0.5799
12213TIP3    H158130   4.950   4.044   0.451  2.1055  2.0214  2.0778
12213TIP3    H258131   4.913   4.171   0.377 -1.7927 -0.7968 -0.9963
12214TIP3   OH258132   6.739   3.394   0.233 -0.4624  0.0118  0.4535
12214TIP3    H158133   6.663   3.365   0.181 -0.1251 -1.8544  0.9517
12214TIP3    H258134   6.703   3.454   0.297 -0.8873  2.4556 -1.9737
12215TIP3   OH258135   1.974   6.445   3.104 -0.2770 -0.2384  0.0706
12215TIP3    H158136   1.957   6.497   3.026  0.6700  0.5167  0.3535
12215TIP3    H258137   1.974   6.509   3.176 -2.0733 -1.0475  0.8267
12216TIP3   OH258138   2.616   4.175  14.139 -0.0651  0.2207 -0.9570
12216TIP3    H158139   2.538   4.230  14.139 -0.4774 -0.3483 -1.9584
12216TIP3    H258140   2.689   4.237  14.145 -0.6154  0.6806  1.2950
12217TIP3   OH258141   0.575   0.856  16.408  0.5795  0.1471 -0.2512
12217TIP3    H158142   0.532   0.772  16.425  0.6441  0.6404  2.6376
12217TIP3    H258143   0.507   0.921  16.427  0.6308  0.7864 -2.1543
12218TIP3   OH258144   0.835   3.789  14.657 -0.3438  0.1822  0.2404
12218TIP3    H158145   0.904   3.855  14.657  0.2117 -0.3959 -0.6199
12218TIP3    H258146   0.809   3.781  14.566 -0.3823 -0.8149  0.3354
12219TIP3   OH258147   5.348   3.411  10.815  0.3394 -0.3943  0.3298
12219TIP3    H158148   5.422   3.417  10.755 -0.3483  0.6684 -0.4413
12219TIP3    H258149   5.279   3.367  10.764  0.3409 -1.1413  0.9537
12220TIP3   OH258150   2.872   2.840   5.615 -0.2916  0.1666 -0.4070
12220TIP3    H158151   2.903   2.832   5.706 -0.7479  2.3617 -0.0269
12220TIP3    H258152   2.947   2.814   5.562 -0.1212 -1.4455  0.6033
12221TIP3   OH258153   1.009   3.622  11.770 -0.3629  0.1731  0.2944
12221TIP3    H158154   1.086   3.633  11.826  1.1297 -0.8441 -1.5195
12221TIP3    H258155   1.018   3.691  11.704 -0.4202 -0.6322 -0.5662
12222TIP3   OH258156   6.811   3.023   4.985  0.4763  0.1153 -0.2599
12222TIP3    H158157   6.795   3.085   5.056  0.6246  1.0158 -0.9996
12222TIP3    H258158   6.812   2.938   5.027  1.2467  0.7017  0.9214
12223TIP3   OH258159   2.970   1.796   0.023  0.3312  0.6444  0.0275
12223TIP3    H158160   2.998   1.760  -0.061 -0.8165 -0.1408 -0.0296
12223TIP3    H258161   2.933   1.722   0.071  0.4423  1.2000  0.9951
12224TIP3   OH258162   2.839   0.443   6.343 -0.0558 -0.1185  0.4103
12224TIP3    H158163   2.805   0.354   6.353 -2.0017  0.2238 -2.4387
12224TIP3    H258164   2.929   0.432   6.313 -0.3557 -1.1618 -0.1257
12225TIP3   OH258165   3.632   0.848  16.815  0.3074  0.1863 -0.3036
12225TIP3    H158166   3.715   0.879  16.781  0.3734  0.3861  0.0371
12225TIP3    H258167   3.569   0.864  16.745  0.9640 -2.0802 -1.4466
12226TIP3   OH258168   6.608   1.200  12.017 -0.2698  0.0889 -0.3410
12226TIP3    H158169   6.589   1.177  11.926 -1.4989  0.0155 -0.0768
12226TIP3    H258170   6.526   1.236  12.051 -0.0087 -0.4619  0.9212
12227TIP3   OH258171   0.733   6.156  13.688  0.6274  0.1784 -0.0089
12227TIP3    H158172   0.779   6.232  13.653  0.2219 -0.7619 -2.6385
12227TIP3    H258173   0.662   6.194  13.741  1.1741  1.6178 -0.2865
12228TIP3   OH258174   3.416   2.512  11.524  0.8278 -0.9275 -0.2417
12228TIP3    H158175   3.510   2.519  11.540  0.8399 -2.2536  0.3343
12228TIP3    H258176   3.376   2.554  11.600  0.9520  1.8181 -1.6435
12229TIP3   OH258177   6.063   3.508  16.250  0.1843 -0.3843  0.1402
12229TIP3    H158178   5.974   3.530  16.223  0.4550  0.0930 -0.3789
12229TIP3    H258179   6.055   3.481  16.341 -0.4343  0.0202  0.2064
12230TIP3   OH258180   1.882   4.343   1.671 -0.0772  0.3203 -0.7811
12230TIP3    H158181   1.897   4.294   1.590 -1.5049 -1.0535 -0.2461
12230TIP3    H258182   1.936   4.298   1.736 -0.7385 -0.0306 -0.4706
12231TIP3   OH258183   3.350   1.456   5.109  0.1382  0.5995 -0.0129
12231TIP3    H158184   3.270   1.406   5.092  0.1196  0.7026 -0.2228
12231TIP3    H258185   3.366   1.506   5.029  1.0806 -0.3184 -0.4026
12232TIP3   OH258186   1.746   0.759  12.025 -0.0752 -0.0270  0.3263
12232TIP3    H158187   1.719   0.669  12.043 -0.7878  0.3644  1.1932
12232TIP3    H258188   1.837   0.763  12.053 -0.6201  0.0590  2.1068
12233TIP3   OH258189   1.295   6.338   0.082  0.8383  0.6308  0.0310
12233TIP3    H158190   1.234   6.373   0.147 -1.5521 -0.7589 -1.4502
12233TIP3    H258191   1.268   6.378  -0.000  2.5995  0.8183 -0.4731
12234TIP3   OH258192   6.246   4.458  16.436  0.2540 -0.5506  0.2440
12234TIP3    H158193   6.310   4.394  16.467  1.5382  0.7419  0.2930
12234TIP3    H258194   6.187   4.471  16.511  0.4757 -1.0444  0.5043
12235TIP3   OH258195   4.794   3.491   2.818  0.3935 -0.0998 -0.1444
12235TIP3    H158196   4.717   3.433   2.814 -0.1563  0.3661  2.7236
12235TIP3    H258197   4.774   3.561   2.756 -1.4927 -0.0165  0.5096
12236TIP3   OH258198   1.090   1.696  17.009 -0.4894 -0.4678 -0.4203
12236TIP3    H158199   1.015   1.645  16.977  0.5805 -0.5810 -2.8585
12236TIP3    H258200   1.056   1.784  17.020 -1.0403 -0.5464 -1.3888
12237TIP3   OH258201   0.007   2.567   2.229 -0.6521  0.3658 -0.1967
12237TIP3    H158202   0.090   2.527   2.255  0.1888  0.5192 -2.5366
12237TIP3    H258203   0.022   2.597   2.140 -2.9153  1.3262 -0.2827
12238TIP3   OH258204   3.381   6.388   5.258  0.8068 -0.1672  0.6126
12238TIP3    H158205   3.340   6.311   5.219  0.9601 -0.1797  0.4730
12238TIP3    H258206   3.367   6.458   5.193  1.2445 -0.2375  0.4358
12239TIP3   OH258207   5.723   2.090  11.981  0.3239 -0.2768  0.4518
12239TIP3    H158208   5.706   2.181  11.959 -0.9146 -0.8741 -1.1325
12239TIP3    H258209   5.636   2.050  11.990  0.8380 -1.0667  2.1980
12240TIP3   OH258210   2.397   4.311   3.610 -0.3502  0.1000  0.4475
12240TIP3    H158211   2.472   4.370   3.604  0.7266 -1.1140  1.5940
12240TIP3    H258212   2.429   4.228   3.576 -1.9284  0.2166 -1.3832
12241TIP3   OH258213   3.253   1.013   4.943  0.1645  0.9005  0.0326
12241TIP3    H158214   3.200   0.938   4.971 -0.5314  0.3726 -2.5866
12241TIP3    H258215   3.341   0.994   4.975 -0.0529 -0.9411 -0.4151
12242TIP3   OH258216   2.712   5.754   5.535 -0.0299 -0.2601  0.8463
12242TIP3    H158217   2.749   5.666   5.544 -0.9868 -0.9461 -1.6681
12242TIP3    H258218   2.787   5.809   5.515  0.3085 -0.8267  0.5347
12243TIP3   OH258219   0.009   5.791   4.825 -0.1528  0.1386 -0.1059
12243TIP3    H158220   0.102   5.806   4.841 -0.3563  1.5950 -0.2702
12243TIP3    H258221  -0.030   5.878   4.824 -1.3109 -0.3767 -1.3522
12244TIP3   OH258222   2.394   3.783  13.676  0.2328 -0.5129 -0.1233
12244TIP3    H158223   2.357   3.694  13.682 -0.1809 -0.2734  1.0510
12244TIP3    H258224   2.369   3.813  13.589  0.0022 -1.3872 -0.3714
12245TIP3   OH258225   2.122   0.732   4.526 -0.0534  0.3334 -0.3321
12245TIP3    H158226   2.212   0.765   4.530  0.1008 -0.1617  0.5598
12245TIP3    H258227   2.110   0.706   4.435  0.8034  0.1353 -0.3964
12246TIP3   OH258228   4.815   0.194  15.869 -0.0978 -0.2908  0.2438
12246TIP3    H158229   4.820   0.211  15.963  1.4700 -1.4023  0.3622
12246TIP3    H258230   4.894   0.234  15.832 -1.4863  1.5613 -0.8509
12247TIP3   OH258231   1.405   1.133   0.093 -0.3718 -0.0703  0.2951
12247TIP3    H158232   1.483   1.078   0.093 -0.7591 -0.6759  2.7043
12247TIP3    H258233   1.384   1.145   0.186 -2.2191  1.4024 -0.2809
12248TIP3   OH258234   1.706   5.838  14.472 -0.0954 -0.3786  0.0445
12248TIP3    H158235   1.707   5.910  14.409 -1.0718  0.5959  1.1253
12248TIP3    H258236   1.671   5.763  14.423 -1.3092  0.4956 -0.4312
12249TIP3   OH258237   5.828   0.642  14.138 -0.1997 -0.6222 -0.0963
12249TIP3    H158238   5.744   0.646  14.184 -0.2436  0.5910 -0.2647
12249TIP3    H258239   5.893   0.635  14.207 -0.3867 -0.7032  0.0721
12250TIP3   OH258240   3.173   0.465  17.008 -0.0450 -0.9231 -0.1030
12250TIP3    H158241   3.212   0.437  16.926 -1.2868 -1.0236 -0.6627
12250TIP3    H258242   3.136   0.551  16.989  0.2735 -0.6355  0.5428
12251TIP3   OH258243   3.511   0.347  16.001 -0.2607 -0.0867 -0.6349
12251TIP3    H158244   3.588   0.315  16.047 -1.0032 -0.8948  0.0743
12251TIP3    H258245   3.456   0.270  15.987 -1.1712  0.5485 -0.6767
12252TIP3   OH258246   0.478   5.674   6.189 -0.7155 -0.4476 -0.0120
12252TIP3    H158247   0.404   5.686   6.130 -0.3211 -0.0293 -0.4225
12252TIP3    H258248   0.447   5.612   6.255 -1.1931 -0.8167 -0.5874
12253TIP3   OH258249   2.726   1.978   0.293  0.4307  0.1117  0.2830
12253TIP3    H158250   2.679   2.056   0.263  1.6681  0.1921 -1.5836
12253TIP3    H258251   2.803   1.974   0.237  0.9588 -1.8575  1.0913
12254TIP3   OH258252   3.089   6.500   2.089 -0.4113 -0.4818 -0.0147
12254TIP3    H158253   3.090   6.589   2.125 -1.2868 -0.6313  0.3821
12254TIP3    H258254   3.105   6.443   2.165 -2.9807 -0.8391  0.3045
12255TIP3   OH258255   3.091   5.193  16.728 -0.0868  0.5927 -0.7843
12255TIP3    H158256   3.084   5.287  16.747 -0.1098  0.5648 -0.6569
12255TIP3    H258257   3.000   5.163  16.722 -0.0762  0.3479  0.3087
12256TIP3   OH258258   0.458   6.810   4.022 -0.2348  0.1858 -0.0422
12256TIP3    H158259   0.507   6.808   4.105 -0.3270  1.6008  0.0531
12256TIP3    H258260   0.426   6.720   4.012 -2.5538  0.6275  2.8622
12257TIP3   OH258261   3.238   3.974   3.106 -0.0104  0.0914  0.2172
12257TIP3    H158262   3.185   4.054   3.109 -1.1575 -0.6579  0.2761
12257TIP3    H258263   3.240   3.943   3.196  1.5574  0.7670  0.4253
12258TIP3   OH258264   6.564   2.908  13.256  0.2100 -0.3746  0.5409
12258TIP3    H158265   6.595   2.818  13.262  0.2045 -0.4617 -0.7309
12258TIP3    H258266   6.503   2.908  13.183  0.8650  0.8506 -0.0116
12259TIP3   OH258267   1.001   2.573  16.074 -0.5011  0.0394 -0.0995
12259TIP3    H158268   0.960   2.570  16.161 -1.4620  0.5501 -0.5349
12259TIP3    H258269   0.929   2.564  16.013 -0.1260  2.1710 -0.8954
12260TIP3   OH258270   5.204   4.395  14.610  0.7468  0.1110  0.4696
12260TIP3    H158271   5.132   4.343  14.575  0.0252  0.9011  0.7610
12260TIP3    H258272   5.271   4.393  14.542 -0.5333  1.4088 -0.8529
12261TIP3   OH258273   0.170   4.925   0.095 -0.4100  0.0835  0.1655
12261TIP3    H158274   0.209   4.955   0.177  0.5058 -0.5075 -0.0479
12261TIP3    H258275   0.241   4.927   0.032 -1.2572  1.1288 -0.7789
12262TIP3   OH258276   3.573   4.473  16.345 -0.2476 -0.5082 -0.3264
12262TIP3    H158277   3.522   4.553  16.363 -0.6874 -0.7335 -0.5777
12262TIP3    H258278   3.650   4.505  16.297  0.9130  0.0995  1.8243
12263TIP3   OH258279   0.034   5.172  11.630  0.1533  0.0262 -0.1015
12263TIP3    H158280  -0.042   5.206  11.677 -0.1834 -0.1324 -0.5329
12263TIP3    H258281   0.107   5.226  11.661 -0.1317  0.1714  0.3188
12264TIP3   OH258282   6.430   6.345   6.082  0.1190  0.4779  0.6752
12264TIP3    H158283   6.451   6.316   6.171  1.8998  1.9870  0.7754
12264TIP3    H258284   6.424   6.440   6.089 -3.3979  0.3836 -0.0936
12265TIP3   OH258285   4.021   0.213   5.893  0.1383 -0.1614  0.1048
12265TIP3    H158286   4.092   0.261   5.849  1.7063 -1.2463  1.3710
12265TIP3    H258287   3.953   0.205   5.826  1.0049  1.3032 -1.0112
12266TIP3   OH258288   2.421   5.399  15.348  0.4600 -0.1839  0.1527
12266TIP3    H158289   2.327   5.404  15.366 -0.2861 -2.8120 -2.5719
12266TIP3    H258290   2.438   5.471  15.287  0.3318  0.5715  0.9954
12267TIP3   OH258291   3.616   5.627   1.388  0.6491  0.2915  0.3016
12267TIP3    H158292   3.624   5.537   1.356 -0.8295  0.7103 -1.3756
12267TIP3    H258293   3.605   5.618   1.482  3.0531 -1.1191  0.4923
12268TIP3   OH258294   0.773   5.823   2.301  0.0004  0.6842  0.3003
12268TIP3    H158295   0.837   5.836   2.371 -0.5785 -1.6980  1.3172
12268TIP3    H258296   0.726   5.744   2.326  0.8415 -1.1491 -3.6146
12269TIP3   OH258297   0.143   2.259  12.656  0.7299  0.3379 -0.0955
12269TIP3    H158298   0.092   2.333  12.623  0.4496 -0.0928 -0.6271
12269TIP3    H258299   0.234   2.280  12.632  0.7315  0.7999  0.2984
12270TIP3   OH258300   0.766   6.718  15.344  0.8652 -0.5298 -0.0581
12270TIP3    H158301   0.739   6.648  15.283  1.1468 -1.5463  0.9745
12270TIP3    H258302   0.694   6.781  15.340  0.2845 -1.2037 -0.4989
12271TIP3   OH258303   6.073   3.235  11.882 -0.1397  0.1560  0.0835
12271TIP3    H158304   6.164   3.210  11.895  0.1814  0.3334 -1.7759
12271TIP3    H258305   6.022   3.164  11.923  0.8068 -0.9864 -0.7009
12272TIP3   OH258306   0.154   1.761  12.944  0.2522 -0.4618  0.0696
12272TIP3    H158307   0.072   1.805  12.967  0.6765  0.0327  0.6698
12272TIP3    H258308   0.131   1.668  12.940  0.0966 -0.5624  2.3357
12273TIP3   OH258309   6.629   5.981  15.809 -0.0460 -0.3140  0.1127
12273TIP3    H158310   6.535   5.992  15.821 -0.0752 -1.1252  0.6436
12273TIP3    H258311   6.651   5.904  15.861  1.1503  0.6976  1.1430
12274TIP3   OH258312   6.675   6.262  11.912  0.0233 -0.9477 -0.0285
12274TIP3    H158313   6.676   6.334  11.975 -0.1943 -1.0367  0.0762
12274TIP3    H258314   6.716   6.189  11.958 -0.6589 -1.1826  0.2152
12275TIP3   OH258315   4.854   3.838   1.103  0.3040  0.8857  0.0981
12275TIP3    H158316   4.900   3.875   1.029 -2.4384  0.3117 -1.9707
12275TIP3    H258317   4.833   3.748   1.076 -2.7736  1.4034  0.5663
12276TIP3   OH258318   2.666   5.082   5.529  0.2828 -0.8823 -0.1165
12276TIP3    H158319   2.638   5.122   5.446  1.2135 -2.9861 -1.4662
12276TIP3    H258320   2.616   5.001   5.534 -1.4536  0.2977  2.5239
12277TIP3   OH258321   6.815   3.931   3.187 -0.6256 -0.1281 -0.2726
12277TIP3    H158322   6.775   3.845   3.180  0.4681 -0.5795 -1.0926
12277TIP3    H258323   6.754   3.989   3.141 -1.2234 -0.5070  0.0395
12278TIP3   OH258324   4.200   2.539  12.286 -0.1698 -0.0059 -1.1596
12278TIP3    H158325   4.111   2.564  12.262  0.1789  0.5649 -1.8566
12278TIP3    H258326   4.239   2.619  12.323 -0.4156 -0.6353  0.4900
12279TIP3   OH258327   3.899   1.460   5.740  0.2450  0.0398  0.5220
12279TIP3    H158328   3.862   1.496   5.821  2.1480 -1.0618  1.9111
12279TIP3    H258329   3.989   1.493   5.738  0.1672  0.1733 -1.2336
12280TIP3   OH258330   6.745   4.104   1.923  0.1953  0.1800  0.7252
12280TIP3    H158331   6.721   4.092   2.014  0.6293 -0.3431  0.7724
12280TIP3    H258332   6.822   4.162   1.926 -0.2067  0.7206  0.6517
12281TIP3   OH258333   2.808   1.687  12.158 -0.3122  0.4142  0.6113
12281TIP3    H158334   2.899   1.665  12.178 -0.4913 -0.7496  0.1839
12281TIP3    H258335   2.800   1.670  12.064 -0.7816  1.1791  0.5169
12282TIP3   OH258336   2.767   2.410   0.025 -0.2706 -0.8095  0.2614
12282TIP3    H158337   2.719   2.491   0.038 -2.5011 -1.9795 -0.4808
12282TIP3    H258338   2.847   2.437  -0.022 -0.6836  1.0023  0.5638
12283TIP3   OH258339   6.055   3.394  15.348  0.1300  0.6093 -0.1928
12283TIP3    H158340   6.059   3.484  15.380  0.2202  0.0171  1.5244
12283TIP3    H258341   5.976   3.358  15.387  0.0475 -0.0245 -0.9452
12284TIP3   OH258342   1.959   4.320  13.487  0.2129 -0.1892  0.3870
12284TIP3    H158343   1.903   4.332  13.564  0.3782 -0.6474  0.5791
12284TIP3    H258344   2.031   4.381  13.499 -0.7012  1.0642 -0.2973
12285TIP3   OH258345   0.442   6.045   3.720 -0.2422 -0.7272 -0.1170
12285TIP3    H158346   0.394   6.005   3.648  2.0229 -3.3293 -0.2717
12285TIP3    H258347   0.446   5.977   3.787  3.0431 -0.5383 -0.0446
12286TIP3   OH258348   0.047   3.022   2.145 -0.3282  0.1441 -0.1324
12286TIP3    H158349   0.124   2.965   2.149 -2.1602 -2.3549  0.6913
12286TIP3    H258350   0.001   3.006   2.227 -1.2224  2.3720 -0.1778
12287TIP3   OH258351   6.754   2.297  17.171  0.2122 -0.7416 -0.1311
12287TIP3    H158352   6.826   2.276  17.113 -0.1412 -2.2183 -0.0403
12287TIP3    H258353   6.795   2.338  17.247  0.9012 -1.1224 -0.3007
12288TIP3   OH258354   4.545   4.582   3.030  0.0935 -0.2987 -0.0735
12288TIP3    H158355   4.568   4.518   3.097 -0.1803 -0.3098  0.0113
12288TIP3    H258356   4.552   4.534   2.947 -2.0426 -1.0068  0.1251
12289TIP3   OH258357   4.004   0.000   1.053  0.0197 -0.5287 -0.2223
12289TIP3    H158358   3.997   0.031   0.963  0.8126 -0.3219 -0.2162
12289TIP3    H258359   3.914  -0.006   1.084 -0.1790  1.2093 -0.4236
12290TIP3   OH258360   2.993   0.004   1.013 -0.1933  0.9192  0.6588
12290TIP3    H158361   2.899  -0.012   1.023  0.3824 -2.5050  1.0320
12290TIP3    H258362   3.019  -0.048   0.936  1.0415  3.5086 -0.7540
12291TIP3   OH258363   5.214   4.489  13.048 -0.0134 -0.3091  0.3036
12291TIP3    H158364   5.118   4.489  13.045  0.0200 -2.0596 -2.3589
12291TIP3    H258365   5.240   4.553  12.981  0.6718 -0.0019  0.8593
12292TIP3   OH258366   4.188   3.254  14.679 -0.1607  0.2082  0.4931
12292TIP3    H158367   4.096   3.260  14.657  0.1597  0.4534 -0.8372
12292TIP3    H258368   4.233   3.260  14.595  1.0984  0.8472  1.1922
12293TIP3   OH258369   6.045   2.804   5.218 -0.4318  0.1332 -0.0590
12293TIP3    H158370   6.066   2.804   5.125  1.5790  0.4706  0.3603
12293TIP3    H258371   6.056   2.713   5.245 -0.6596  0.0986 -0.0870
12294TIP3   OH258372   3.131   5.326   4.008 -0.2918 -0.6381 -0.1136
12294TIP3    H158373   3.194   5.261   3.977  1.1270  0.3359  0.6750
12294TIP3    H258374   3.077   5.278   4.072  0.0363 -1.3227 -0.3435
12295TIP3   OH258375   1.037   4.575  16.533 -0.9110  0.6393  1.1607
12295TIP3    H158376   1.008   4.591  16.623 -2.0910  1.0152  0.7282
12295TIP3    H258377   1.091   4.652  16.511  0.0089  0.1840  1.7976
12296TIP3   OH258378   1.436   5.986  16.849  0.1433  0.6297 -0.4436
12296TIP3    H158379   1.433   5.906  16.797 -1.6440 -0.3383  1.1212
12296TIP3    H258380   1.522   6.025  16.828  0.1217 -0.5428 -2.8639
12297TIP3   OH258381   2.998   5.836  14.083  0.4306  0.4335 -0.2147
12297TIP3    H158382   2.907   5.830  14.113  0.5890  0.8024  0.3489
12297TIP3    H258383   3.048   5.860  14.161  0.8366  1.4873 -0.7876
12298TIP3   OH258384   2.604   1.922  14.686 -0.2623 -0.2795  0.2607
12298TIP3    H158385   2.670   1.885  14.628 -0.8462 -1.3244  0.2388
12298TIP3    H258386   2.534   1.952  14.628 -0.6216 -0.8645  0.3839
12299TIP3   OH258387   4.038   6.247   0.493  0.5306 -0.4844 -0.0898
12299TIP3    H158388   4.082   6.166   0.469 -0.5488 -0.5105 -2.0609
12299TIP3    H258389   4.074   6.313   0.433  3.5333  1.1898  3.3412
12300TIP3   OH258390   3.892   0.280   2.579  0.8472 -0.1557 -0.3369
12300TIP3    H158391   3.806   0.257   2.615  1.1074 -0.3186  0.1801
12300TIP3    H258392   3.877   0.363   2.532  0.7781  0.7268  1.2169
12301TIP3   OH258393   4.222   4.395   5.095  0.2283 -0.2705 -0.3327
12301TIP3    H158394   4.272   4.425   5.171  0.6195  1.3634 -1.2200
12301TIP3    H258395   4.200   4.304   5.116  4.3853 -1.3818 -0.2999
12302TIP3   OH258396   2.082   3.630  12.295 -0.6120 -0.6761 -0.2887
12302TIP3    H158397   2.077   3.715  12.337  1.3266 -0.5736 -0.2169
12302TIP3    H258398   2.120   3.572  12.362  1.4440 -0.7596 -1.4937
12303TIP3   OH258399   0.966   0.164   1.680  0.4282  0.2020  0.0009
12303TIP3    H158400   1.047   0.119   1.705  0.5427  0.9069  0.9125
12303TIP3    H258401   0.896   0.105   1.710  0.5944 -0.0413 -0.0899
12304TIP3   OH258402   0.039   6.210  16.590 -0.1951  0.8609 -0.1286
12304TIP3    H158403  -0.005   6.251  16.516  0.2158 -0.1728 -0.9498
12304TIP3    H258404   0.132   6.229  16.576  0.0076 -0.5010 -0.5906
12305TIP3   OH258405   1.129   0.931   2.793  1.3565 -0.1149 -0.6636
12305TIP3    H158406   1.075   0.991   2.741  0.2599 -0.1936  0.3683
12305TIP3    H258407   1.080   0.917   2.874  2.4854 -0.9320 -0.0909
12306TIP3   OH258408   3.282   6.001   3.643 -0.0831 -0.2812 -0.1656
12306TIP3    H158409   3.337   5.925   3.663 -0.1548  0.0041  1.1514
12306TIP3    H258410   3.193   5.966   3.643  0.1599 -1.0160 -3.6214
12307TIP3   OH258411   2.480   4.727  12.487  0.2848 -0.1225  0.1384
12307TIP3    H158412   2.423   4.775  12.547  0.9027  1.4247 -0.4655
12307TIP3    H258413   2.568   4.760  12.506  0.2615  1.9339 -2.9510
12308TIP3   OH258414   3.030   1.448  11.691 -0.1158  0.0881  0.2970
12308TIP3    H158415   3.066   1.448  11.779  0.1961  0.0079  0.1698
12308TIP3    H258416   2.935   1.448  11.704 -0.0703  0.0133  0.6311
12309TIP3   OH258417   0.077   4.793  12.375  0.2008 -0.0491  0.6436
12309TIP3    H158418   0.159   4.766  12.334 -0.4869  0.2073 -0.9223
12309TIP3    H258419   0.032   4.844  12.308 -1.9232 -1.4557  0.9517
12310TIP3   OH258420   3.124   6.394   0.383  0.2110  0.6167 -0.0190
12310TIP3    H158421   3.093   6.353   0.302 -0.0710 -0.8591  0.8314
12310TIP3    H258422   3.065   6.468   0.396 -1.2189 -0.5335  0.0875
12311TIP3   OH258423   4.344   6.797  15.105  0.3075 -0.3502  0.4351
12311TIP3    H158424   4.342   6.835  15.193  0.4223  2.1081 -0.5763
12311TIP3    H258425   4.328   6.871  15.047  3.6508 -1.2773 -1.8102
12312TIP3   OH258426   4.813   2.793   1.721  0.6101  0.0001  0.0241
12312TIP3    H158427   4.780   2.868   1.771 -1.8694  0.2788 -1.9233
12312TIP3    H258428   4.908   2.795   1.734  0.3376  2.0191  1.9771
12313TIP3   OH258429   5.144   5.539   2.641 -0.3162 -0.2456 -0.4894
12313TIP3    H158430   5.173   5.456   2.680  0.1569 -0.1286 -0.5974
12313TIP3    H258431   5.066   5.562   2.691 -0.2542 -0.5818 -0.2341
12314TIP3   OH258432   5.195   4.170   2.186 -0.0524 -0.0997 -0.0434
12314TIP3    H158433   5.283   4.168   2.223 -0.5873  2.3333  1.5166
12314TIP3    H258434   5.199   4.238   2.118 -0.2526 -1.3128 -1.2855
12315TIP3   OH258435   3.099   2.386  13.711 -0.2984  0.0251  0.0561
12315TIP3    H158436   3.004   2.393  13.716 -0.3190 -0.9497  1.2296
12315TIP3    H258437   3.131   2.473  13.733 -0.9296  0.5354 -1.0084
12316TIP3   OH258438   3.607   2.030  12.231 -0.6966  0.0953  0.8006
12316TIP3    H158439   3.561   1.950  12.208 -1.2557  0.5311  0.3821
12316TIP3    H258440   3.577   2.094  12.166  1.2487  0.1365 -0.0974
12317TIP3   OH258441   3.150   3.355  14.191  0.0747 -0.5702 -0.3025
12317TIP3    H158442   3.186   3.427  14.139 -1.6337 -0.2465 -1.0634
12317TIP3    H258443   3.188   3.276  14.152 -0.7691 -0.2950 -1.7270
12318TIP3   OH258444   6.030   1.673   3.907  0.3678  0.1509  0.0187
12318TIP3    H158445   6.092   1.613   3.948  0.5924  0.5074  0.2015
12318TIP3    H258446   6.049   1.758   3.947  0.3295  0.4241 -0.5458
12319TIP3   OH258447   2.599   4.370   5.850  0.0059 -0.3094  0.0155
12319TIP3    H158448   2.593   4.356   5.944 -1.8807 -1.7134 -0.2687
12319TIP3    H258449   2.548   4.449   5.834  0.5140  0.0531  0.2119
12320TIP3   OH258450   3.594   4.121   6.199 -0.4441  0.5541  0.0149
12320TIP3    H158451   3.681   4.083   6.187 -0.7024  1.0874 -4.4583
12320TIP3    H258452   3.610   4.214   6.214 -0.2097  0.2681  1.7061
12321TIP3   OH258453   5.302   4.644  12.841 -0.3330  0.2142  0.5151
12321TIP3    H158454   5.355   4.573  12.805 -0.2466  1.0235 -0.9949
12321TIP3    H258455   5.242   4.668  12.770 -2.3849 -0.3302  1.9945
12322TIP3   OH258456   3.832   3.299  12.993  0.5222  0.2346 -0.4465
12322TIP3    H158457   3.898   3.308  12.924  0.2489 -0.3845 -0.7922
12322TIP3    H258458   3.867   3.350  13.066  0.4442  1.5250 -1.2974
12323TIP3   OH258459   2.876   1.580   5.559  0.0269 -0.8233 -0.2193
12323TIP3    H158460   2.957   1.617   5.593 -1.4766  0.3190  2.2889
12323TIP3    H258461   2.830   1.655   5.521  0.7275 -1.7096 -2.8639
12324TIP3   OH258462   0.651   2.202   2.246 -0.5108 -0.2175  0.1966
12324TIP3    H158463   0.666   2.180   2.338 -1.8251 -2.5075 -0.1155
12324TIP3    H258464   0.557   2.189   2.232 -0.1544 -0.9714 -1.7378
12325TIP3   OH258465   5.485   1.512  17.099  0.3293 -0.4351  0.4231
12325TIP3    H158466   5.573   1.523  17.137  0.0570 -0.6433  1.1321
12325TIP3    H258467   5.494   1.440  17.037  0.7219 -0.2776  0.2957
12326TIP3   OH258468   1.768   5.014  13.307  0.3352 -0.0852  0.5602
12326TIP3    H158469   1.744   4.961  13.231  0.1336 -0.1507  0.6675
12326TIP3    H258470   1.839   4.966  13.349  0.9086  0.2940  0.0291
12327TIP3   OH258471   2.490   3.353  16.964  0.1422  0.2465 -0.5768
12327TIP3    H158472   2.481   3.257  16.964 -0.3995  0.2943 -1.3841
12327TIP3    H258473   2.402   3.385  16.944  0.7722  0.8591 -2.4156
12328TIP3   OH258474   5.519   1.574   2.099 -0.3148  1.0690  0.0635
12328TIP3    H158475   5.593   1.608   2.049  1.0897 -0.9592  0.6911
12328TIP3    H258476   5.467   1.524   2.036  0.0110  0.7280  0.0640
12329TIP3   OH258477   2.047   1.784   5.007  0.2719 -0.2926  0.0352
12329TIP3    H158478   2.021   1.849   5.073  1.9239 -0.0286  0.4422
12329TIP3    H258479   2.141   1.772   5.021 -0.3690 -4.4306  1.4576
12330TIP3   OH258480   5.348   6.775   2.378  0.1356  0.6356  0.0688
12330TIP3    H158481   5.403   6.776   2.457 -1.1912  0.5103  1.0022
12330TIP3    H258482   5.352   6.865   2.345 -1.1659  1.2822  1.6010
12331TIP3   OH258483   4.837   0.787  13.913 -0.4199  0.2331 -0.1406
12331TIP3    H158484   4.749   0.780  13.950 -0.4255  0.3208 -0.1362
12331TIP3    H258485   4.850   0.705  13.866 -0.6610  0.3870 -0.4809
12332TIP3   OH258486   0.565   2.449   3.749 -0.1156  0.0582 -0.7794
12332TIP3    H158487   0.580   2.433   3.656 -0.4857  0.0826 -0.8434
12332TIP3    H258488   0.629   2.394   3.794  0.5295  0.5755 -1.0649
12333TIP3   OH258489   6.461   4.260  12.506 -0.1744  0.2148  0.3652
12333TIP3    H158490   6.413   4.179  12.521 -1.7488  1.1175  0.2190
12333TIP3    H258491   6.432   4.291  12.420  1.8626 -0.0562 -0.4497
12334TIP3   OH258492   1.244   2.599   6.056 -0.3873  0.1165  0.4500
12334TIP3    H158493   1.259   2.591   5.962  1.0384 -0.3916  0.7141
12334TIP3    H258494   1.157   2.561   6.069  0.5482 -2.3982 -0.2713
12335TIP3   OH258495   2.665   2.367  12.249  0.8142  0.2457  0.3079
12335TIP3    H158496   2.585   2.315  12.236  1.3732 -0.4433 -0.4932
12335TIP3    H258497   2.678   2.367  12.344  1.5994 -2.3425  0.2327
12336TIP3   OH258498   1.099   6.264   3.931 -0.3645  0.2135 -0.5142
12336TIP3    H158499   1.149   6.183   3.920 -2.1509 -1.4228  2.6652
12336TIP3    H258500   1.074   6.289   3.842  2.4540 -1.2331 -1.7817
12337TIP3   OH258501   0.819   6.188  16.277  0.1687  0.4272  0.0838
12337TIP3    H158502   0.744   6.228  16.233  0.8461  1.0484 -0.5132
12337TIP3    H258503   0.852   6.123  16.215  2.5136  2.8696 -1.3415
12338TIP3   OH258504   3.313   5.569   2.494 -0.1484 -1.0305 -0.1693
12338TIP3    H158505   3.297   5.484   2.535  3.1088 -0.6426  2.1246
12338TIP3    H258506   3.341   5.626   2.566 -2.1743  2.0202 -1.6671
12339TIP3   OH258507   3.277   5.629   5.981 -0.0626 -0.3194 -0.3281
12339TIP3    H158508   3.330   5.672   5.913 -0.2675 -0.8702 -0.8432
12339TIP3    H258509   3.339   5.574   6.027  0.4203  1.3109  1.0229
12340TIP3   OH258510   1.187   3.600   4.701 -0.9488  0.8141  0.1449
12340TIP3    H158511   1.100   3.637   4.686 -1.5751 -0.7700 -0.2715
12340TIP3    H258512   1.205   3.616   4.794 -2.8642 -1.2315  0.9112
12341TIP3   OH258513   0.200   2.143  15.819  0.1501 -0.0433 -0.0751
12341TIP3    H158514   0.144   2.219  15.803  0.5080  0.2415  0.0134
12341TIP3    H258515   0.153   2.070  15.779  0.9237  0.6184 -2.2605
12342TIP3   OH258516   4.903   0.395  16.633  0.3067 -0.1135 -0.3139
12342TIP3    H158517   4.947   0.437  16.559  0.3658 -0.3258 -0.3954
12342TIP3    H258518   4.819   0.365  16.596  0.7281 -1.0450 -0.5262
12343TIP3   OH258519   2.718   2.514   2.864 -0.1463 -0.9040  0.5335
12343TIP3    H158520   2.737   2.608   2.870  0.0421 -0.9449  0.5844
12343TIP3    H258521   2.678   2.492   2.949 -0.6808 -0.7606  0.3204
12344TIP3   OH258522   4.164   2.360  14.644  0.7095 -0.3393  0.1733
12344TIP3    H158523   4.240   2.407  14.678 -0.1501  0.1886  1.4113
12344TIP3    H258524   4.090   2.417  14.664 -0.1854 -1.5762  0.4389
12345TIP3   OH258525   3.300   0.630  14.451  0.2594 -0.3646 -0.4008
12345TIP3    H158526   3.265   0.544  14.426  0.7377 -0.8724  0.6602
12345TIP3    H258527   3.381   0.638  14.401  0.1372 -0.4659 -0.6181
12346TIP3   OH258528   3.625   3.153   0.179 -0.3157  0.0413 -0.2123
12346TIP3    H158529   3.683   3.176   0.251 -0.3118 -1.0816  0.1499
12346TIP3    H258530   3.627   3.058   0.176 -1.0336  0.0487 -1.1100
12347TIP3   OH258531   5.256   3.276  12.969  0.5770  0.2593 -0.4089
12347TIP3    H158532   5.319   3.326  13.019 -1.8150  0.6190  2.3941
12347TIP3    H258533   5.262   3.187  13.004 -1.5470  0.6509  1.0635
12348TIP3   OH258534   2.684   4.761  16.193 -0.0149  0.1825  0.4537
12348TIP3    H158535   2.764   4.761  16.140 -0.1342 -1.0989  0.2679
12348TIP3    H258536   2.614   4.749  16.130 -0.1594 -1.3552  0.8868
12349TIP3   OH258537   5.912   3.708  15.092 -0.6847  0.3837  0.1247
12349TIP3    H158538   6.002   3.740  15.099 -0.7611  0.1268  2.3992
12349TIP3    H258539   5.860   3.787  15.079 -0.3774  0.7592  1.1332
12350TIP3   OH258540   0.365   5.175  14.793 -0.1574 -0.5976  0.0907
12350TIP3    H158541   0.279   5.145  14.823  0.3217 -2.1285 -0.0090
12350TIP3    H258542   0.423   5.159  14.868 -0.0467  0.9287  0.3466
12351TIP3   OH258543   1.516   4.220   1.606 -0.6517  0.1302  0.2490
12351TIP3    H158544   1.543   4.264   1.687  2.4934 -0.6538 -0.3069
12351TIP3    H258545   1.525   4.126   1.626 -0.8918 -0.1028 -0.6998
12352TIP3   OH258546   3.030   2.420  17.179  0.6233 -0.2255  0.4950
12352TIP3    H158547   2.983   2.406  17.096  0.3438 -0.6786  0.7338
12352TIP3    H258548   3.122   2.402  17.157  0.9141  2.0244 -0.3119
12353TIP3   OH258549   0.090   4.503  11.199  0.3052 -0.2258 -0.5813
12353TIP3    H158550   0.077   4.505  11.294 -2.2347  0.3421 -0.8873
12353TIP3    H258551   0.159   4.438  11.186  0.2286 -0.8113  1.6156
12354TIP3   OH258552   3.771   6.219   6.417  0.3023  0.7038 -0.2347
12354TIP3    H158553   3.772   6.280   6.492  2.8335  0.5038 -0.0406
12354TIP3    H258554   3.757   6.133   6.457 -0.2446  0.8194 -0.1804
12355TIP3   OH258555   2.642   4.471   5.167  0.7861 -0.2454  0.4386
12355TIP3    H158556   2.651   4.479   5.262 -1.5672  1.5692  0.5840
12355TIP3    H258557   2.556   4.430   5.155  1.1351 -0.5888 -0.8954
12356TIP3   OH258558   4.615   0.653  16.235  0.3684 -0.2148  0.5130
12356TIP3    H158559   4.532   0.665  16.281 -0.0367  0.0116 -0.2596
12356TIP3    H258560   4.673   0.612  16.299 -0.2203 -0.0116  1.1768
12357TIP3   OH258561   0.659   1.169  13.075 -0.4752  0.2591  0.1748
12357TIP3    H158562   0.705   1.152  13.157 -1.6894  2.5526  1.4006
12357TIP3    H258563   0.567   1.149  13.095 -0.3090 -2.6296 -1.7274
12358TIP3   OH258564   0.162   0.557  13.721 -0.0639 -0.1090  0.3013
12358TIP3    H158565   0.221   0.485  13.697 -0.9997 -0.2439 -1.6828
12358TIP3    H258566   0.188   0.629  13.663 -0.9806  0.2348  0.3112
12359TIP3   OH258567   5.455   3.301   1.883 -0.0303  0.0751 -0.4658
12359TIP3    H158568   5.459   3.283   1.789  0.0886 -0.7497 -0.3035
12359TIP3    H258569   5.545   3.291   1.914 -0.0966  0.1974 -0.2334
12360TIP3   OH258570   3.025   2.745  16.114  0.2602 -0.3297 -0.1587
12360TIP3    H158571   3.088   2.673  16.113  0.4291 -0.1888  0.3482
12360TIP3    H258572   3.034   2.786  16.028  1.8111  0.5235  0.3905
12361TIP3   OH258573   6.366   4.916   6.159  0.2753  0.1580  0.5725
12361TIP3    H158574   6.405   4.943   6.076 -0.4754 -1.2525 -0.2548
12361TIP3    H258575   6.401   4.979   6.223  1.0696  1.0958 -0.7472
12362TIP3   OH258576   1.640   5.747  11.886  1.0388  0.7030  0.4132
12362TIP3    H158577   1.662   5.837  11.863 -1.0925  1.4334  1.0295
12362TIP3    H258578   1.547   5.751  11.910  0.9513 -1.6348  0.5937
12363TIP3   OH258579   3.383   2.943  14.412 -0.0781  0.5808  0.3259
12363TIP3    H158580   3.360   2.866  14.464  0.3216 -1.3835 -2.3065
12363TIP3    H258581   3.304   2.960  14.360  0.3086  1.1128 -0.0842
12364TIP3   OH258582   2.652   3.923   3.448 -0.1543  0.2989  0.5265
12364TIP3    H158583   2.733   3.904   3.401 -0.3512  1.2611 -0.1976
12364TIP3    H258584   2.655   4.017   3.465 -1.3276  0.4115  0.1180
12365TIP3   OH258585   6.628   4.198  16.691  0.2818  0.3248 -0.0973
12365TIP3    H158586   6.620   4.204  16.596  1.7423 -0.1369 -0.2658
12365TIP3    H258587   6.713   4.236  16.711 -1.2022  2.9979  1.3360
12366TIP3   OH258588   4.900   3.715  11.236  0.5111  0.4397 -0.0727
12366TIP3    H158589   4.952   3.730  11.157 -0.7736  0.7054 -0.8717
12366TIP3    H258590   4.852   3.796  11.250 -1.0287 -0.4159 -0.3318
12367TIP3   OH258591   1.377   0.595  15.817 -0.5048  0.6123 -0.1586
12367TIP3    H158592   1.325   0.515  15.817  0.0462  0.2338  1.2834
12367TIP3    H258593   1.320   0.661  15.856 -0.6226  0.6950 -0.4691
12368TIP3   OH258594   4.922   6.029   6.241  0.2370 -0.2379 -0.5026
12368TIP3    H158595   4.913   5.976   6.319  1.6894 -0.5754 -0.5650
12368TIP3    H258596   4.871   5.982   6.174 -2.0112  0.6721  0.5061
12369TIP3   OH258597   3.136   5.543   2.262 -0.7041  0.3612 -0.0341
12369TIP3    H158598   3.179   5.555   2.346 -0.1460 -1.6743  0.0062
12369TIP3    H258599   3.065   5.481   2.279 -1.6394  1.2005 -0.7496
12370TIP3   OH258600   4.399   5.004   2.281  0.0885  0.5020  0.2026
12370TIP3    H158601   4.394   5.093   2.317 -2.9782  0.3671  0.2207
12370TIP3    H258602   4.404   4.947   2.357 -1.7897  0.4743  0.3267
12371TIP3   OH258603   2.161   4.774   2.360 -0.2504 -0.8435 -0.0204
12371TIP3    H158604   2.078   4.814   2.335 -1.5191 -3.1930  0.3497
12371TIP3    H258605   2.212   4.773   2.279 -1.2909 -1.0941 -0.6837
12372TIP3   OH258606   0.975   1.534  12.247 -0.1493 -0.3281  0.4251
12372TIP3    H158607   0.990   1.440  12.239 -0.5922 -0.4638  1.1582
12372TIP3    H258608   1.039   1.574  12.188  1.3194 -1.0109  1.5238
12373TIP3   OH258609   6.657   1.810   4.416  0.1452 -0.2203  0.5222
12373TIP3    H158610   6.724   1.839   4.479 -0.2469 -2.1493  1.8937
12373TIP3    H258611   6.579   1.861   4.438  0.6543  0.7229  0.1271
12374TIP3   OH258612   2.570   5.280   1.258 -0.5526 -0.0245 -0.2810
12374TIP3    H158613   2.654   5.234   1.250 -0.6634 -0.5365  1.3271
12374TIP3    H258614   2.560   5.326   1.175  0.9366 -0.6097 -0.8032
12375TIP3   OH258615   1.199   3.747  15.999  0.6714  0.7202 -0.0404
12375TIP3    H158616   1.170   3.835  15.976 -1.3226 -0.5188 -2.4361
12375TIP3    H258617   1.188   3.695  15.919  1.7300 -1.7477  1.3328
12376TIP3   OH258618   3.881   5.271   5.219 -0.1034  0.7080  0.0516
12376TIP3    H158619   3.807   5.225   5.258  1.0809 -1.5311 -0.2761
12376TIP3    H258620   3.868   5.262   5.124  0.2716  0.8356 -0.0138
12377TIP3   OH258621   3.566   3.894  11.897  0.1473 -0.2348  0.0853
12377TIP3    H158622   3.474   3.875  11.882  0.6399 -3.2772  0.5186
12377TIP3    H258623   3.601   3.911  11.809 -0.6617  0.1022 -0.1749
12378TIP3   OH258624   6.153   2.392  16.799  0.0142  0.7407  0.1903
12378TIP3    H158625   6.243   2.376  16.770 -0.3452  0.8770 -1.0323
12378TIP3    H258626   6.162   2.427  16.887  1.0392 -2.3000  1.3812
12379TIP3   OH258627   1.839   1.485   5.506 -0.7131 -0.0975 -0.3837
12379TIP3    H158628   1.884   1.491   5.421 -0.7516  0.3806 -0.3718
12379TIP3    H258629   1.878   1.409   5.548  1.1893  1.2078  0.2742
12380TIP3   OH258630   0.617   3.112   0.290 -0.6867  0.1558  0.6226
12380TIP3    H158631   0.526   3.139   0.285 -0.5424  0.4482 -0.6408
12380TIP3    H258632   0.667   3.194   0.284 -0.3392 -0.0094  1.2034
12381TIP3   OH258633   5.662   0.604   2.175 -0.1869 -0.8304 -0.3187
12381TIP3    H158634   5.605   0.677   2.200 -1.3115 -0.5716 -3.3555
12381TIP3    H258635   5.652   0.540   2.245 -1.8886  0.4926  0.6811
12382TIP3   OH258636   0.077   0.324  15.421  0.3415 -0.3267 -0.0517
12382TIP3    H158637   0.044   0.352  15.506 -1.3252 -0.4072 -0.6580
12382TIP3    H258638   0.086   0.405  15.371  2.3345 -0.1610  0.5209
12383TIP3   OH258639   5.433   5.828   1.039  0.2909 -0.3770 -0.2461
12383TIP3    H158640   5.436   5.751   0.984 -0.6169 -0.6957  0.1441
12383TIP3    H258641   5.493   5.808   1.112  0.5841 -0.4262 -0.5005
12384TIP3   OH258642   0.158   3.502  17.227 -0.2363 -0.1260  0.2108
12384TIP3    H158643   0.158   3.574  17.164 -1.1629 -0.3036  0.0032
12384TIP3    H258644   0.074   3.458  17.213 -0.0343 -0.7395  0.9165
12385TIP3   OH258645   1.424   5.628  11.708  0.0272 -0.3525  0.6547
12385TIP3    H158646   1.512   5.655  11.735 -0.5999  0.9220  1.5010
12385TIP3    H258647   1.376   5.619  11.791 -0.9611  0.1305  0.1380
12386TIP3   OH258648   0.067   5.867  14.836 -0.8156 -0.0893  0.0499
12386TIP3    H158649   0.127   5.854  14.762 -0.6006  0.5839  0.1051
12386TIP3    H258650   0.105   5.939  14.886 -1.6518  0.3421  0.0904
12387TIP3   OH258651   0.870   4.662   4.624  0.3918  0.2899  0.3288
12387TIP3    H158652   0.831   4.702   4.702 -0.9856  0.2691 -0.3192
12387TIP3    H258653   0.959   4.695   4.622 -0.6348  3.1846 -0.0664
12388TIP3   OH258654   3.162   4.744   4.245 -0.0540 -0.1683  0.0218
12388TIP3    H158655   3.107   4.689   4.189 -0.2191  0.3011 -0.2870
12388TIP3    H258656   3.247   4.747   4.201  0.5525 -1.7547  1.0425
12389TIP3   OH258657   2.968   5.572  14.717  0.6275 -0.1399  0.1922
12389TIP3    H158658   2.902   5.532  14.661  1.0415 -0.0746 -0.3424
12389TIP3    H258659   2.980   5.660  14.681  2.1882 -0.7138 -0.7083
12390TIP3   OH258660   3.404   3.629  14.477  0.0363 -0.4091 -0.2836
12390TIP3    H158661   3.433   3.720  14.470 -1.1592  0.1512  1.7696
12390TIP3    H258662   3.484   3.577  14.470  0.8100  0.8278 -0.6456
12391TIP3   OH258663   0.018   5.866   5.546 -0.3200 -0.0822  0.4909
12391TIP3    H158664   0.086   5.868   5.479 -0.6891  0.4217  0.1320
12391TIP3    H258665   0.019   5.776   5.578 -0.7000 -0.5456 -0.7652
12392TIP3   OH258666   0.586   1.295  15.125  0.5524  0.1614 -0.0311
12392TIP3    H158667   0.576   1.202  15.146  1.3018 -0.4187 -2.1242
12392TIP3    H258668   0.502   1.333  15.150 -0.6052 -1.5039 -1.2498
12393TIP3   OH258669   5.897   1.090  15.855  0.0648 -0.2935 -0.7061
12393TIP3    H158670   5.820   1.066  15.907  0.6824  2.3700  1.5565
12393TIP3    H258671   5.964   1.026  15.881 -0.0441  0.1811  0.7914
12394TIP3   OH258672   0.877   3.420  12.372  0.1557  0.0246  0.3867
12394TIP3    H158673   0.820   3.426  12.295 -1.2028 -0.6345  1.3067
12394TIP3    H258674   0.965   3.434  12.338 -0.5826  1.4902 -1.0199
12395TIP3   OH258675   5.426   6.741  14.041 -0.0044  0.6246  0.5150
12395TIP3    H158676   5.336   6.736  14.074  0.1756  0.2742  0.9659
12395TIP3    H258677   5.480   6.733  14.120  0.4123  1.7309  0.3512
12396TIP3   OH258678   0.342   0.565   2.878  0.5690 -0.1252 -0.1929
12396TIP3    H158679   0.415   0.625   2.866 -0.7508  2.1468  2.5004
12396TIP3    H258680   0.264   0.621   2.874 -0.7571 -1.7799  1.3493
12397TIP3   OH258681   0.926   1.059  13.161  0.3006  0.0650 -0.3780
12397TIP3    H158682   0.965   0.984  13.117 -2.0593 -1.8819  0.7534
12397TIP3    H258683   0.979   1.072  13.239  1.8224  0.7611 -1.5069
12398TIP3   OH258684   4.903   6.392   4.528  0.2583  0.4498 -0.2933
12398TIP3    H158685   4.991   6.376   4.495 -0.1793 -2.0119 -0.3984
12398TIP3    H258686   4.846   6.341   4.470 -0.8427 -1.1405  2.0947
12399TIP3   OH258687   5.641   4.254   3.854 -0.2833 -0.1575  0.7018
12399TIP3    H158688   5.628   4.313   3.779  0.4254 -0.4452  0.3526
12399TIP3    H258689   5.617   4.167   3.821 -1.4473 -0.0591  1.2518
12400TIP3   OH258690   5.462   6.188   3.397 -0.6168 -0.0749 -0.3542
12400TIP3    H158691   5.488   6.275   3.427 -3.5460  0.5740  0.4439
12400TIP3    H258692   5.479   6.189   3.302  3.3871 -0.1817  0.2848
12401TIP3   OH258693   3.058   2.353  12.142  0.4155 -0.8666  0.3506
12401TIP3    H158694   3.032   2.441  12.171  1.0047  0.3255 -2.5482
12401TIP3    H258695   3.018   2.294  12.206 -1.8570  1.3786  1.0988
12402TIP3   OH258696   2.919   4.588   3.603  0.4291 -0.4843 -0.3792
12402TIP3    H158697   2.875   4.516   3.649  0.6004 -1.4771 -1.7592
12402TIP3    H258698   2.999   4.549   3.569  0.9566  0.5953 -0.3624
12403TIP3   OH258699   6.363   5.843   4.499  0.1142  0.0981 -0.4722
12403TIP3    H158700   6.405   5.822   4.416 -1.3459 -2.5331 -0.6267
12403TIP3    H258701   6.426   5.815   4.566  1.0205  1.6197 -0.6714
12404TIP3   OH258702   5.637   6.640  12.016  0.4416 -0.2322 -0.1216
12404TIP3    H158703   5.557   6.590  12.000  0.8232 -0.9165  0.0848
12404TIP3    H258704   5.685   6.636  11.934  0.5218 -0.2987 -0.0730
12405TIP3   OH258705   6.160   6.513  13.250  0.0046  0.0866  0.4224
12405TIP3    H158706   6.207   6.514  13.333 -0.0205  1.5534  0.4371
12405TIP3    H258707   6.166   6.423  13.220  1.1585 -0.1637  1.3689
12406TIP3   OH258708   5.706   5.739  15.184  0.4550 -0.4163  0.3988
12406TIP3    H158709   5.729   5.827  15.215 -1.7107  0.1301  0.5305
12406TIP3    H258710   5.733   5.681  15.256 -1.0477  0.4651  1.7101
12407TIP3   OH258711   3.381   6.274  14.414  0.2830  0.5312  0.8592
12407TIP3    H158712   3.372   6.213  14.341  0.8853  1.0602  0.3407
12407TIP3    H258713   3.340   6.355  14.383 -1.4736  0.0808  1.9318
12408TIP3   OH258714   5.982   1.035   4.362  0.3772 -0.7719  0.2579
12408TIP3    H158715   5.946   0.957   4.404  1.2169 -0.8596  0.8235
12408TIP3    H258716   6.074   1.036   4.388 -0.0259  1.3771  1.6683
12409TIP3   OH258717   1.666   3.252  15.233 -0.3180  0.5176  0.1117
12409TIP3    H158718   1.685   3.331  15.282  1.2749 -0.0558  0.4483
12409TIP3    H258719   1.749   3.227  15.193 -0.9209 -0.6614 -0.4488
12410TIP3   OH258720   3.531   1.674  11.940  0.5193 -0.3409  0.1527
12410TIP3    H158721   3.485   1.590  11.931  1.9471 -1.1277  0.0656
12410TIP3    H258722   3.503   1.725  11.863 -0.3651 -0.7237  0.2177
12411TIP3   OH258723   0.421   4.385   1.116 -0.2982 -0.3317  0.3551
12411TIP3    H158724   0.332   4.361   1.090  0.4495 -0.8069 -1.8858
12411TIP3    H258725   0.418   4.480   1.128 -0.1661  0.2749 -3.8266
12412TIP3   OH258726   5.742   0.616   4.996 -0.1966  0.0671 -0.6359
12412TIP3    H158727   5.696   0.535   5.020  1.9707 -1.1762 -0.5077
12412TIP3    H258728   5.792   0.592   4.918  2.3451  0.5496  0.7792
12413TIP3   OH258729   2.650   0.335  11.380 -0.0056  0.0488 -0.1282
12413TIP3    H158730   2.655   0.268  11.312 -0.0943 -0.4847  0.3771
12413TIP3    H258731   2.712   0.305  11.447  0.0786  0.5623  0.0276
12414TIP3   OH258732   4.831   1.861   5.508  0.1590  0.2069 -0.8371
12414TIP3    H158733   4.862   1.825   5.591 -0.9645  1.6690  0.2576
12414TIP3    H258734   4.795   1.947   5.531 -4.8777 -1.3998 -1.8788
12415TIP3   OH258735   0.901   6.115  12.648  0.3521 -0.1703 -0.4783
12415TIP3    H158736   0.836   6.169  12.693  0.6254  0.8648 -1.3004
12415TIP3    H258737   0.974   6.174  12.631  1.3977 -1.2456  0.1656
12416TIP3   OH258738   2.677   6.788   6.555 -0.2093 -0.1706  0.5623
12416TIP3    H158739   2.688   6.822   6.644 -0.0578  0.7445  0.2021
12416TIP3    H258740   2.737   6.714   6.551 -0.7455 -0.6605  1.4498
12417TIP3   OH258741   1.077   4.328  11.384  0.5142  0.1301 -0.4091
12417TIP3    H158742   0.993   4.283  11.373 -0.9335  2.5900  0.1932
12417TIP3    H258743   1.098   4.361  11.296  0.6647 -0.1768 -0.4874
12418TIP3   OH258744   2.794   1.992   3.480  0.2301 -0.4530  0.1425
12418TIP3    H158745   2.798   2.008   3.574 -3.2983 -2.9650  0.8397
12418TIP3    H258746   2.702   2.008   3.457  0.6973 -1.3564 -2.5498
12419TIP3   OH258747   2.986   1.920  16.438 -0.3105  0.2006 -0.5874
12419TIP3    H158748   3.075   1.892  16.415 -0.0035  2.0293 -1.7023
12419TIP3    H258749   2.929   1.866  16.382  0.1619  0.0847 -0.9570
12420TIP3   OH258750   3.335   1.892  16.773  0.0216 -0.0141  0.3528
12420TIP3    H158751   3.341   1.846  16.857  1.5570  2.4553  1.6838
12420TIP3    H258752   3.316   1.983  16.798  0.7006  0.7905 -1.9846
12421TIP3   OH258753   5.156   3.472   4.103 -0.4291  0.1918 -0.1371
12421TIP3    H158754   5.233   3.422   4.130 -0.2546  0.3167 -0.4022
12421TIP3    H258755   5.146   3.452   4.010 -1.4573 -0.8115  0.1799
12422TIP3   OH258756   5.578   5.630   0.880  0.4596  0.4006 -0.2403
12422TIP3    H158757   5.662   5.585   0.887  1.2819  2.0656  0.8677
12422TIP3    H258758   5.563   5.640   0.786  0.9501 -0.8896 -0.4607
12423TIP3   OH258759   3.581   2.691  14.584 -0.1117  0.2233 -0.3769
12423TIP3    H158760   3.512   2.746  14.546  0.1562  0.1673 -0.9583
12423TIP3    H258761   3.603   2.630  14.513 -0.5209 -0.7389  0.3091
12424TIP3   OH258762   6.580   1.740   0.438  0.2052  0.2932 -0.9046
12424TIP3    H158763   6.496   1.765   0.398 -0.4390 -1.5530 -0.7422
12424TIP3    H258764   6.608   1.663   0.389  2.5426  1.7419 -1.8898
12425TIP3   OH258765   1.027   0.074   5.847 -0.2211 -0.0534 -0.4581
12425TIP3    H158766   0.999   0.092   5.757 -3.5524 -0.0535  0.5082
12425TIP3    H258767   1.042  -0.020   5.849 -2.0168 -0.3564 -0.5529
12426TIP3   OH258768   4.581   2.390  13.397  0.8656  0.3113  0.1706
12426TIP3    H158769   4.653   2.360  13.453  0.5092 -0.1459  0.3928
12426TIP3    H258770   4.515   2.422  13.458  1.6642  2.5827 -0.1008
12427TIP3   OH258771   3.664   2.039  16.792 -0.1349 -0.1911  0.6169
12427TIP3    H158772   3.711   2.123  16.796  0.6068 -0.5610 -0.0041
12427TIP3    H258773   3.642   2.029  16.699 -2.0326  0.2817  1.0034
12428TIP3   OH258774   4.458   6.487  14.899  0.0858  0.0531 -0.1206
12428TIP3    H158775   4.516   6.413  14.918 -1.2480 -0.8332  0.6249
12428TIP3    H258776   4.373   6.461  14.935 -0.4789  1.8447 -0.0887
12429TIP3   OH258777   0.155   3.573   3.558 -0.2782  0.1265  0.3277
12429TIP3    H158778   0.197   3.547   3.476  2.3657  1.7914  1.1022
12429TIP3    H258779   0.094   3.643   3.533 -1.7613 -1.4678 -0.6240
12430TIP3   OH258780   6.378   2.961   4.656 -0.2557  0.4862 -0.0884
12430TIP3    H158781   6.444   2.898   4.625 -0.9285 -0.6097  0.6588
12430TIP3    H258782   6.392   2.966   4.751 -0.9467  0.5936  0.0141
12431TIP3   OH258783   3.024   2.890   1.051 -0.4641  0.3095  0.3389
12431TIP3    H158784   3.009   2.903   1.145 -1.5341 -0.4243  0.2649
12431TIP3    H258785   2.939   2.902   1.010 -0.0672  0.2850 -0.5168
12432TIP3   OH258786   2.697   3.746   1.056  0.1752 -0.6299  0.6111
12432TIP3    H158787   2.715   3.816   0.992 -2.1755  1.0634  1.7088
12432TIP3    H258788   2.774   3.745   1.112  1.1001 -0.2905 -0.6243
12433TIP3   OH258789   5.356   5.024   1.555 -0.0322  0.2874 -0.6779
12433TIP3    H158790   5.272   5.066   1.540  0.1903  0.7132 -0.7385
12433TIP3    H258791   5.386   5.058   1.640  0.5484  0.9173 -1.1320
12434TIP3   OH258792   5.929   5.612   5.682  0.3282  0.0624  0.6521
12434TIP3    H158793   5.988   5.539   5.700 -0.1721 -0.8359 -1.2888
12434TIP3    H258794   5.845   5.571   5.661  0.0410  1.2042 -0.4827
12435TIP3   OH258795   0.462   0.701  11.526  0.3194 -0.5044  0.1105
12435TIP3    H158796   0.521   0.777  11.530 -1.4805  0.9229  0.4056
12435TIP3    H258797   0.391   0.723  11.586 -1.0781 -1.6847 -1.0646
12436TIP3   OH258798   6.539   5.085  13.483 -0.5826 -0.0169 -0.0433
12436TIP3    H158799   6.604   5.055  13.420 -1.1854 -0.8339 -0.2844
12436TIP3    H258800   6.567   5.047  13.566 -1.1301 -0.9400 -0.2767
12437TIP3   OH258801   3.842   3.615  13.467 -0.1388 -1.0560  0.2861
12437TIP3    H158802   3.865   3.592  13.557 -1.2789 -1.9574  0.3438
12437TIP3    H258803   3.867   3.708  13.460  0.6320 -1.1710  1.2951
12438TIP3   OH258804   0.809   2.102   5.389  0.1653 -0.2606  0.0876
12438TIP3    H158805   0.852   2.188   5.398 -0.1437 -0.2728  1.8861
12438TIP3    H258806   0.837   2.070   5.303 -0.9851  2.3307 -1.3042
12439TIP3   OH258807   2.071   3.322   6.649 -0.0300  0.6799 -0.1762
12439TIP3    H158808   2.033   3.274   6.575 -0.9420 -0.7631  1.1807
12439TIP3    H258809   2.162   3.293   6.651 -0.1152  0.3769 -0.4603
12440TIP3   OH258810   1.992   2.261  17.210  0.2165  0.3790 -0.1748
12440TIP3    H158811   1.996   2.298  17.122  1.1105  2.0257  0.5286
12440TIP3    H258812   1.908   2.215  17.213  0.3761 -0.0819 -2.0138
12441TIP3   OH258813   3.102   1.497  10.526 -0.2445  0.4534  0.6357
12441TIP3    H158814   3.039   1.546  10.473  0.6740  0.8720 -0.0841
12441TIP3    H258815   3.136   1.430  10.466 -0.1627  0.0915  1.0875
12442TIP3   OH258816   4.012   2.555   0.717 -0.3571 -0.6592 -0.2027
12442TIP3    H158817   4.016   2.575   0.623  0.6777 -0.9222 -0.2205
12442TIP3    H258818   3.992   2.462   0.720  2.6242 -1.3445 -0.2133
12443TIP3   OH258819   0.319   5.802  16.826  0.1511  0.3438 -0.2663
12443TIP3    H158820   0.254   5.856  16.780 -0.6395 -0.2155  0.1869
12443TIP3    H258821   0.328   5.844  16.911  1.2198  1.0679 -0.7308
12444TIP3   OH258822   4.657   0.959  12.318  0.5263  0.0770  0.1169
12444TIP3    H158823   4.677   0.978  12.410 -0.0861  1.6475 -0.0510
12444TIP3    H258824   4.741   0.937  12.279  1.2301  1.9981  0.4752
12445TIP3   OH258825   5.743   1.000   2.027 -0.0386  0.5145 -0.4998
12445TIP3    H158826   5.687   1.057   2.079  2.8503  1.6381  1.5238
12445TIP3    H258827   5.790   1.059   1.968  0.4225 -0.1485 -0.8080
12446TIP3   OH258828   3.074   3.191  15.264  0.2739 -0.0723  0.0648
12446TIP3    H158829   3.119   3.212  15.182 -0.5500  0.3848 -0.2712
12446TIP3    H258830   2.982   3.208  15.246  0.0883  0.0443  1.0943
12447TIP3   OH258831   0.860   0.235  14.096 -0.4063  0.1292 -0.0672
12447TIP3    H158832   0.882   0.322  14.063 -2.2725  0.8588  0.5459
12447TIP3    H258833   0.918   0.176  14.047 -0.9387  1.4583 -2.3818
12448TIP3   OH258834   0.551   1.220   5.179  0.7486 -0.8669 -0.2715
12448TIP3    H158835   0.513   1.263   5.256  0.8358  0.9934 -1.2327
12448TIP3    H258836   0.517   1.131   5.182 -1.3891 -0.0650  0.4870
12449TIP3   OH258837   6.599   3.206  11.716  0.2168 -0.3652 -0.0734
12449TIP3    H158838   6.669   3.265  11.687  0.2394  0.4444  1.5701
12449TIP3    H258839   6.644   3.124  11.735  0.4988 -0.2927 -0.4157
12450TIP3   OH258840   4.739   3.300   4.973 -0.1263 -0.4152  0.2073
12450TIP3    H158841   4.763   3.380   5.019  3.5261 -2.2220  1.6412
12450TIP3    H258842   4.716   3.238   5.043  0.0983 -1.5417 -0.6956
12451TIP3   OH258843   5.055   5.861  11.874  0.0929  0.2921  0.0976
12451TIP3    H158844   5.034   5.953  11.853 -0.1125  0.4832  1.1185
12451TIP3    H258845   5.036   5.853  11.968  0.1179 -0.7966  0.0123
12452TIP3   OH258846   4.672   2.758   4.924  0.3134 -0.0720 -0.3009
12452TIP3    H158847   4.692   2.790   5.012  0.8128 -2.5862  0.5285
12452TIP3    H258848   4.644   2.836   4.876  1.4707  1.5790  1.6536
12453TIP3   OH258849   3.028   6.503   5.240  0.7798 -0.2784  0.0474
12453TIP3    H158850   2.945   6.541   5.213  0.6822 -0.6442 -0.1646
12453TIP3    H258851   3.093   6.543   5.183  0.5620 -1.1374 -0.8195
12454TIP3   OH258852   1.394   5.264  11.792 -0.3630 -0.0396 -0.1673
12454TIP3    H158853   1.453   5.221  11.731 -1.4272  0.3102 -1.4634
12454TIP3    H258854   1.452   5.306  11.856  0.8457  1.6134 -2.2875
12455TIP3   OH258855   6.812   4.784   6.148 -0.4274 -0.0427  0.0856
12455TIP3    H158856   6.834   4.691   6.155 -0.5006 -0.1446 -0.9944
12455TIP3    H258857   6.729   4.785   6.100 -0.1798  0.6087 -0.3265
12456TIP3   OH258858   3.495   4.558   3.969 -0.1621 -0.4822  0.2575
12456TIP3    H158859   3.467   4.525   4.054  1.2658 -0.1941  0.8508
12456TIP3    H258860   3.579   4.601   3.986  0.2465 -0.6250 -1.3287
12457TIP3   OH258861   3.228   4.972  12.497 -0.4938  0.0719  0.2495
12457TIP3    H158862   3.208   4.904  12.561  3.3035 -0.1018  1.3556
12457TIP3    H258863   3.244   5.050  12.549  3.4738 -0.2721 -0.3162
12458TIP3   OH258864   6.792   4.243  11.211  0.6846 -0.2916 -0.5312
12458TIP3    H158865   6.850   4.243  11.287  0.7458  1.6348 -0.5665
12458TIP3    H258866   6.845   4.279  11.140  0.1670 -0.7078 -1.1392
12459TIP3   OH258867   4.194   2.479   4.754  0.1336  0.0915  0.0811
12459TIP3    H158868   4.136   2.554   4.742 -0.3860 -0.1811  0.8328
12459TIP3    H258869   4.282   2.515   4.747 -0.1183  0.6824 -0.0503
12460TIP3   OH258870   6.095   3.604   1.230 -0.2990  0.8212  0.1425
12460TIP3    H158871   6.111   3.623   1.138  0.4049 -3.4871 -0.7244
12460TIP3    H258872   6.004   3.574   1.233 -0.1421  0.4027  0.7947
12461TIP3   OH258873   6.126   2.552  17.083  0.2705  0.0378  0.1575
12461TIP3    H158874   6.201   2.528  17.138  1.2423  1.3214 -0.5938
12461TIP3    H258875   6.142   2.643  17.060 -1.0383  0.0228 -0.8091
12462TIP3   OH258876   5.201   2.362   3.772  0.2746  0.5253  0.2224
12462TIP3    H158877   5.161   2.402   3.849  0.8517  0.0595  0.7739
12462TIP3    H258878   5.160   2.405   3.698 -0.5834  0.6943  0.7927
12463TIP3   OH258879   0.057   6.540  15.189  0.8622 -0.2034  0.0742
12463TIP3    H158880   0.001   6.546  15.267  3.1257 -0.1300  1.7434
12463TIP3    H258881   0.025   6.462  15.143 -1.2112  0.3646  0.4599
12464TIP3   OH258882   1.484   6.178   1.514  0.0564  0.7231 -0.5993
12464TIP3    H158883   1.522   6.231   1.584  1.1210 -0.8511  0.0508
12464TIP3    H258884   1.543   6.190   1.439  2.1233 -1.9795  0.5088
12465TIP3   OH258885   3.573   2.718   4.552 -0.4031 -0.3728 -0.4951
12465TIP3    H158886   3.552   2.748   4.640  2.3754  0.4294 -0.0658
12465TIP3    H258887   3.488   2.699   4.512 -1.7551  0.3700  1.9459
12466TIP3   OH258888   6.731   2.107  16.119 -0.1848 -0.0201  0.1269
12466TIP3    H158889   6.794   2.036  16.120 -2.1791 -1.9090 -1.8268
12466TIP3    H258890   6.784   2.186  16.111  2.0235 -1.3160  1.3534
12467TIP3   OH258891   5.836   2.164   5.739 -0.2726  0.1547 -0.1951
12467TIP3    H158892   5.829   2.075   5.703 -2.1065  0.4911 -0.7030
12467TIP3    H258893   5.825   2.152   5.833 -0.4852 -0.1564 -0.2578
12468TIP3   OH258894   3.278   3.166  14.049  0.9554  0.3771 -0.3731
12468TIP3    H158895   3.363   3.144  14.087  0.8630 -0.0804 -0.4242
12468TIP3    H258896   3.261   3.096  13.986  0.8538  0.8388 -0.8637
12469TIP3   OH258897   1.610   4.905  15.038 -0.0357 -0.1520  0.6124
12469TIP3    H158898   1.642   4.815  15.036  0.4472 -0.0149  1.8255
12469TIP3    H258899   1.581   4.918  15.128 -0.6989  0.7021  0.2840
12470TIP3   OH258900   0.699   5.043  15.272 -0.1528  0.0575  0.2758
12470TIP3    H158901   0.616   5.030  15.319 -0.2335  0.4546  0.2526
12470TIP3    H258902   0.718   5.136  15.285  0.2170 -0.0040  0.1579
12471TIP3   OH258903   5.797   0.627  11.423  0.0640 -0.0066 -0.5918
12471TIP3    H158904   5.810   0.697  11.359 -1.3379  3.1567  2.4329
12471TIP3    H258905   5.882   0.616  11.464  0.2056  0.2235 -0.8229
12472TIP3   OH258906   1.170   5.461   1.344  0.1350  0.7655  0.2701
12472TIP3    H158907   1.151   5.373   1.377 -2.2292  0.9534 -0.4797
12472TIP3    H258908   1.257   5.455   1.306 -0.2312 -1.4129 -0.2685
12473TIP3   OH258909   6.356   5.087   6.365 -0.0520 -0.0007 -0.4219
12473TIP3    H158910   6.335   5.034   6.442  0.9937 -1.6493 -1.2428
12473TIP3    H258911   6.414   5.156   6.398 -0.9009  0.2592  0.5440
12474TIP3   OH258912   3.148   0.594  13.586  0.3308  0.3235 -0.1408
12474TIP3    H158913   3.241   0.614  13.599  1.3095 -2.0813 -2.9823
12474TIP3    H258914   3.132   0.614  13.494 -1.5164 -0.9159 -0.1054
12475TIP3   OH258915   4.379   5.452   0.960 -0.2217 -0.7376  0.3693
12475TIP3    H158916   4.430   5.372   0.946  0.8129 -0.1819  0.8791
12475TIP3    H258917   4.310   5.426   1.020 -0.1483 -1.3515  0.1922
12476TIP3   OH258918   1.665   6.351   4.000 -0.0346  0.7019  0.2691
12476TIP3    H158919   1.585   6.318   3.958  0.8651 -1.1909 -0.0047
12476TIP3    H258920   1.717   6.386   3.927  0.6837 -0.8169  0.0395
12477TIP3   OH258921   4.729   4.326   1.165  0.3652 -0.1382  0.1712
12477TIP3    H158922   4.679   4.380   1.226  0.3115 -1.8309  1.6825
12477TIP3    H258923   4.709   4.236   1.191  0.2424 -0.9164 -2.4527
12478TIP3   OH258924   0.844   3.478   1.541  0.0190  0.0482  0.2228
12478TIP3    H158925   0.795   3.559   1.554  0.9999  0.7400 -0.3441
12478TIP3    H258926   0.830   3.428   1.621 -0.7631  0.6812  0.4844
12479TIP3   OH258927   0.509   5.643  14.652  0.6283 -0.4344 -0.1439
12479TIP3    H158928   0.557   5.563  14.629 -1.7414 -2.5499  1.9127
12479TIP3    H258929   0.495   5.636  14.746 -0.9377  1.6759 -0.1920
12480TIP3   OH258930   4.796   1.295  10.838 -0.4806  0.2617 -0.8456
12480TIP3    H158931   4.707   1.330  10.844  0.3555  2.3693 -0.3168
12480TIP3    H258932   4.809   1.277  10.745 -1.2043  0.6612 -1.0233
12481TIP3   OH258933   5.310   2.685   1.582 -0.2156  0.0526  0.2932
12481TIP3    H158934   5.381   2.725   1.532 -0.3390  1.0682  0.9208
12481TIP3    H258935   5.262   2.633   1.518  0.0763  0.7380 -0.4851
12482TIP3   OH258936   5.015   0.477   6.296  0.0293  0.0137 -0.1705
12482TIP3    H158937   5.067   0.397   6.303 -0.7558 -0.6258 -1.4957
12482TIP3    H258938   5.077   0.547   6.315  0.8171 -0.8845  0.6142
12483TIP3   OH258939   2.391   3.093   3.999 -0.1165  0.0429  0.6502
12483TIP3    H158940   2.436   3.102   4.083  0.8126  1.1472  0.0500
12483TIP3    H258941   2.440   3.024   3.954 -1.4420 -1.5165  1.5176
12484TIP3   OH258942   5.255   4.206   2.638  0.0658  0.7322  0.2703
12484TIP3    H158943   5.180   4.152   2.612  0.5106  0.0895  0.3241
12484TIP3    H258944   5.216   4.290   2.662 -0.5971  0.5443 -0.1219
12485TIP3   OH258945   2.911   5.982  15.865 -0.2521 -0.1591  0.0532
12485TIP3    H158946   2.837   5.927  15.893 -0.0825  0.3899  1.6469
12485TIP3    H258947   2.986   5.921  15.863 -0.1540 -0.1043  1.3869
12486TIP3   OH258948   2.022   3.808  15.861 -0.3923  0.3157 -0.1053
12486TIP3    H158949   2.080   3.882  15.844  1.6973 -1.1753  0.4089
12486TIP3    H258950   1.986   3.825  15.948  3.0153 -1.0694  1.6818
12487TIP3   OH258951   2.925   5.442  15.948  0.0702  0.3678 -0.5194
12487TIP3    H158952   2.934   5.460  16.042  0.6694 -0.9832 -0.3025
12487TIP3    H258953   2.960   5.353  15.938 -0.2065  0.4225 -1.9870
12488TIP3   OH258954   5.227   0.912  13.463 -0.1526  0.0748  0.1537
12488TIP3    H158955   5.308   0.883  13.421 -0.5644 -0.1817 -0.4648
12488TIP3    H258956   5.214   0.850  13.534 -0.0804 -0.1942 -0.0651
12489TIP3   OH258957   0.226   4.495   5.934 -0.0279 -0.3242 -0.3020
12489TIP3    H158958   0.154   4.470   5.993  0.4103  0.0068  0.3845
12489TIP3    H258959   0.256   4.412   5.897  0.4182 -0.6737  0.8025
12490TIP3   OH258960   2.793   0.603   0.728 -0.5594 -0.6693  0.8378
12490TIP3    H158961   2.783   0.572   0.818 -0.9744 -2.0323  0.3262
12490TIP3    H258962   2.844   0.535   0.684  1.6420  1.0545  0.6022
12491TIP3   OH258963   4.529   2.505  13.719  0.4064 -0.2049 -0.3931
12491TIP3    H158964   4.536   2.587  13.671  0.5993 -0.8675 -1.5165
12491TIP3    H258965   4.440   2.473  13.700  0.1905 -0.0765  0.3551
12492TIP3   OH258966   4.239   4.449   0.554 -0.3536  0.3502  0.4375
12492TIP3    H158967   4.333   4.452   0.566 -0.6614  0.5627  2.9684
12492TIP3    H258968   4.208   4.533   0.587 -1.6233 -0.5443  1.5831
12493TIP3   OH258969   3.409   3.552   0.698  0.3410  0.2539  0.2233
12493TIP3    H158970   3.434   3.538   0.789  2.3128  1.5814 -0.0698
12493TIP3    H258971   3.451   3.481   0.650  1.3583  0.9446  0.0681
12494TIP3   OH258972   2.283   4.777  15.002  0.2982  0.7147  0.3266
12494TIP3    H158973   2.194   4.742  14.994  0.8383 -0.5361 -0.2330
12494TIP3    H258974   2.271   4.862  15.044 -1.2244  0.8174 -0.2815
12495TIP3   OH258975   6.011   0.353   3.808 -0.5022 -0.2997  0.5114
12495TIP3    H158976   6.037   0.409   3.881 -3.6661 -1.3473  2.5154
12495TIP3    H258977   5.919   0.371   3.794 -0.6243 -2.1509 -1.4262
12496TIP3   OH258978   2.072   4.252  11.590 -0.4144  0.6332 -0.0930
12496TIP3    H158979   2.108   4.224  11.506 -0.5491  0.1306  0.0163
12496TIP3    H258980   2.085   4.177  11.648  2.1276  1.8841  1.0635
12497TIP3   OH258981   0.214   6.323   1.681 -0.0898 -0.0368 -0.1542
12497TIP3    H158982   0.133   6.367   1.707 -0.7426 -1.4247  0.1789
12497TIP3    H258983   0.186   6.238   1.648  1.1872 -0.3221 -0.5237
12498TIP3   OH258984   2.968   3.273   4.211  0.0465 -0.3034 -0.0534
12498TIP3    H158985   3.017   3.261   4.130 -1.7966 -1.1463 -1.0581
12498TIP3    H258986   2.880   3.295   4.183 -0.2214  1.0028  1.7408
12499TIP3   OH258987   0.614   0.476   5.265 -0.1366 -0.2182  0.3744
12499TIP3    H158988   0.577   0.407   5.211 -2.5009 -0.0956  1.7594
12499TIP3    H258989   0.640   0.545   5.204 -0.6260 -1.0317 -0.7503
12500TIP3   OH258990   3.189   1.129   5.217 -0.3666  0.4186  0.5915
12500TIP3    H158991   3.241   1.054   5.191 -0.0345  0.7830  0.2107
12500TIP3    H258992   3.232   1.162   5.296  0.2901  1.0397 -0.0249
12501TIP3   OH258993   5.571   2.911   3.099  0.0614  0.2543 -0.0638
12501TIP3    H158994   5.626   2.938   3.026  0.4261 -2.8884 -1.0030
12501TIP3    H258995   5.630   2.912   3.175  0.2767  1.1731 -0.2336
12502TIP3   OH258996   2.188   3.255   2.103 -0.3397  0.2633  0.3948
12502TIP3    H158997   2.217   3.309   2.176 -0.8570  0.7381  0.2492
12502TIP3    H258998   2.217   3.302   2.025  0.7146 -0.5241  0.2895
12503TIP3   OH258999   2.569   6.685   4.778 -0.5131  0.5768  0.2185
12503TIP3    H159000   2.649   6.688   4.726 -0.4077  0.3237  0.3673
12503TIP3    H259001   2.583   6.614   4.841 -0.4777  1.1649  0.8655
12504TIP3   OH259002   1.967   5.195  13.709 -0.2706  0.1998  0.5172
12504TIP3    H159003   1.889   5.185  13.763 -0.1725  1.0656  0.8328
12504TIP3    H259004   1.935   5.228  13.626 -0.3369 -0.3775  0.3085
12505TIP3   OH259005   2.965   6.375  10.923 -0.0738 -0.7869 -0.1859
12505TIP3    H159006   2.998   6.464  10.936  0.8668 -1.0439 -0.8008
12505TIP3    H259007   2.871   6.387  10.908 -0.1772 -0.0078  0.9723
12506TIP3   OH259008   4.864   1.836  12.243 -0.5603  0.2628  0.1046
12506TIP3    H159009   4.885   1.928  12.227  2.5237 -0.5383 -0.8071
12506TIP3    H259010   4.812   1.810  12.167 -1.0096  1.1008  0.1148
12507TIP3   OH259011   3.205   5.678   0.936  0.3003  0.1244  0.0146
12507TIP3    H159012   3.123   5.703   0.979  0.0659  1.1157 -0.9870
12507TIP3    H259013   3.271   5.685   1.005 -0.4622 -0.8237  0.8643
12508TIP3   OH259014   6.192   2.472  14.763 -0.1490  0.2094  0.4084
12508TIP3    H159015   6.245   2.522  14.824  1.6930  0.1360 -1.0774
12508TIP3    H259016   6.128   2.535  14.729  0.2099  0.7880  0.8060
12509TIP3   OH259017   0.937   3.777   4.038 -0.3103 -0.3148 -0.1532
12509TIP3    H159018   0.951   3.849   4.100  1.1187 -0.8400  0.1515
12509TIP3    H259019   0.852   3.796   3.998 -0.1418  1.3129  0.2300
12510TIP3   OH259020   6.513   5.418  15.861  0.1600  0.1424  0.1995
12510TIP3    H159021   6.549   5.353  15.800  1.0508  0.3979  0.4436
12510TIP3    H259022   6.445   5.370  15.909 -0.1366 -0.2263 -0.5765
12511TIP3   OH259023   1.032   1.959  11.638  0.1290 -0.1741  0.3986
12511TIP3    H159024   0.945   1.999  11.640  0.3442  0.3453 -0.3454
12511TIP3    H259025   1.038   1.920  11.551  1.2014  1.0914 -0.1280
12512TIP3   OH259026   4.312   4.069  15.731  0.3956 -0.5317 -0.0038
12512TIP3    H159027   4.351   4.156  15.718  0.3444 -0.4889  0.1190
12512TIP3    H259028   4.315   4.027  15.645 -1.5257  0.3862 -0.5392
12513TIP3   OH259029   1.869   3.255   2.846 -0.1218 -0.3375 -0.2478
12513TIP3    H159030   1.796   3.288   2.899 -0.7156  2.4993 -2.7017
12513TIP3    H259031   1.828   3.196   2.784  0.0458 -0.7298  0.0128
12514TIP3   OH259032   1.575   1.068  16.591  0.4380  0.3228  0.2816
12514TIP3    H159033   1.582   1.159  16.619  1.3143  0.7366 -1.2431
12514TIP3    H259034   1.596   1.069  16.498  0.5992 -1.4602  0.2682
12515TIP3   OH259035   0.325   3.511  12.228  0.1666  0.0102 -0.2260
12515TIP3    H159036   0.321   3.416  12.223  1.2739 -0.0694  0.1444
12515TIP3    H259037   0.280   3.532  12.310  0.8039 -0.2742  0.2000
12516TIP3   OH259038   5.035   6.794  12.994  0.0717  0.7274  0.0427
12516TIP3    H159039   5.057   6.826  13.082 -0.5427  1.0519  0.0821
12516TIP3    H259040   5.116   6.754  12.962  0.8948  2.4203 -0.0468
12517TIP3   OH259041   6.769   5.448   1.976  0.3036  0.2875 -0.2450
12517TIP3    H159042   6.732   5.449   2.064 -3.0874 -4.0295 -1.4578
12517TIP3    H259043   6.790   5.356   1.960  3.0518  1.3419 -3.1284
12518TIP3   OH259044   0.915   4.033   2.762 -0.1340  0.4435 -0.5009
12518TIP3    H159045   0.883   3.951   2.725 -0.6905 -0.4357  1.8597
12518TIP3    H259046   0.841   4.093   2.754 -0.6541 -0.0892  0.2271
12519TIP3   OH259047   6.591   3.731   6.544 -0.0748  0.3999  0.6279
12519TIP3    H159048   6.545   3.815   6.554 -1.2767 -0.2335  0.4941
12519TIP3    H259049   6.673   3.754   6.499 -0.6704  1.4273  0.0465
12520TIP3   OH259050   4.525   4.549  13.566  0.1591  0.2224  0.6100
12520TIP3    H159051   4.610   4.569  13.603 -1.0549  2.1956  2.3986
12520TIP3    H259052   4.504   4.462  13.600  1.6251 -0.4910 -0.2315
12521TIP3   OH259053   5.057   6.120   3.222 -0.0972  0.2476 -0.3785
12521TIP3    H159054   5.052   6.196   3.163 -1.3566  0.0928 -0.4800
12521TIP3    H259055   5.134   6.072   3.192  0.7378  1.4905 -0.3018
12522TIP3   OH259056   5.068   4.221  12.181 -0.3501  0.1403 -0.1422
12522TIP3    H159057   5.053   4.164  12.106  1.4291 -0.0462 -0.3848
12522TIP3    H259058   5.078   4.308  12.144 -1.1226  0.3133  0.0467
12523TIP3   OH259059   0.553   1.431  16.782  0.3806  0.4523 -0.5994
12523TIP3    H159060   0.514   1.446  16.868 -1.4052  2.2448 -1.6632
12523TIP3    H259061   0.479   1.404  16.727  0.9055  2.2255 -2.2429
12524TIP3   OH259062   1.912   3.964  14.606  0.5391  0.7597 -0.2944
12524TIP3    H159063   1.918   4.059  14.615 -0.0701  0.7401  0.3313
12524TIP3    H259064   1.865   3.935  14.684 -0.0181  0.0298 -0.8950
12525TIP3   OH259065   6.757   1.747   0.985 -0.1821  0.1143 -0.3923
12525TIP3    H159066   6.685   1.751   0.921 -0.1855  0.9999 -0.3283
12525TIP3    H259067   6.713   1.730   1.068 -0.4831  2.4804 -0.0521
12526TIP3   OH259068   6.282   2.257   0.038  0.2036  0.3041  0.0089
12526TIP3    H159069   6.187   2.266   0.050 -0.0929  0.2344 -1.9981
12526TIP3    H259070   6.310   2.343   0.005  1.0141  0.6432  1.5659
12527TIP3   OH259071   4.483   2.652   2.705 -0.6858 -0.2925 -0.0008
12527TIP3    H159072   4.547   2.647   2.635  1.1474 -0.4426  1.6448
12527TIP3    H259073   4.516   2.593   2.772 -1.7243  0.7972  1.5104
12528TIP3   OH259074   4.296   5.231  10.246 -0.0711  0.4723 -0.3761
12528TIP3    H159075   4.287   5.153  10.301 -0.0496  0.0940 -0.8974
12528TIP3    H259076   4.389   5.237  10.227 -0.2815 -0.3751 -1.7451
12529TIP3   OH259077   2.867   5.925   3.912  0.1815  0.3747  0.1143
12529TIP3    H159078   2.783   5.889   3.942 -0.4305  1.0300 -0.7898
12529TIP3    H259079   2.885   5.997   3.972 -1.4466  2.2070 -1.5422
12530TIP3   OH259080   6.487   0.943   2.845 -0.1456  0.0111 -0.1945
12530TIP3    H159081   6.527   1.023   2.881 -0.5390  0.4133 -0.6397
12530TIP3    H259082   6.448   0.899   2.920  1.9154 -0.8437  0.3988
12531TIP3   OH259083   6.283   6.472  14.793  0.0043  0.7403 -0.4491
12531TIP3    H159084   6.282   6.443  14.885 -1.0161 -0.7414 -0.9176
12531TIP3    H259085   6.333   6.553  14.795  2.4907 -0.7411  0.9937
12532TIP3   OH259086   3.188   0.292   1.354 -0.3973 -0.4814 -0.1106
12532TIP3    H159087   3.195   0.198   1.339 -4.1346 -0.8220 -0.2303
12532TIP3    H259088   3.179   0.330   1.267 -2.6597 -0.4453  0.1100
12533TIP3   OH259089   6.790   0.955   2.989 -0.2719  0.9471  0.1784
12533TIP3    H159090   6.773   0.940   3.082 -0.2221 -0.1671  0.0148
12533TIP3    H259091   6.714   1.004   2.959 -3.0066 -3.3924 -0.3959
12534TIP3   OH259092   3.715   0.221  11.613 -0.5327 -0.1554 -0.5588
12534TIP3    H159093   3.701   0.128  11.594  0.2479  0.0117 -2.0533
12534TIP3    H259094   3.758   0.255  11.535  0.3919  1.1841  0.5043
12535TIP3   OH259095   6.791   5.862  14.267  0.2612 -0.3304 -0.2741
12535TIP3    H159096   6.756   5.887  14.352  0.2091 -1.9030  0.1687
12535TIP3    H259097   6.716   5.830  14.218  0.1773  1.1375 -1.1486
12536TIP3   OH259098   4.658   0.086  14.338  0.4483 -0.0945 -0.0362
12536TIP3    H159099   4.607   0.011  14.308 -1.2120  0.6414  0.8700
12536TIP3    H259100   4.739   0.083  14.287  0.9439 -3.2158  0.8786
12537TIP3   OH259101   1.768   6.496   0.208 -0.6571  0.1509 -0.1223
12537TIP3    H159102   1.685   6.472   0.251 -0.8686  0.0798 -0.5752
12537TIP3    H259103   1.809   6.412   0.188 -1.4464  0.1599 -1.8041
12538TIP3   OH259104   3.149   5.094   4.893 -0.3156  0.2995  0.1210
12538TIP3    H159105   3.241   5.099   4.919 -0.5214  2.4320  0.5047
12538TIP3    H259106   3.150   5.094   4.798  0.2077 -2.6709  0.0901
12539TIP3   OH259107   3.889   1.042  15.818  0.2295  0.9050 -0.1741
12539TIP3    H159108   3.912   1.030  15.726  3.0350 -0.6361  0.6668
12539TIP3    H259109   3.967   1.081  15.857 -0.2459 -0.1645  1.9003
12540TIP3   OH259110   6.216   1.010   5.694  0.0604 -0.2791  0.1608
12540TIP3    H159111   6.143   0.969   5.740 -0.6893  0.0040 -0.7452
12540TIP3    H259112   6.285   1.019   5.759 -0.9064 -0.0705  1.1579
12541TIP3   OH259113   2.466   5.493  12.342  0.0993  0.3810 -0.1218
12541TIP3    H159114   2.562   5.489  12.335  0.0462  0.3757 -0.8090
12541TIP3    H259115   2.445   5.585  12.327  0.0141  0.4374  0.3173
12542TIP3   OH259116   1.527   4.525  11.431  0.1605 -0.0484 -0.0597
12542TIP3    H159117   1.437   4.543  11.406  0.4891  0.8872 -0.5850
12542TIP3    H259118   1.520   4.473  11.511 -0.8229  1.6451  0.9817
12543TIP3   OH259119   6.188   0.511   0.297  0.1451  0.1508 -0.2578
12543TIP3    H159120   6.231   0.595   0.313 -1.9031  0.7807  2.3823
12543TIP3    H259121   6.095   0.532   0.296 -0.3693 -2.0079 -0.0966
12544TIP3   OH259122   4.946   1.822  14.898 -0.7419 -0.0543  0.3182
12544TIP3    H159123   4.940   1.754  14.832 -1.6430 -0.0005  0.3427
12544TIP3    H259124   5.025   1.871  14.875 -0.8149 -0.3004 -0.4583
12545TIP3   OH259125   6.756   5.442  12.948  0.1998 -0.2776  0.4792
12545TIP3    H159126   6.701   5.386  13.002 -1.1463 -0.4707 -1.0388
12545TIP3    H259127   6.729   5.422  12.858 -1.7593  4.1967 -0.0733
12546TIP3   OH259128   0.822   0.894   4.695 -0.0656 -0.8074  0.1222
12546TIP3    H159129   0.770   0.918   4.772  0.0537 -1.8365  0.5277
12546TIP3    H259130   0.905   0.940   4.709 -0.6134  0.3165 -0.2076
12547TIP3   OH259131   6.320   0.745   1.585 -0.5121 -0.4259  0.6996
12547TIP3    H159132   6.349   0.787   1.666 -0.1484 -1.2400  0.9924
12547TIP3    H259133   6.387   0.769   1.521  0.0446 -1.1153  1.0278
12548TIP3   OH259134   6.740   2.704  14.379 -0.3071 -0.7005 -0.0906
12548TIP3    H159135   6.700   2.619  14.397  0.0185 -1.1521 -1.4601
12548TIP3    H259136   6.823   2.702  14.426 -0.8446 -0.6632  0.8659
12549TIP3   OH259137   0.711   6.086   1.887 -0.0784  0.1992 -0.3476
12549TIP3    H159138   0.638   6.087   1.825  0.2669  1.3594 -0.7484
12549TIP3    H259139   0.679   6.035   1.962 -1.4614  1.1048 -0.3130
12550TIP3   OH259140   4.725   1.157  15.361  0.5173 -0.3093 -0.1510
12550TIP3    H159141   4.728   1.186  15.270 -1.4250  0.8203  0.1230
12550TIP3    H259142   4.797   1.203  15.403  1.2095 -0.5671 -1.0294
12551TIP3   OH259143   2.830   2.674   2.078  0.3577  0.2149 -0.1487
12551TIP3    H159144   2.797   2.623   2.004 -0.8945  0.0887  0.4850
12551TIP3    H259145   2.760   2.736   2.098  0.4383 -0.1313  1.2884
12552TIP3   OH259146   1.193   3.268  12.879  0.2228 -0.3094 -0.6773
12552TIP3    H159147   1.104   3.300  12.871  0.3061 -0.0676 -0.6538
12552TIP3    H259148   1.205   3.250  12.972 -0.5624 -2.5826 -0.9989
12553TIP3   OH259149   2.200   3.603   6.128 -0.5157 -0.1052 -0.6067
12553TIP3    H159150   2.250   3.575   6.205 -2.1136 -0.3307  0.3660
12553TIP3    H259151   2.154   3.681   6.156  0.4358  0.9749 -1.9678
12554TIP3   OH259152   1.014   3.326   4.533 -0.0084  0.6222  0.4025
12554TIP3    H159153   0.947   3.394   4.527 -0.6151  0.1411  1.6342
12554TIP3    H259154   0.998   3.269   4.458 -0.1307  1.2570 -0.0607
12555TIP3   OH259155   5.924   4.865   3.470  0.0153 -0.0191 -0.0309
12555TIP3    H159156   5.998   4.816   3.506  0.3301  0.7577  0.3917
12555TIP3    H259157   5.926   4.949   3.517 -2.0415 -0.5690  1.1137
12556TIP3   OH259158   0.249   4.190  12.010 -0.0459  0.1212 -0.5927
12556TIP3    H159159   0.232   4.283  12.025 -0.4901 -0.1698  0.6927
12556TIP3    H259160   0.233   4.179  11.916 -0.1291  1.3062 -0.7357
12557TIP3   OH259161   4.079   2.854  10.953 -0.4055  0.0146  0.7658
12557TIP3    H159162   4.130   2.800  11.014  0.3548  0.7289  0.7625
12557TIP3    H259163   3.993   2.812  10.950 -1.1600  1.2016  3.9907
12558TIP3   OH259164   5.203   5.524   1.232 -0.4119  0.3973 -0.0493
12558TIP3    H159165   5.223   5.431   1.243 -0.6484  0.2510 -0.7884
12558TIP3    H259166   5.172   5.531   1.141 -0.4422  1.1877  0.0173
12559TIP3   OH259167   4.895   6.777  13.894  0.3738  0.2444 -0.1977
12559TIP3    H159168   4.962   6.819  13.839  1.5266 -1.0142  0.2063
12559TIP3    H259169   4.873   6.696  13.847  1.0591 -0.6355  0.9666
12560TIP3   OH259170   0.260   3.773   5.019 -0.6518  0.2073 -0.3475
12560TIP3    H159171   0.230   3.783   5.109 -0.1060  0.2380 -0.1685
12560TIP3    H259172   0.275   3.863   4.989 -1.7116  0.2491 -0.7692
12561TIP3   OH259173   4.680   1.438  12.705 -0.2157 -0.3293 -0.5491
12561TIP3    H159174   4.721   1.397  12.781 -0.5378  0.3603  0.0059
12561TIP3    H259175   4.697   1.378  12.633  0.5006 -0.7625 -0.0265
12562TIP3   OH259176   0.990   3.857   6.063  0.1123  0.2971  0.1259
12562TIP3    H159177   0.935   3.779   6.074 -0.6388  1.0187  1.6357
12562TIP3    H259178   1.057   3.830   6.001 -0.8647 -1.1783 -0.3219
12563TIP3   OH259179   0.159   3.565  12.443  0.3899 -0.1672 -0.1560
12563TIP3    H159180   0.071   3.550  12.410  0.5880 -1.1694 -0.2639
12563TIP3    H259181   0.147   3.600  12.531 -0.1173 -0.6079 -0.0480
12564TIP3   OH259182   4.185   2.085  16.618 -0.5573 -0.3879  0.9810
12564TIP3    H159183   4.095   2.102  16.646 -0.8495 -0.4030  0.0501
12564TIP3    H259184   4.182   2.089  16.523  0.6992  0.8937  0.9924
12565TIP3   OH259185   3.137   0.690  12.349 -0.9911 -0.1888  0.2370
12565TIP3    H159186   3.210   0.717  12.405 -0.6834  0.1792 -0.3392
12565TIP3    H259187   3.063   0.682  12.409 -0.4059 -0.8940  0.8855
12566TIP3   OH259188   5.801   3.548   3.984  0.3378  0.4118  0.2801
12566TIP3    H159189   5.796   3.630   3.936 -0.6368 -0.8906 -1.9226
12566TIP3    H259190   5.717   3.540   4.029 -0.3449 -0.3026 -1.0966
12567TIP3   OH259191   3.371   0.882  16.684  0.2896  0.4140  0.0565
12567TIP3    H159192   3.284   0.903  16.718  0.2999 -2.2202  1.7740
12567TIP3    H259193   3.370   0.788  16.667  2.9888  0.2124  0.6695
12568TIP3   OH259194   4.653   1.514  11.931  0.0586  0.3592  0.3615
12568TIP3    H159195   4.565   1.479  11.942 -0.4312  1.1146 -0.9712
12568TIP3    H259196   4.689   1.518  12.019 -1.7759  1.3757  1.0799
12569TIP3   OH259197   1.685   6.775  10.367  0.0640  0.4105  0.0160
12569TIP3    H159198   1.661   6.782  10.460  0.0284 -0.1741  0.0487
12569TIP3    H259199   1.601   6.762  10.322  0.3347 -2.1006  0.1747
12570TIP3   OH259200   6.124   4.059   3.119 -0.2671  0.1311 -0.0364
12570TIP3    H159201   6.129   4.029   3.209 -0.8417  0.4040  0.0842
12570TIP3    H259202   6.200   4.117   3.108  2.2418 -3.1644 -0.9463
12571TIP3   OH259203   1.857   1.069   0.857  0.2907 -0.2794  0.2163
12571TIP3    H159204   1.772   1.110   0.868 -0.7906 -2.3828 -0.0604
12571TIP3    H259205   1.874   1.073   0.763 -0.6899 -2.1001 -0.0625
12572TIP3   OH259206   0.438   0.221   5.536 -0.0251  0.0861  0.0699
12572TIP3    H159207   0.529   0.247   5.552  0.6294 -2.4761  0.7652
12572TIP3    H259208   0.386   0.292   5.575  1.6564  1.5102 -0.2067
12573TIP3   OH259209   6.656   3.935  16.761  0.1134 -0.5758 -0.4550
12573TIP3    H159210   6.637   4.027  16.746  0.6355  0.1197  2.8906
12573TIP3    H259211   6.750   3.926  16.746  0.5021 -0.0382  1.5912
12574TIP3   OH259212   6.751   4.118  16.109 -0.3010 -0.3011 -0.7455
12574TIP3    H159213   6.780   4.090  16.023 -1.4906 -0.6701 -1.0341
12574TIP3    H259214   6.810   4.074  16.170  0.1165 -0.5694 -1.3469
12575TIP3   OH259215   1.122   3.476  12.625 -0.1128  0.0892  0.1304
12575TIP3    H159216   1.073   3.394  12.631  2.2103 -1.3135  0.5882
12575TIP3    H259217   1.136   3.502  12.716  1.7581 -0.6393  0.0725
12576TIP3   OH259218   2.228   6.244  10.647  0.3536  0.2273  0.1749
12576TIP3    H159219   2.293   6.231  10.578  2.4246 -1.1215  2.3300
12576TIP3    H259220   2.270   6.305  10.708 -1.5530  1.5916  0.1745
12577TIP3   OH259221   3.278   2.714   1.127 -0.0521 -0.1744 -0.2540
12577TIP3    H159222   3.337   2.780   1.089 -1.4672  1.1781 -0.1426
12577TIP3    H259223   3.200   2.763   1.151 -0.0465 -1.4094  2.4061
12578TIP3   OH259224   0.265   4.855   3.639 -0.5899  0.2300  0.2125
12578TIP3    H159225   0.274   4.906   3.719  0.4299  0.3082  0.0572
12578TIP3    H259226   0.182   4.808   3.649 -1.7152  2.1626  0.2139
12579TIP3   OH259227   0.425   1.730  14.041  0.2475 -0.4546  0.6149
12579TIP3    H159228   0.435   1.788  13.965 -2.0430  0.4437  0.9646
12579TIP3    H259229   0.503   1.675  14.039  0.5561  0.0047 -1.9971
12580TIP3   OH259230   5.997   2.555   2.361 -0.5045  0.7086  0.4244
12580TIP3    H159231   5.985   2.485   2.297 -1.0983 -0.4364  1.7369
12580TIP3    H259232   6.036   2.511   2.437  0.9769  2.1948  0.5431
12581TIP3   OH259233   6.072   6.554  10.659 -0.1773  0.2063 -0.1205
12581TIP3    H159234   6.038   6.478  10.705 -0.5755  0.3983 -0.0919
12581TIP3    H259235   6.167   6.549  10.671 -0.4267  1.9265  3.4317
12582TIP3   OH259236   6.568   0.079   6.618 -0.2875 -0.2161  0.1239
12582TIP3    H159237   6.595   0.146   6.555 -0.9350  0.8541  0.9714
12582TIP3    H259238   6.634   0.010   6.609 -0.8176 -0.4360 -2.2684
12583TIP3   OH259239   1.983   4.150   0.566  1.1753  0.6712 -0.1389
12583TIP3    H159240   2.013   4.124   0.479  1.2562  1.7688 -0.4369
12583TIP3    H259241   1.956   4.067   0.607 -1.0617  0.4072 -2.0350
12584TIP3   OH259242   5.395   5.562   3.057 -0.0397  0.2965 -0.2062
12584TIP3    H159243   5.426   5.594   2.973  0.8239  1.2811  0.4708
12584TIP3    H259244   5.425   5.627   3.120 -0.5367 -0.5116  0.8866
12585TIP3   OH259245   0.202   6.276   1.292 -0.4237 -0.2179 -0.2521
12585TIP3    H159246   0.223   6.230   1.211 -1.6360  0.6687 -1.0736
12585TIP3    H259247   0.225   6.214   1.361  0.5052 -1.0213 -1.2638
12586TIP3   OH259248   2.187   6.334   5.362  0.8401 -0.0615 -0.1748
12586TIP3    H159249   2.131   6.343   5.439  4.2733 -0.7020  2.5318
12586TIP3    H259250   2.148   6.392   5.297 -3.3096 -1.0097  1.2838
12587TIP3   OH259251   5.573   1.740  11.629 -0.5531 -0.1951  0.4138
12587TIP3    H159252   5.619   1.757  11.711 -0.7377  1.7213  0.1483
12587TIP3    H259253   5.526   1.822  11.610 -0.9658 -0.7986 -1.3058
12588TIP3   OH259254   2.439   2.681   3.280 -0.3415 -0.3994 -0.1403
12588TIP3    H159255   2.433   2.752   3.344  1.0662 -0.9220  0.5801
12588TIP3    H259256   2.506   2.709   3.218 -0.2235 -0.8100 -0.2039
12589TIP3   OH259257   1.237   1.259   4.553  0.0594  0.2610  0.3721
12589TIP3    H159258   1.151   1.238   4.591  0.5529  0.4417  1.6141
12589TIP3    H259259   1.299   1.220   4.614  0.8712  0.0318 -0.5890
12590TIP3   OH259260   0.915   1.138   3.701  0.2490 -0.5253  0.6166
12590TIP3    H159261   0.820   1.126   3.701  0.2147 -0.2688 -0.0037
12590TIP3    H259262   0.930   1.212   3.642  0.7451  0.1769  1.5993
12591TIP3   OH259263   4.298   1.181  17.012  0.4108 -1.0454 -0.0336
12591TIP3    H159264   4.307   1.265  17.055  0.2125 -1.2588  0.4305
12591TIP3    H259265   4.210   1.183  16.972  0.8930 -0.5525 -1.0788
12592TIP3   OH259266   1.709   0.988  13.079  0.4778 -0.2897 -0.2700
12592TIP3    H159267   1.666   0.947  13.155 -0.5890 -1.0173 -1.2488
12592TIP3    H259268   1.750   1.067  13.115  2.4939 -2.1270  1.6379
12593TIP3   OH259269   3.003   4.652  16.613 -0.1444 -0.2438  0.4551
12593TIP3    H159270   3.096   4.662  16.596 -0.2487 -0.5393 -0.3094
12593TIP3    H259271   2.999   4.585  16.682  0.1790 -0.7385  0.0004
12594TIP3   OH259272   4.441   1.287  14.411 -0.7442  0.6196  0.1309
12594TIP3    H159273   4.470   1.314  14.324 -0.9695  1.6651  0.3684
12594TIP3    H259274   4.385   1.359  14.441 -2.0525 -0.5122  0.4488
12595TIP3   OH259275   3.590   5.157  11.355  0.6838 -0.6835  0.7599
12595TIP3    H159276   3.653   5.095  11.318  0.9874  0.3835 -0.5666
12595TIP3    H259277   3.507   5.136  11.313  0.7639 -0.2740  0.3909
12596TIP3   OH259278   0.757   1.230  16.213  0.1901  0.6500 -0.0498
12596TIP3    H159279   0.791   1.144  16.237 -3.8351 -0.2054  3.1666
12596TIP3    H259280   0.822   1.292  16.246  1.5589 -1.0272  0.4887
12597TIP3   OH259281   4.689   4.945  14.927  0.3082  0.3062 -0.0727
12597TIP3    H159282   4.753   4.921  14.860  0.4393  0.0621  0.1355
12597TIP3    H259283   4.674   4.863  14.975 -0.9647  0.1001 -0.7941
12598TIP3   OH259284   1.387   1.908  15.245  0.2378  0.3908 -0.6025
12598TIP3    H159285   1.343   1.880  15.325  0.7883  2.7499  0.5899
12598TIP3    H259286   1.316   1.919  15.181 -0.5863  1.4837  0.4884
12599TIP3   OH259287   4.396   0.835  12.398 -0.0090  0.5504  0.4264
12599TIP3    H159288   4.356   0.748  12.408 -4.1884  2.1989 -0.9544
12599TIP3    H259289   4.475   0.819  12.348 -0.9290 -2.4265 -0.1946
12600TIP3   OH259290   5.119   0.350   0.670  0.4680 -0.3721 -0.3203
12600TIP3    H159291   5.109   0.422   0.608  0.5772 -1.5519 -1.7152
12600TIP3    H259292   5.182   0.383   0.735 -1.4814  1.7563  0.5536
12601TIP3   OH259293   3.459   4.722  10.261  0.2009  0.2617  0.0308
12601TIP3    H159294   3.399   4.795  10.279 -0.3429 -0.3847  0.8466
12601TIP3    H259295   3.519   4.757  10.195 -0.1653  1.3917  0.2821
12602TIP3   OH259296   4.447   5.171   1.830  0.1352 -0.0783  0.1952
12602TIP3    H159297   4.507   5.151   1.902 -0.9494 -1.1043  0.8146
12602TIP3    H259298   4.430   5.086   1.789 -1.6366  0.0514  0.6150
12603TIP3   OH259299   0.793   6.028   4.020 -0.6253  0.5743  0.0840
12603TIP3    H159300   0.828   5.946   3.986  1.6577  0.7350  1.9018
12603TIP3    H259301   0.708   6.005   4.057 -1.3373 -0.3616 -2.0324
12604TIP3   OH259302   6.765   5.467   3.503  0.0701 -0.1852  0.0375
12604TIP3    H159303   6.745   5.393   3.560 -1.2808  1.0181  1.1545
12604TIP3    H259304   6.701   5.535   3.527  2.4147  2.0108  0.3147
12605TIP3   OH259305   2.992   0.483  16.768 -0.0820 -0.7524  0.6370
12605TIP3    H159306   2.982   0.504  16.675 -2.2079 -1.3741  0.7035
12605TIP3    H259307   2.995   0.567  16.812  0.0875 -0.4689  0.0889
12606TIP3   OH259308   1.690   0.795  12.401  0.4452 -0.5044  0.6036
12606TIP3    H159309   1.623   0.863  12.405  2.5485  1.6274  0.5988
12606TIP3    H259310   1.743   0.818  12.325  0.8890 -2.4994  0.2625
12607TIP3   OH259311   0.274   1.670  17.199 -0.1568  1.0042 -0.1633
12607TIP3    H159312   0.214   1.743  17.184 -1.1881  0.2998  0.4546
12607TIP3    H259313   0.277   1.662  17.295  0.5083  0.6940 -0.2102
12608TIP3   OH259314   3.607   5.066   2.472 -0.0265 -0.8077  0.5853
12608TIP3    H159315   3.575   5.073   2.382 -0.7048 -0.6097  0.8342
12608TIP3    H259316   3.690   5.019   2.465  0.9177  0.9737 -0.3453
12609TIP3   OH259317   5.449   5.430   6.545  0.3437  0.2151 -0.0241
12609TIP3    H159318   5.444   5.336   6.529  0.3144  0.3676 -0.9636
12609TIP3    H259319   5.358   5.458   6.555  0.3214  0.2135 -0.2077
12610TIP3   OH259320   3.138   6.225   2.769  0.3161 -0.2369 -0.3984
12610TIP3    H159321   3.167   6.186   2.851 -0.6936  0.4059  0.2669
12610TIP3    H259322   3.070   6.288   2.794 -0.2078 -0.2425 -1.7377
12611TIP3   OH259323   0.490   1.556  16.312  0.4438 -0.3402 -0.2068
12611TIP3    H159324   0.525   1.631  16.359  1.2636 -0.2989 -0.8794
12611TIP3    H259325   0.551   1.542  16.239  0.3469 -1.7064 -0.0380
12612TIP3   OH259326   3.194   0.081  13.059 -0.1299  0.6092 -0.1288
12612TIP3    H159327   3.162   0.164  13.094  0.4241  1.1666 -0.9278
12612TIP3    H259328   3.116   0.026  13.053 -0.4420  0.9366  0.7450
12613TIP3   OH259329   0.888   3.357  16.759 -0.5343 -0.2062 -0.0640
12613TIP3    H159330   0.845   3.423  16.813 -0.0871  0.7320 -0.8497
12613TIP3    H259331   0.981   3.380  16.763 -0.5503  0.2396 -1.7037
12614TIP3   OH259332   4.885   0.572   2.733  0.2736  0.3621  0.0588
12614TIP3    H159333   4.946   0.589   2.805 -1.2442 -1.2070  1.7808
12614TIP3    H259334   4.802   0.611   2.762 -0.4784 -0.7009 -0.6298
12615TIP3   OH259335   2.878   3.029   2.144  0.2041 -0.0617 -0.4202
12615TIP3    H159336   2.797   2.978   2.138  1.1777 -1.4921 -1.7297
12615TIP3    H259337   2.914   3.008   2.230  0.2198 -1.0233 -0.6610
12616TIP3   OH259338   2.432   5.487  13.908  0.4203 -0.0149  0.0569
12616TIP3    H159339   2.396   5.537  13.981 -0.5238 -0.4893 -0.0712
12616TIP3    H259340   2.359   5.432  13.878  0.7230  0.3598 -1.4092
12617TIP3   OH259341   0.941   1.862   3.375  0.2898 -0.3553  0.0159
12617TIP3    H159342   0.950   1.768   3.358 -2.1454 -0.7695  0.7980
12617TIP3    H259343   1.003   1.904   3.314  0.4030 -2.3879 -1.3051
12618TIP3   OH259344   3.137   0.220  14.243  0.3739 -0.6646 -0.5467
12618TIP3    H159345   3.158   0.128  14.256  0.7424 -0.6548 -1.0603
12618TIP3    H259346   3.134   0.231  14.147  2.2586  0.2940 -0.5159
12619TIP3   OH259347   6.050   6.589   5.421  0.3861  0.1709 -0.4674
12619TIP3    H159348   6.114   6.517   5.416 -1.1106 -1.2297 -0.0480
12619TIP3    H259349   6.048   6.613   5.513  0.4003  0.3187 -0.5047
12620TIP3   OH259350   1.566   3.166  16.452  0.6827  0.3972  0.1124
12620TIP3    H159351   1.512   3.235  16.413 -1.0169 -0.7500  0.3679
12620TIP3    H259352   1.633   3.213  16.502 -0.5425  1.8588  0.4318
12621TIP3   OH259353   5.891   0.525  10.637  0.0594 -0.1251  0.1497
12621TIP3    H159354   5.966   0.550  10.692  0.9866 -3.4631  0.5448
12621TIP3    H259355   5.926   0.456  10.579 -2.1478 -0.1401 -1.2099
12622TIP3   OH259356   6.510   6.410   6.800  0.1235  0.0021 -0.4772
12622TIP3    H159357   6.477   6.347   6.736 -1.4502  0.7544 -0.4352
12622TIP3    H259358   6.468   6.493   6.776  0.6925  0.6114  0.6083
12623TIP3   OH259359   0.587   1.949  16.142  0.1501 -0.6634 -0.2810
12623TIP3    H159360   0.502   1.922  16.177 -0.0054 -0.4031 -0.4592
12623TIP3    H259361   0.566   2.011  16.073  0.5464  1.4850  1.4630
12624TIP3   OH259362   6.050   4.418   4.241  0.5430  0.8689  0.1542
12624TIP3    H159363   5.956   4.413   4.226  0.8934  1.0764 -2.2797
12624TIP3    H259364   6.058   4.453   4.330 -1.6662  0.4380  0.5469
12625TIP3   OH259365   4.861   4.779  12.589 -0.3443 -0.1335  0.7144
12625TIP3    H159366   4.783   4.777  12.645 -0.1139  1.9466  1.1391
12625TIP3    H259367   4.916   4.848  12.626  0.7038 -0.0590 -0.9151
12626TIP3   OH259368   0.793   0.287   4.126 -0.4240  0.5363 -0.4738
12626TIP3    H159369   0.750   0.233   4.059  3.1652 -1.4172 -1.2840
12626TIP3    H259370   0.768   0.246   4.209 -0.2753 -0.4615 -0.9167
12627TIP3   OH259371   0.269   0.920   1.659 -0.3472 -0.1703 -0.1516
12627TIP3    H159372   0.357   0.952   1.681 -1.1416  0.5240  2.1595
12627TIP3    H259373   0.218   1.000   1.646 -0.7987 -0.5717 -0.8407
12628TIP3   OH259374   6.675   4.011  13.417 -0.3145  0.0415 -0.5441
12628TIP3    H159375   6.695   3.929  13.463  0.1292  0.7101  0.4551
12628TIP3    H259376   6.579   4.016  13.418 -0.3304 -0.2805 -0.2899
12629TIP3   OH259377   2.201   3.775   4.160  0.0328  0.2232 -0.1709
12629TIP3    H159378   2.167   3.835   4.227  0.9161  1.3181 -0.6772
12629TIP3    H259379   2.126   3.721   4.136 -0.8031  1.1642  0.2698
12630TIP3   OH259380   5.274   0.204   0.115  0.0211  0.0119 -0.0762
12630TIP3    H159381   5.317   0.264   0.175 -0.3061  1.0816 -0.8910
12630TIP3    H259382   5.222   0.147   0.172  0.5485  0.3243  0.7287
12631TIP3   OH259383   0.801   6.406   6.561 -0.2843 -0.5815  0.0905
12631TIP3    H159384   0.876   6.363   6.521 -1.1153 -1.5606 -0.4438
12631TIP3    H259385   0.772   6.470   6.495  0.7371  0.5998  0.7449
12632TIP3   OH259386   5.127   1.424  14.339 -0.2173  0.1220  0.4223
12632TIP3    H159387   5.060   1.370  14.382 -0.2050  0.3564  0.7396
12632TIP3    H259388   5.077   1.495  14.299 -0.2797 -0.3685 -0.3817
12633TIP3   OH259389   0.295   3.318   2.854 -0.2549 -0.2415 -0.3548
12633TIP3    H159390   0.291   3.390   2.792 -0.9982 -0.5178 -0.6386
12633TIP3    H259391   0.267   3.242   2.803  0.0688 -0.6452  0.0666
12634TIP3   OH259392   4.368   5.440  14.812 -0.1298  0.4011 -0.0255
12634TIP3    H159393   4.300   5.493  14.854  1.0219  1.2887  0.7550
12634TIP3    H259394   4.386   5.486  14.730  0.0416  0.5739  0.1076
12635TIP3   OH259395   3.463   0.261  11.749  0.1322 -0.7249  0.1211
12635TIP3    H159396   3.485   0.321  11.821  0.5352 -0.4678 -0.2172
12635TIP3    H259397   3.547   0.228  11.719 -0.1883 -2.8845  1.5079
12636TIP3   OH259398   6.526   3.617   3.797  0.0309 -0.1376 -0.0413
12636TIP3    H159399   6.502   3.709   3.782  0.4924 -0.0801 -0.4025
12636TIP3    H259400   6.480   3.569   3.728  1.8774  0.0919 -1.4700
12637TIP3   OH259401   6.228   4.828   3.543  0.1388  0.2274 -0.3611
12637TIP3    H159402   6.220   4.855   3.635 -0.9974  0.3455 -0.4919
12637TIP3    H259403   6.217   4.733   3.544 -0.6327  0.3137 -0.4612
12638TIP3   OH259404   1.027   4.278  15.373  0.3601 -0.0753  0.2563
12638TIP3    H159405   0.962   4.307  15.309  1.0641 -0.7902 -0.7986
12638TIP3    H259406   1.092   4.348  15.376  0.1907  0.0771  0.3897
12639TIP3   OH259407   4.852   2.027  16.365 -0.0393  0.5524 -0.8340
12639TIP3    H159408   4.778   2.071  16.407  0.3189  2.2058 -1.9004
12639TIP3    H259409   4.894   1.978  16.436 -0.2493  2.2236  0.4676
12640TIP3   OH259410   3.994   0.398  13.878 -0.1561 -0.4185  0.2362
12640TIP3    H159411   4.060   0.331  13.862  0.4867  0.8269 -2.5814
12640TIP3    H259412   3.921   0.350  13.917  0.9924 -2.4183  0.0124
12641TIP3   OH259413   4.944   3.144   6.178  0.0551  0.4541 -0.4638
12641TIP3    H159414   4.950   3.148   6.083 -0.6791 -1.3246 -0.5840
12641TIP3    H259415   4.854   3.170   6.198 -0.9455 -2.7621 -0.5115
12642TIP3   OH259416   1.850   3.532  14.653 -0.4075 -0.1056  0.4485
12642TIP3    H159417   1.772   3.584  14.634  0.0176  0.1524 -0.5879
12642TIP3    H259418   1.815   3.447  14.679 -1.1030  0.6556  2.0866
12643TIP3   OH259419   3.799   3.997   2.956  0.3866 -0.2688 -0.2858
12643TIP3    H159420   3.880   4.003   2.905  0.9791  0.8309  0.7513
12643TIP3    H259421   3.807   4.065   3.023 -1.9407  0.6910 -0.9290
12644TIP3   OH259422   3.066   3.485   2.690  0.2643  0.1249 -0.1331
12644TIP3    H159423   3.110   3.550   2.745 -3.2903  2.0264  0.6375
12644TIP3    H259424   3.008   3.438   2.750 -0.3388 -0.8364 -1.4543
12645TIP3   OH259425   2.788   4.618  15.183 -0.0792  0.1963  0.0937
12645TIP3    H159426   2.876   4.609  15.218  1.0663  3.2127 -1.7781
12645TIP3    H259427   2.741   4.669  15.249  0.1782  0.2872  0.2096
12646TIP3   OH259428   1.565   2.422  12.663  0.2872  0.3054 -0.0887
12646TIP3    H159429   1.598   2.438  12.752 -0.1180  0.3903  0.0473
12646TIP3    H259430   1.482   2.469  12.659 -0.0221 -0.2526 -0.2924
12647TIP3   OH259431   5.328   0.438   4.638  0.8270 -0.4195 -0.1169
12647TIP3    H159432   5.362   0.431   4.728 -1.2813 -2.7202  0.5624
12647TIP3    H259433   5.383   0.378   4.587  2.6494  1.5985 -0.6305
12648TIP3   OH259434   1.079   6.780  14.773 -0.0474  0.0910 -0.4469
12648TIP3    H159435   1.116   6.862  14.740 -0.0166  0.1970 -0.1541
12648TIP3    H259436   1.152   6.736  14.816 -0.4866  0.7819  1.0544
12649TIP3   OH259437   5.541   1.821   3.890 -0.6245 -0.9626 -0.0937
12649TIP3    H159438   5.599   1.830   3.815  1.7171 -0.8536  1.6588
12649TIP3    H259439   5.511   1.730   3.886  1.2304 -1.6112  0.0246
12650TIP3   OH259440   1.193   3.429   4.218  0.1336  0.4127 -0.8299
12650TIP3    H159441   1.106   3.394   4.234  1.4013 -1.5792  2.1151
12650TIP3    H259442   1.241   3.358   4.176 -0.3453  2.4082 -5.0347
12651TIP3   OH259443   3.803   3.625   2.799 -0.2727  0.3242  0.2795
12651TIP3    H159444   3.782   3.651   2.888  0.3619  0.9616  0.2447
12651TIP3    H259445   3.871   3.558   2.809  0.3453  0.9459  0.2449
12652TIP3   OH259446   4.496   1.195   3.840  0.0809  0.0103  0.3160
12652TIP3    H159447   4.492   1.269   3.779  0.2742  0.0679  0.3733
12652TIP3    H259448   4.589   1.173   3.844  0.2101  0.7410  1.4861
12653TIP3   OH259449   6.139   2.221  14.337  0.1556 -0.3442 -0.4300
12653TIP3    H159450   6.141   2.134  14.296  1.4670 -1.2545  1.4786
12653TIP3    H259451   6.061   2.219  14.393  1.1352 -0.9476  0.9399
12654TIP3   OH259452   6.291   6.765   0.902 -0.4786  0.2882 -0.0044
12654TIP3    H159453   6.297   6.848   0.855  1.9491  0.4364  0.5065
12654TIP3    H259454   6.265   6.701   0.836  0.9134  0.8562 -1.1055
12655TIP3   OH259455   1.877   2.539   3.125 -0.5253  0.2388  0.4136
12655TIP3    H159456   1.904   2.490   3.202 -0.3186 -0.3723 -0.0408
12655TIP3    H259457   1.896   2.630   3.146 -0.1255  0.0363  0.9394
12656TIP3   OH259458   0.774   1.728  12.517  0.5634 -0.3321  0.7140
12656TIP3    H159459   0.860   1.714  12.478  1.1835 -1.4246  2.4405
12656TIP3    H259460   0.789   1.790  12.588 -0.1587 -0.1748  0.7341
12657TIP3   OH259461   6.589   5.806  14.107 -0.3659 -0.2290  0.0582
12657TIP3    H159462   6.540   5.732  14.142 -1.7820  2.0870  3.2110
12657TIP3    H259463   6.530   5.848  14.045 -1.1535  0.6076  1.3500
12658TIP3   OH259464   4.265   3.617  16.408  0.1551  0.1745  0.0091
12658TIP3    H159465   4.337   3.555  16.398  0.6331  0.6842  0.2013
12658TIP3    H259466   4.274   3.649  16.498 -0.5124  0.0012  0.1433
12659TIP3   OH259467   6.571   5.608  14.808  0.1389 -0.1534  0.1603
12659TIP3    H159468   6.494   5.641  14.855 -0.7990  0.4022 -1.6942
12659TIP3    H259469   6.539   5.530  14.762  0.5189  0.4180 -1.0962
12660TIP3   OH259470   0.984   6.402  16.867 -0.2714 -0.3649  0.1024
12660TIP3    H159471   0.959   6.325  16.917 -0.9165  0.0924  0.4850
12660TIP3    H259472   0.949   6.476  16.917  2.0585  0.3033  0.8155
12661TIP3   OH259473   3.683   0.999  12.478 -0.1764  0.2146  0.7013
12661TIP3    H159474   3.653   1.051  12.404  0.4563  1.3118  1.2044
12661TIP3    H259475   3.625   0.923  12.479 -0.5798  0.4987 -0.5416
12662TIP3   OH259476   4.031   6.575  16.275 -0.4726  0.4562  0.5568
12662TIP3    H159477   4.081   6.610  16.202 -0.3781  1.7766  1.2268
12662TIP3    H259478   4.097   6.558  16.343 -0.6895  0.2840  0.7247
12663TIP3   OH259479   0.893   3.836  15.204  0.0934  0.1820  0.4068
12663TIP3    H159480   0.894   3.744  15.177 -0.0242  0.7279 -1.5283
12663TIP3    H259481   0.967   3.875  15.158 -1.5916  1.6733 -1.1148
12664TIP3   OH259482   5.940   2.259  14.539  0.2823  0.0325  0.0890
12664TIP3    H159483   6.008   2.237  14.603 -1.0688  1.5315  2.0863
12664TIP3    H259484   5.935   2.354  14.541 -0.8403  0.0113 -1.1665
12665TIP3   OH259485   2.662   3.010   4.211 -0.7724 -0.2728  0.4123
12665TIP3    H159486   2.722   3.039   4.280  0.7130 -1.3546 -0.3821
12665TIP3    H259487   2.575   3.016   4.250 -0.1853  1.7060  1.4608
12666TIP3   OH259488   5.215   3.778   1.317  0.1565 -0.6367 -0.2708
12666TIP3    H159489   5.199   3.817   1.231  1.0791 -0.0074 -0.1606
12666TIP3    H259490   5.271   3.702   1.299 -1.2284 -1.6472 -0.4287
12667TIP3   OH259491   0.408   1.357  16.550  0.4448 -0.5165 -0.4257
12667TIP3    H159492   0.450   1.383  16.468  0.7020 -1.6869 -0.6779
12667TIP3    H259493   0.315   1.361  16.532  0.4833  0.0171 -0.5213
12668TIP3   OH259494   6.241   0.019   5.494  0.3803 -0.0375  0.3959
12668TIP3    H159495   6.231   0.067   5.577 -1.9157 -0.0452  0.1506
12668TIP3    H259496   6.154  -0.017   5.477  1.3455 -1.7753 -0.9776
12669TIP3   OH259497   0.778   4.985  12.601  0.1101 -1.2128 -0.1247
12669TIP3    H159498   0.837   4.993  12.675 -0.4818 -0.0035  0.2313
12669TIP3    H259499   0.713   5.054  12.614 -0.2585 -1.2654 -1.5288
12670TIP3   OH259500   5.381   3.549   1.213  0.3462  0.0425  0.0537
12670TIP3    H159501   5.429   3.570   1.132 -0.0339  0.8916  0.0491
12670TIP3    H259502   5.354   3.458   1.201 -3.0098  1.2587 -2.4853
12671TIP3   OH259503   3.080   3.621  16.924  0.6235 -0.0714 -0.1171
12671TIP3    H159504   3.118   3.583  16.844 -0.3777 -0.4984 -0.3928
12671TIP3    H259505   3.060   3.545  16.979  0.9789  0.2054  0.3911
12672TIP3   OH259506   6.153   4.205  12.361 -0.2607 -0.3698 -0.3466
12672TIP3    H159507   6.126   4.260  12.434 -0.1092 -1.5543  0.6233
12672TIP3    H259508   6.224   4.152  12.396  0.9365  0.2216 -1.8532
12673TIP3   OH259509   5.609   3.563  15.823  0.6383  0.6893  0.4629
12673TIP3    H159510   5.684   3.505  15.808  0.7058  0.8740  0.0800
12673TIP3    H259511   5.568   3.529  15.903  0.0347 -0.5648 -0.3524
12674TIP3   OH259512   4.094   5.365  12.407  0.3166  0.4644  0.3607
12674TIP3    H159513   4.189   5.372  12.413  0.4103  0.8325 -1.3463
12674TIP3    H259514   4.065   5.362  12.498  1.9368  0.5948  0.9046
12675TIP3   OH259515   4.736   4.055  15.511  0.3034  0.0007  0.5042
12675TIP3    H159516   4.809   4.069  15.571  0.5756 -1.3000  0.4973
12675TIP3    H259517   4.731   3.960  15.502  1.5229  0.2043 -3.0713
12676TIP3   OH259518   3.132   1.685  11.107 -0.2012 -1.0040 -0.3005
12676TIP3    H159519   3.140   1.780  11.093 -0.4410 -0.9319  0.0298
12676TIP3    H259520   3.191   1.666  11.179 -1.7980 -0.7216  1.1268
12677TIP3   OH259521   4.475   0.569  15.992  0.0440 -0.2458 -0.1207
12677TIP3    H159522   4.523   0.614  16.061 -1.0160 -0.6388  0.8861
12677TIP3    H259523   4.473   0.477  16.021 -0.8732 -0.3170 -0.3995
12678TIP3   OH259524   2.217   0.738   0.505 -0.3529 -0.6417  0.2757
12678TIP3    H159525   2.241   0.827   0.480 -1.0595 -0.6016 -0.2865
12678TIP3    H259526   2.162   0.750   0.583  2.4780 -0.8113  2.3888
12679TIP3   OH259527   1.094   0.713   2.098 -0.7100  0.5394 -0.1832
12679TIP3    H159528   1.108   0.799   2.139 -1.4525  0.9830 -0.8462
12679TIP3    H259529   1.023   0.728   2.035 -2.0876 -0.9715  0.9682
12680TIP3   OH259530   0.525   6.542  15.446 -0.3970 -0.3973 -0.1506
12680TIP3    H159531   0.482   6.608  15.392  0.2349 -0.0259 -0.2112
12680TIP3    H259532   0.476   6.461  15.430 -0.0997 -0.3279 -1.4039
12681TIP3   OH259533   2.606   4.187   1.783  0.0282 -0.1804 -0.4426
12681TIP3    H159534   2.523   4.210   1.740  1.0506 -1.2668 -3.0887
12681TIP3    H259535   2.581   4.166   1.873 -2.4299  0.4805 -0.9292
12682TIP3   OH259536   3.749   3.451   0.005  0.1374 -0.5768  0.6231
12682TIP3    H159537   3.788   3.479  -0.077 -0.9354 -1.1665 -0.1111
12682TIP3    H259538   3.783   3.512   0.070  2.5507 -1.3192  0.0891
12683TIP3   OH259539   3.231   4.690  17.137 -0.1433  0.1772 -0.7747
12683TIP3    H159540   3.142   4.706  17.107  0.0378  0.6700 -1.0381
12683TIP3    H259541   3.285   4.696  17.059 -0.0582 -1.6369 -0.8930
12684TIP3   OH259542   2.182   5.337   0.789 -0.2991 -0.2669 -0.3108
12684TIP3    H159543   2.230   5.418   0.808 -0.7030 -0.2068  0.4818
12684TIP3    H259544   2.250   5.273   0.769  0.1139 -0.1706  0.7643
12685TIP3   OH259545   0.467   4.198  12.614  0.3524  0.1930  0.2113
12685TIP3    H159546   0.554   4.238  12.605  0.1601  0.6205  0.2737
12685TIP3    H259547   0.430   4.236  12.693 -0.4023  0.9681 -0.5035
12686TIP3   OH259548   1.255   6.197  16.982  0.0348 -0.2124  0.4530
12686TIP3    H159549   1.243   6.108  16.951 -2.0001  0.0617  0.4223
12686TIP3    H259550   1.313   6.237  16.917  0.1538 -1.2130 -0.0704
12687TIP3   OH259551   6.348   1.846  11.381  0.2962  0.6167 -0.2132
12687TIP3    H159552   6.422   1.831  11.439  0.3848  1.0202 -0.2240
12687TIP3    H259553   6.349   1.940  11.364 -1.2959  0.9150  1.2372
12688TIP3   OH259554   5.016   1.070  12.803  0.7938  0.4180 -0.0170
12688TIP3    H159555   5.080   1.073  12.874  2.4414  1.4640 -1.5230
12688TIP3    H259556   5.061   1.026  12.731 -0.9380 -0.8330 -0.3775
12689TIP3   OH259557   4.167   6.470  14.605 -0.0210  0.1576 -0.0519
12689TIP3    H159558   4.159   6.564  14.626 -0.4975  0.0254  0.3656
12689TIP3    H259559   4.190   6.469  14.512 -0.5651  0.6808 -0.2039
12690TIP3   OH259560   3.216   3.910  17.188  0.6761  0.2969  0.8893
12690TIP3    H159561   3.180   3.821  17.192 -1.0713  0.8241 -1.6765
12690TIP3    H259562   3.149   3.965  17.227  0.6891  0.7526  0.2848
12691TIP3   OH259563   2.531   0.089   5.443 -0.3557 -0.5171  0.3228
12691TIP3    H159564   2.490   0.063   5.361 -0.2301 -2.3788  0.8302
12691TIP3    H259565   2.530   0.010   5.497  0.9088  0.2756  1.5554
12692TIP3   OH259566   5.248   5.396   3.270 -0.8808 -0.0319 -0.1814
12692TIP3    H159567   5.226   5.458   3.339  0.5696 -0.2117  0.4602
12692TIP3    H259568   5.216   5.311   3.303 -0.1563 -0.1246  0.2866
12693TIP3   OH259569   6.369   4.224  13.310 -0.3203 -0.3201  0.4365
12693TIP3    H159570   6.431   4.268  13.252 -0.9639 -0.2895 -0.2345
12693TIP3    H259571   6.345   4.290  13.374 -2.7431  0.9392 -1.6791
12694TIP3   OH259572   2.095   0.294  17.062  0.0297  0.3854  0.6143
12694TIP3    H159573   2.161   0.240  17.018  1.5729  0.2302  3.0293
12694TIP3    H259574   2.101   0.379  17.018  2.1713  0.5098  1.0813
12695TIP3   OH259575   6.641   5.227  15.662  0.4553  0.2614 -0.2391
12695TIP3    H159576   6.554   5.259  15.638 -0.0423 -0.5514  0.4361
12695TIP3    H259577   6.689   5.224  15.579 -0.3083  0.2731 -0.6894
12696TIP3   OH259578   4.376   1.733  12.450 -0.4985 -0.3327  0.4299
12696TIP3    H159579   4.403   1.685  12.372  0.3132 -1.0988  1.1821
12696TIP3    H259580   4.457   1.749  12.498 -1.3075 -2.7163  2.7275
12697TIP3   OH259581   5.832   1.385   2.409 -0.0189  0.8048 -0.5275
12697TIP3    H159582   5.742   1.355   2.393 -0.1414  0.7098  0.3156
12697TIP3    H259583   5.879   1.307   2.436 -0.3996  1.3701  1.9271
12698TIP3   OH259584   0.604   3.402   1.296 -0.2621 -0.4812 -0.2160
12698TIP3    H159585   0.589   3.491   1.264 -0.9995 -0.1521  1.0109
12698TIP3    H259586   0.546   3.347   1.243  0.0436 -0.2143 -0.8351
12699TIP3   OH259587   4.183   0.775   4.034  0.0721  0.2124 -0.1279
12699TIP3    H159588   4.279   0.784   4.033 -0.0888  1.9320 -1.2423
12699TIP3    H259589   4.165   0.721   4.111  1.9153  0.2285  0.3373
12700TIP3   OH259590   5.542   4.000   0.109  0.0829 -0.1957  0.5313
12700TIP3    H159591   5.549   4.090   0.078 -1.8588  0.1193  0.9766
12700TIP3    H259592   5.608   3.994   0.178  0.7449  0.6511 -0.0145
12701TIP3   OH259593   1.441   0.871  14.527  0.4558  0.0138  0.2587
12701TIP3    H159594   1.406   0.949  14.568  0.4013  0.1847 -0.1101
12701TIP3    H259595   1.481   0.822  14.598  1.1452  0.7318  0.3682
12702TIP3   OH259596   4.751   0.895   2.293 -0.2014  0.0051  0.4873
12702TIP3    H159597   4.786   0.827   2.351 -0.3625 -0.1865  0.3614
12702TIP3    H259598   4.663   0.912   2.327  0.9593  2.3301  2.3800
12703TIP3   OH259599   1.095   0.067   2.553 -0.4077  0.3621 -0.3527
12703TIP3    H159600   1.116   0.147   2.504  1.0679  1.2372  1.6178
12703TIP3    H259601   1.012   0.086   2.595  0.2733  1.1631  0.6705
12704TIP3   OH259602   1.233   6.457   6.375 -0.1528 -0.9171  0.1766
12704TIP3    H159603   1.320   6.495   6.376 -1.2561  1.7702  2.4457
12704TIP3    H259604   1.198   6.479   6.289  0.3580  0.5918  0.3335
12705TIP3   OH259605   4.681   4.479   3.823 -0.1153 -0.2868  0.0597
12705TIP3    H159606   4.678   4.456   3.916  1.4823  1.2067  0.4888
12705TIP3    H259607   4.769   4.454   3.795 -0.6387 -0.8476 -1.1000
12706TIP3   OH259608   5.405   1.068   4.737 -0.0927  0.0633 -0.0725
12706TIP3    H159609   5.381   1.132   4.670 -2.8147 -0.3788  0.4013
12706TIP3    H259610   5.454   1.119   4.802  0.3120  1.0455 -1.1369
12707TIP3   OH259611   1.336   3.407   1.851  0.3636 -0.0852  0.6549
12707TIP3    H159612   1.346   3.429   1.758  0.1151 -0.2491  0.5895
12707TIP3    H259613   1.258   3.455   1.879  0.0338 -0.5919  0.6044
12708TIP3   OH259614   2.284   0.412  12.189  0.2210  0.2609 -0.4062
12708TIP3    H159615   2.248   0.441  12.105 -0.7419  0.2232 -0.0068
12708TIP3    H259616   2.360   0.360  12.165  0.6635  1.2541 -1.2140
12709TIP3   OH259617   1.949   0.160   4.635  0.4340  0.1601 -0.7639
12709TIP3    H159618   2.012   0.124   4.697  0.1691  0.5063 -0.2888
12709TIP3    H259619   1.967   0.114   4.553  0.0761 -1.0585 -0.1649
12710TIP3   OH259620   2.231   3.408   2.321 -0.4247  0.5174 -0.3076
12710TIP3    H159621   2.220   3.368   2.407 -0.1065 -1.2958 -1.0982
12710TIP3    H259622   2.168   3.480   2.321 -2.2071 -0.9758  0.5219
12711TIP3   OH259623   5.677   6.104  15.309 -0.1597 -0.7138 -0.0665
12711TIP3    H159624   5.604   6.118  15.248  0.3818  1.9176 -0.1866
12711TIP3    H259625   5.754   6.104  15.253  0.2588  0.7372  0.4832
12712TIP3   OH259626   0.582   6.252  13.264 -0.1273  0.8227 -0.7089
12712TIP3    H159627   0.533   6.170  13.261  0.3309  0.4621  1.2012
12712TIP3    H259628   0.663   6.233  13.216 -0.0637  0.1998 -0.3538
12713TIP3   OH259629   1.209   4.783  16.427  0.3486  0.0868  0.0076
12713TIP3    H159630   1.211   4.834  16.346  1.7921 -0.5132 -0.3505
12713TIP3    H259631   1.235   4.695  16.400  1.5255  0.0414  1.2312
12714TIP3   OH259632   2.770   3.770   2.363 -0.0075 -0.4764 -0.5214
12714TIP3    H159633   2.728   3.714   2.298 -0.1318 -0.2683 -0.6187
12714TIP3    H259634   2.812   3.839   2.313 -1.0254  0.3012 -0.3193
12715TIP3   OH259635   3.702   4.647   1.497  0.6776  0.1415 -0.2992
12715TIP3    H159636   3.675   4.559   1.468  1.5447  0.2029 -1.3387
12715TIP3    H259637   3.786   4.661   1.454  0.3754  1.6295 -0.4178
12716TIP3   OH259638   5.083   2.146   0.874 -0.2233 -0.6305  0.9901
12716TIP3    H159639   5.087   2.099   0.957 -0.9023 -0.2387  1.2513
12716TIP3    H259640   5.000   2.194   0.878  0.7458  1.0530  0.9674
12717TIP3   OH259641   3.250   1.358   6.402  0.4401  0.5564 -0.2097
12717TIP3    H159642   3.222   1.445   6.429 -0.3201  0.8258 -1.8107
12717TIP3    H259643   3.297   1.373   6.320  0.8349 -0.4673 -0.1696
12718TIP3   OH259644   2.857   3.091  13.496 -0.0718  0.2735  0.6737
12718TIP3    H159645   2.941   3.135  13.481  0.0952 -0.4606 -0.6145
12718TIP3    H259646   2.857   3.069  13.589  1.6817 -0.7685  0.4385
12719TIP3   OH259647   2.898   1.313   1.053  0.2860 -0.6942 -0.3875
12719TIP3    H159648   2.964   1.342   0.990  1.1093 -0.7011  0.4640
12719TIP3    H259649   2.878   1.223   1.027  0.6370 -0.7035 -0.6317
12720TIP3   OH259650   3.940   4.246   3.672 -0.5718 -0.1674 -0.0523
12720TIP3    H159651   3.854   4.289   3.669 -0.7221 -0.5167 -0.8396
12720TIP3    H259652   4.003   4.318   3.678 -1.0598  0.0286  4.1471
12721TIP3   OH259653   6.028   6.004   3.895 -0.3544 -0.3276  0.0597
12721TIP3    H159654   6.062   6.039   3.977  1.7086  1.5491 -1.5271
12721TIP3    H259655   6.040   5.910   3.902 -0.7159 -0.2331  2.1275
12722TIP3   OH259656   6.049   3.618  15.919  0.1645  0.3134  0.2579
12722TIP3    H159657   6.067   3.524  15.926 -0.9164  0.0877  0.2271
12722TIP3    H259658   6.133   3.661  15.936  0.6289 -0.6556  0.4313
12723TIP3   OH259659   4.212   6.805  15.365  0.1672 -0.5298  0.1092
12723TIP3    H159660   4.282   6.812  15.430  0.2570 -1.8898  0.1612
12723TIP3    H259661   4.133   6.786  15.417 -0.2065  0.7710  0.0321
12724TIP3   OH259662   4.879   5.185   1.373  0.2163  0.3517  0.0049
12724TIP3    H159663   4.816   5.127   1.416  0.0729  1.4028  1.2510
12724TIP3    H259664   4.857   5.180   1.280  1.1345 -2.7046 -0.1127
12725TIP3   OH259665   4.361   1.321   4.068  0.4629 -0.3147  0.1310
12725TIP3    H159666   4.351   1.266   4.146  1.7753 -1.5003 -0.4994
12725TIP3    H259667   4.403   1.263   4.004 -1.2271  0.4303 -1.6904
12726TIP3   OH259668   1.575   0.211   0.483 -0.4044  0.2061  0.1785
12726TIP3    H159669   1.533   0.297   0.486 -0.4404  0.1514  1.7236
12726TIP3    H259670   1.653   0.220   0.539  1.0811  0.0051 -1.8262
12727TIP3   OH259671   6.699   6.026  13.596  0.5296 -0.9933  0.0784
12727TIP3    H159672   6.616   6.067  13.621  0.7502 -0.3466 -0.2459
12727TIP3    H259673   6.692   6.013  13.502  0.8793 -0.7629  0.0206
12728TIP3   OH259674   0.659   2.108   6.843 -0.0068 -0.6128  0.1526
12728TIP3    H159675   0.604   2.097   6.765 -0.6228 -0.6284  0.5878
12728TIP3    H259676   0.744   2.137   6.808 -0.5752  0.3520 -0.4498
12729TIP3   OH259677   0.116   2.540  11.538  0.3529 -0.5503  0.5371
12729TIP3    H159678   0.034   2.504  11.571  0.3485 -0.8545  0.1953
12729TIP3    H259679   0.113   2.524  11.444  0.4623  0.1133  0.4142
12730TIP3   OH259680   1.407   0.118   0.217  0.4302 -0.7468  0.0108
12730TIP3    H159681   1.352   0.192   0.193  1.9556  0.3194 -0.3215
12730TIP3    H259682   1.397   0.109   0.312  0.1860 -0.1559  0.0370
12731TIP3   OH259683   5.162   4.111   5.456 -0.1610 -0.1564  0.5035
12731TIP3    H159684   5.250   4.102   5.494 -0.6239 -0.9026  1.4104
12731TIP3    H259685   5.165   4.058   5.376  0.5453  0.6953 -0.0392
12732TIP3   OH259686   0.694   1.112   2.382  0.1962  0.1157  0.1718
12732TIP3    H159687   0.693   1.187   2.323 -0.1226 -0.5942 -0.7402
12732TIP3    H259688   0.653   1.144   2.463 -1.6682  0.4110 -0.8673
12733TIP3   OH259689   3.156   0.029   1.250 -0.1504  0.0314 -0.0383
12733TIP3    H159690   3.164  -0.056   1.292 -1.8095 -0.0078  0.2270
12733TIP3    H259691   3.135   0.009   1.159 -0.0194  0.1614 -0.0980
12734TIP3   OH259692   6.428   4.747   3.343  0.5057 -1.1619 -0.5655
12734TIP3    H159693   6.358   4.771   3.404  0.9834 -1.1312 -0.0157
12734TIP3    H259694   6.406   4.658   3.316  1.6762 -2.2027  1.7134
12735TIP3   OH259695   3.620   2.292   1.332  0.0441  0.3657  0.0232
12735TIP3    H159696   3.625   2.366   1.272 -1.7385  0.8720  0.4680
12735TIP3    H259697   3.671   2.320   1.409 -0.1025  0.8721 -0.0662
12736TIP3   OH259698   6.758   4.729  13.121  0.0509  0.4802  0.5441
12736TIP3    H159699   6.680   4.735  13.176  0.7369  1.2112  1.4628
12736TIP3    H259700   6.781   4.637  13.121 -1.3348  0.1149 -0.4811
12737TIP3   OH259701   3.519   1.727  10.731  0.6790  0.2590  0.0192
12737TIP3    H159702   3.596   1.716  10.675  2.1223 -0.6783  2.1105
12737TIP3    H259703   3.473   1.802  10.694  1.8104 -0.0838 -2.1566
12738TIP3   OH259704   5.716   6.658   1.072 -0.3164 -0.2666 -0.0269
12738TIP3    H159705   5.755   6.593   1.130  1.2122 -0.1555 -0.9134
12738TIP3    H259706   5.710   6.614   0.987 -3.2589 -0.7004  0.3426
12739TIP3   OH259707   6.178   6.778  16.877  0.4376 -0.0013 -0.6521
12739TIP3    H159708   6.200   6.753  16.787  0.7654  0.7771 -0.7947
12739TIP3    H259709   6.112   6.846  16.867 -1.2735 -1.5572 -0.2558
12740TIP3   OH259710   0.198   4.697  15.109 -0.6027 -0.6728 -0.5784
12740TIP3    H159711   0.249   4.674  15.187 -1.2536 -1.7665 -0.4735
12740TIP3    H259712   0.245   4.772  15.072  0.2929 -0.7829  0.2950
12741TIP3   OH259713   3.896   4.964  12.391 -0.1628 -0.2470 -0.5939
12741TIP3    H159714   3.817   4.972  12.444 -0.8475 -0.8211 -1.5194
12741TIP3    H259715   3.906   4.870  12.377  0.1966 -0.1185 -1.2077
12742TIP3   OH259716   5.363   6.350   2.006 -0.0421  0.7657 -0.6650
12742TIP3    H159717   5.281   6.381   1.966  0.2207  0.9884 -1.0419
12742TIP3    H259718   5.427   6.419   1.985 -0.3593  1.9052  1.8963
12743TIP3   OH259719   0.703   1.422  14.354 -0.2439 -0.5565 -0.2728
12743TIP3    H159720   0.709   1.393  14.263 -2.0064 -1.6982 -0.0537
12743TIP3    H259721   0.783   1.474  14.368 -0.2448  0.1573 -2.6390
12744TIP3   OH259722   6.074   5.719  14.007  1.0279  0.0342 -0.1275
12744TIP3    H159723   5.996   5.727  13.952 -0.3028 -0.5600  1.6125
12744TIP3    H259724   6.098   5.810  14.027  0.2423  0.2137  0.0396
12745TIP3   OH259725   3.670   6.384  16.714 -0.2425 -0.4537  0.2553
12745TIP3    H159726   3.592   6.329  16.724  0.5926 -2.1312 -1.9587
12745TIP3    H259727   3.643   6.471  16.742 -2.3888 -1.4236  1.2436
12746TIP3   OH259728   3.329   2.356   6.585  0.2611  0.0324  0.7276
12746TIP3    H159729   3.406   2.356   6.529 -0.3897  0.9711 -0.1643
12746TIP3    H259730   3.340   2.433   6.641 -0.4626  0.6670  0.0007
12747TIP3   OH259731   0.617   2.595  15.048  0.3138  0.0872 -0.1274
12747TIP3    H159732   0.704   2.556  15.034  0.7873  1.6657 -1.8857
12747TIP3    H259733   0.563   2.523  15.079  1.6991 -1.4511 -1.1760
12748TIP3   OH259734   6.502   3.974   3.451 -0.1425 -0.2374  0.2162
12748TIP3    H159735   6.442   4.043   3.479 -1.2859 -0.4047 -1.7342
12748TIP3    H259736   6.547   4.011   3.375  0.8968 -0.8015  0.5487
12749TIP3   OH259737   3.127   2.078   5.962  0.4082 -0.3277 -0.0935
12749TIP3    H159738   3.209   2.124   5.946  0.8256 -0.2604  2.0997
12749TIP3    H259739   3.068   2.146   5.996  0.3417 -0.9503  1.0630
12750TIP3   OH259740   0.313   0.376   0.292  0.7567 -0.4932  0.0616
12750TIP3    H159741   0.280   0.366   0.203  2.2109 -1.6532 -0.3793
12750TIP3    H259742   0.281   0.461   0.321 -0.5116 -0.5215 -1.2322
12751TIP3   OH259743   1.974   1.878   4.106 -0.1838  0.1354  0.1352
12751TIP3    H159744   1.929   1.947   4.058 -0.7806 -0.0130  0.4722
12751TIP3    H259745   1.950   1.892   4.197  1.9378  1.1578  0.5726
12752TIP3   OH259746   1.494   4.468   0.977  0.8216 -0.0836 -0.6899
12752TIP3    H159747   1.542   4.395   0.938 -0.7226 -2.0566  1.0140
12752TIP3    H259748   1.403   4.437   0.981  0.3308  1.5337  1.0022
12753TIP3   OH259749   5.968   1.269   1.703  0.2341  0.9818  0.2588
12753TIP3    H159750   5.976   1.331   1.776  2.2643 -0.1615  1.0326
12753TIP3    H259751   5.898   1.210   1.730 -0.1625  1.5620  0.5214
12754TIP3   OH259752   4.702   6.147  13.737  0.0781 -0.4442  0.0156
12754TIP3    H159753   4.784   6.172  13.780  0.2632 -1.6982  0.3917
12754TIP3    H259754   4.688   6.216  13.672  0.8739  0.3544  0.6714
12755TIP3   OH259755   4.781   1.029   1.454  0.4486 -0.5913  0.2055
12755TIP3    H159756   4.763   0.992   1.540  0.5687  0.6926  0.7895
12755TIP3    H259757   4.875   1.048   1.454 -0.1898  3.0218  1.2658
12756TIP3   OH259758   2.389   1.254   3.455 -0.5109  0.3005 -0.3041
12756TIP3    H159759   2.429   1.191   3.515  1.5335  0.1731 -1.7469
12756TIP3    H259760   2.317   1.205   3.415  0.3992 -0.7969 -0.6432
12757TIP3   OH259761   5.714   5.303  12.088  0.1603 -0.3535 -0.4036
12757TIP3    H159762   5.749   5.214  12.093  0.2008 -0.3541 -0.6951
12757TIP3    H259763   5.775   5.349  12.029  1.5520  0.5183  1.6343
12758TIP3   OH259764   5.722   3.722   6.612  0.1894 -0.1572 -0.0015
12758TIP3    H159765   5.791   3.788   6.607  1.3586 -1.4712 -1.6059
12758TIP3    H259766   5.640   3.772   6.607  1.0574  1.0562 -3.1518
12759TIP3   OH259767   0.971   5.091   2.738 -0.1909 -0.0594  0.1645
12759TIP3    H159768   1.040   5.062   2.799  0.2973  0.2273 -0.2445
12759TIP3    H259769   0.984   5.036   2.661  0.4553  0.9289 -0.4432
12760TIP3   OH259770   2.503   3.873   6.117  0.4020  0.2865 -0.1277
12760TIP3    H159771   2.522   3.820   6.040  0.3881 -1.3847  0.9997
12760TIP3    H259772   2.556   3.835   6.187 -2.7823 -0.9579  1.7339
12761TIP3   OH259773   2.594   2.666  16.561 -0.5876  0.1273  0.5370
12761TIP3    H159774   2.513   2.670  16.511 -0.7559 -0.1987  0.7860
12761TIP3    H259775   2.581   2.595  16.623  1.2722 -2.4623 -1.9122
12762TIP3   OH259776   4.660   2.961   1.890 -0.7779 -0.2360 -0.2329
12762TIP3    H159777   4.700   2.937   1.974 -0.6876  1.1016  0.1147
12762TIP3    H259778   4.567   2.941   1.901 -0.7979  0.1245  0.2542
12763TIP3   OH259779   6.000   4.773  14.318  0.4424  0.0102  0.4646
12763TIP3    H159780   5.979   4.866  14.311  1.4877  0.1360 -1.4288
12763TIP3    H259781   5.976   4.749  14.407 -2.9915  1.3017 -0.0403
12764TIP3   OH259782   6.745   1.405  16.174 -0.5789  0.0292  0.2855
12764TIP3    H159783   6.755   1.310  16.178 -0.8681 -0.0376 -0.3748
12764TIP3    H259784   6.658   1.421  16.211 -1.5140 -0.1960 -1.7179
12765TIP3   OH259785   6.365   1.458  14.758  0.0795  0.5867 -0.3977
12765TIP3    H159786   6.281   1.501  14.771  0.2345  0.8343 -0.2202
12765TIP3    H259787   6.410   1.512  14.693 -0.7798 -0.7723 -2.1542
12766TIP3   OH259788   2.509   3.666   0.183  0.5614 -0.5438  0.5746
12766TIP3    H159789   2.466   3.649   0.267  0.6188  0.2318  0.7649
12766TIP3    H259790   2.569   3.593   0.172 -0.9979 -1.7943  0.1707
12767TIP3   OH259791   1.166   5.565  11.625 -0.2497 -0.0258  0.1071
12767TIP3    H159792   1.257   5.574  11.654 -0.0297  1.1817 -0.9283
12767TIP3    H259793   1.138   5.480  11.660  1.1856 -0.2845  0.6629
12768TIP3   OH259794   4.640   3.958   0.282  0.5980 -0.3607  0.0165
12768TIP3    H159795   4.638   3.899   0.206  1.3054 -1.5846  0.9226
12768TIP3    H259796   4.731   3.988   0.287  0.3615  0.3868 -0.1140
12769TIP3   OH259797   1.101   5.334   0.318 -0.1459 -0.4501  0.2548
12769TIP3    H159798   1.103   5.326   0.413 -1.1082 -1.8188  0.1793
12769TIP3    H259799   1.178   5.286   0.288 -0.9421 -1.7577  0.2589
12770TIP3   OH259800   2.685   0.980   6.683  0.3374  0.3964 -0.1559
12770TIP3    H159801   2.764   0.999   6.632  0.5473 -0.8248 -0.3116
12770TIP3    H259802   2.704   0.896   6.725 -1.0326 -0.1084 -0.5284
12771TIP3   OH259803   2.273   4.924  13.758 -0.4230 -0.4583  0.2414
12771TIP3    H159804   2.314   4.849  13.716 -1.3433 -0.5027 -0.6202
12771TIP3    H259805   2.215   4.886  13.824 -0.5518 -0.4952  0.1096
12772TIP3   OH259806   1.830   1.637  11.275 -0.2146  0.5858  0.0932
12772TIP3    H159807   1.819   1.728  11.247  2.8941  0.5538 -1.3681
12772TIP3    H259808   1.760   1.590  11.229 -1.1090  2.0207 -0.0646
12773TIP3   OH259809   2.231   6.761   4.123  0.2390  0.0482  0.4241
12773TIP3    H159810   2.219   6.687   4.183 -2.2708 -2.0756 -2.5347
12773TIP3    H259811   2.247   6.721   4.038 -1.5738  2.9003 -1.3311
12774TIP3   OH259812   2.204   4.136  16.578 -0.1960  0.4357  0.3242
12774TIP3    H159813   2.248   4.197  16.637 -1.7783  1.4440  0.4889
12774TIP3    H259814   2.115   4.127  16.614 -0.6960 -0.1597 -1.0050
12775TIP3   OH259815   2.519   4.832   6.029  0.1103  0.1423  0.7204
12775TIP3    H159816   2.488   4.773   6.099  0.2573  0.9419  1.4658
12775TIP3    H259817   2.519   4.919   6.069  0.2057  0.6092 -0.2834
12776TIP3   OH259818   3.921   3.232   0.035  0.3650 -0.2895 -0.1268
12776TIP3    H159819   3.886   3.143   0.038  2.0751 -1.0402 -1.1634
12776TIP3    H259820   3.845   3.289   0.030 -0.8027 -1.6167  2.0368
12777TIP3   OH259821   3.876   3.634  14.416 -0.0434 -0.1784 -0.5012
12777TIP3    H159822   3.827   3.610  14.337 -1.0381 -0.4399  0.1812
12777TIP3    H259823   3.936   3.702  14.387 -1.3438  0.6991 -1.2063
12778TIP3   OH259824   5.126   2.739   1.236 -0.0661 -0.0400  0.2790
12778TIP3    H159825   5.123   2.676   1.308  0.0605  0.5634  0.8167
12778TIP3    H259826   5.035   2.752   1.211 -0.3281  1.6556  2.0121
12779TIP3   OH259827   1.220   4.373   0.600  0.7297  0.1118 -0.4054
12779TIP3    H159828   1.255   4.371   0.511  0.8040 -0.6743 -0.3557
12779TIP3    H259829   1.125   4.380   0.589  0.6988 -0.5244 -0.5477
12780TIP3   OH259830   2.993   1.290   5.700 -0.2137 -0.4309 -0.0729
12780TIP3    H159831   3.075   1.303   5.747  0.2616 -0.6079 -0.8637
12780TIP3    H259832   2.926   1.325   5.760  0.5231  0.5772  0.1777
12781TIP3   OH259833   1.770   0.099  12.527  0.5491 -0.1020 -0.0616
12781TIP3    H159834   1.762   0.157  12.602 -1.1668  0.2654 -0.5153
12781TIP3    H259835   1.818   0.150  12.462  0.7007  0.1167  0.2215
12782TIP3   OH259836   2.257   2.751  16.594  0.8946  0.1713  0.5215
12782TIP3    H159837   2.203   2.688  16.546 -0.0232  0.2017  1.5043
12782TIP3    H259838   2.299   2.700  16.662  3.5574 -0.2164 -1.3322
12783TIP3   OH259839   3.980   4.459   1.559  0.4632 -0.6022  0.4273
12783TIP3    H159840   3.964   4.456   1.464 -0.8846  0.6990  0.6048
12783TIP3    H259841   4.040   4.532   1.571  0.0138 -0.2721  0.6622
12784TIP3   OH259842   0.593   4.649   1.713 -0.1461  0.3963  0.0777
12784TIP3    H159843   0.523   4.713   1.712  1.9117  2.7373  1.5091
12784TIP3    H259844   0.585   4.603   1.629 -3.0532  0.9100  0.0273
12785TIP3   OH259845   6.589   0.288   0.833  0.5088 -0.3773 -0.4041
12785TIP3    H159846   6.643   0.360   0.800  1.9918 -1.0370  0.4816
12785TIP3    H259847   6.587   0.302   0.928 -0.8255 -0.4076 -0.4289
12786TIP3   OH259848   1.563   5.237  12.976  0.1221 -0.3746  0.0677
12786TIP3    H159849   1.551   5.142  12.985  1.2905 -0.5771 -0.4064
12786TIP3    H259850   1.656   5.251  12.992 -0.2083  0.8022  0.9849
12787TIP3   OH259851   2.103   4.186  14.942 -0.4583 -0.3113 -0.2913
12787TIP3    H159852   2.039   4.171  14.872  0.3002 -1.0778 -0.8392
12787TIP3    H259853   2.123   4.098  14.974 -0.0029 -0.0403  0.1655
12788TIP3   OH259854   0.120   5.975   5.081 -0.3264  0.2063 -0.4324
12788TIP3    H159855   0.204   5.963   5.037  0.4545  0.6562  0.9062
12788TIP3    H259856   0.133   5.938   5.168 -1.0194  1.7283  0.3255
12789TIP3   OH259857   0.022   0.629  11.705 -0.0145  0.2238 -0.4078
12789TIP3    H159858   0.103   0.580  11.696 -0.1623 -0.2814  0.9019
12789TIP3    H259859  -0.047   0.564  11.689 -0.1777  0.3532 -0.2336
12790TIP3   OH259860   3.977   6.816  15.570  0.1623 -0.3763 -0.1259
12790TIP3    H159861   3.888   6.850  15.561 -0.0313 -0.8504 -0.0005
12790TIP3    H259862   4.032   6.894  15.579 -0.3623 -0.1132  0.8348
12791TIP3   OH259863   0.380   5.156  16.451 -0.0555 -0.3018  0.1605
12791TIP3    H159864   0.288   5.153  16.478  0.0061 -1.2052  0.2836
12791TIP3    H259865   0.429   5.161  16.534 -0.0522  1.9694  0.0501
12792TIP3   OH259866   1.803   6.661  11.626 -0.5933  0.3877 -0.1864
12792TIP3    H159867   1.759   6.717  11.563 -0.4195  0.8043  0.0639
12792TIP3    H259868   1.733   6.623  11.678 -0.6479  1.2426  0.3747
12793TIP3   OH259869   3.869   3.855  13.880  0.4701 -0.0503 -0.7012
12793TIP3    H159870   3.870   3.938  13.831  0.9687 -0.0187 -0.6385
12793TIP3    H259871   3.923   3.796  13.828  0.8514 -0.0720 -0.2844
12794TIP3   OH259872   5.668   2.524   0.950 -0.6311 -0.0298 -0.3287
12794TIP3    H159873   5.607   2.595   0.930  0.3782  1.2359  0.9961
12794TIP3    H259874   5.614   2.445   0.949 -1.9514  0.8669 -0.8780
12795TIP3   OH259875   5.596   4.632   4.087 -0.8283  0.4570 -0.0782
12795TIP3    H159876   5.555   4.604   4.005  0.6363 -0.2410 -0.6061
12795TIP3    H259877   5.667   4.690   4.059 -0.4654  0.3989  0.7162
12796TIP3   OH259878   6.531   2.108  13.943 -0.0675  0.3380 -0.2415
12796TIP3    H159879   6.494   2.021  13.956  0.1282  0.4885  1.4692
12796TIP3    H259880   6.462   2.158  13.899 -0.4347 -0.4660 -0.5877
12797TIP3   OH259881   5.971   0.378  14.175  0.2946  0.1539  0.0879
12797TIP3    H159882   5.998   0.464  14.143 -0.3844  0.9417  1.5801
12797TIP3    H259883   5.938   0.333  14.097  2.0947  0.6504 -0.9945
12798TIP3   OH259884   0.042   1.388   1.274 -0.1753 -0.2804  0.4931
12798TIP3    H159885   0.048   1.330   1.350  1.6992  1.0118  1.3639
12798TIP3    H259886   0.027   1.475   1.311 -1.1359  0.0790 -0.7083
12799TIP3   OH259887   2.446   1.773  17.018 -0.0330 -0.2645  0.5220
12799TIP3    H159888   2.509   1.714  16.976 -0.8548 -0.7398 -0.0621
12799TIP3    H259889   2.407   1.720  17.088 -1.9293 -0.9745 -1.0134
12800TIP3   OH259890   5.666   1.773   5.896  0.2801  0.3668  0.1424
12800TIP3    H159891   5.746   1.722   5.886 -0.1067 -0.1876 -0.1655
12800TIP3    H259892   5.696   1.861   5.918  0.9344 -0.2033  1.6167
12801TIP3   OH259893   0.117   3.725   0.660 -0.3770  0.3179 -0.0200
12801TIP3    H159894   0.099   3.634   0.634  2.2888  0.2195 -1.6983
12801TIP3    H259895   0.212   3.731   0.665 -0.5317  2.8500  0.7761
12802TIP3   OH259896   5.747   0.698  11.936 -0.2808 -1.1606  0.2970
12802TIP3    H159897   5.776   0.768  11.877 -1.7934 -0.3224  0.4993
12802TIP3    H259898   5.676   0.654  11.888 -1.5462 -0.4551  1.4559
12803TIP3   OH259899   6.785   1.860  16.977  0.1741 -0.1258  0.0656
12803TIP3    H159900   6.734   1.931  17.016  1.9636  1.2753 -0.0584
12803TIP3    H259901   6.855   1.843  17.041  1.8129  0.6629 -1.4609
12804TIP3   OH259902   6.764   5.004   0.274 -0.2060 -0.1352 -0.1905
12804TIP3    H159903   6.680   5.041   0.302 -0.5617 -1.9300  1.2392
12804TIP3    H259904   6.805   4.975   0.356  1.6487  0.3758 -0.9155
12805TIP3   OH259905   6.172   1.259  14.776  0.2980  0.0834  0.0303
12805TIP3    H159906   6.252   1.308  14.757 -0.5376  1.2570 -0.5533
12805TIP3    H259907   6.107   1.326  14.798 -0.9767 -0.7243 -1.1526
12806TIP3   OH259908   5.358   4.160   6.298 -0.0655 -0.6183  0.4817
12806TIP3    H159909   5.278   4.108   6.300 -0.0768 -0.6786 -0.8073
12806TIP3    H259910   5.384   4.169   6.389 -1.2129 -1.1102  0.8593
12807TIP3   OH259911   2.975   0.018  16.856 -0.5917  0.5635 -0.0967
12807TIP3    H159912   3.026   0.010  16.775 -0.6654 -0.1650 -0.0790
12807TIP3    H259913   2.927  -0.065  16.861  0.4949  0.0255  1.4420
12808TIP3   OH259914   6.769   3.483   5.283 -0.1822  0.0198 -0.1770
12808TIP3    H159915   6.863   3.466   5.269 -0.2329 -0.8081  0.4373
12808TIP3    H259916   6.743   3.536   5.207  0.9910  1.0456  0.1153
12809TIP3   OH259917   2.647   4.910   4.670 -0.0637 -0.3623 -0.7911
12809TIP3    H159918   2.632   4.823   4.634 -1.1163 -0.9877  1.1074
12809TIP3    H259919   2.563   4.935   4.709  0.4321  1.1987 -0.6857
12810TIP3   OH259920   5.143   4.130  13.682  0.2431  0.0425  0.6138
12810TIP3    H159921   5.132   4.057  13.621 -1.2816  0.5051  0.3049
12810TIP3    H259922   5.218   4.178  13.648  0.7498 -0.9321  0.3458
12811TIP3   OH259923   4.226   0.575  11.930  0.1791 -0.4531 -0.1646
12811TIP3    H159924   4.136   0.609  11.931  0.4429  0.2334  0.5930
12811TIP3    H259925   4.255   0.586  11.840 -0.3153 -0.1841 -0.2950
12812TIP3   OH259926   2.798   3.973   1.426 -0.0257  0.1899 -0.1463
12812TIP3    H159927   2.802   3.926   1.509 -1.2813  1.3081  0.5687
12812TIP3    H259928   2.872   4.034   1.430  0.0445  0.0930  0.0675
12813TIP3   OH259929   6.704   2.800  11.597  0.8250 -0.3614 -0.4752
12813TIP3    H159930   6.681   2.707  11.599  1.2701 -0.4825 -1.0876
12813TIP3    H259931   6.669   2.832  11.514  0.1323  0.1647  0.0084
12814TIP3   OH259932   1.496   0.771  15.405  0.6098 -0.2606 -0.1593
12814TIP3    H159933   1.561   0.743  15.341  0.7100 -0.4349  0.0136
12814TIP3    H259934   1.510   0.713  15.480 -0.0321 -0.5897 -0.2851
12815TIP3   OH259935   3.886   3.561  11.592 -0.2283  0.8156 -0.5311
12815TIP3    H159936   3.968   3.603  11.615 -0.1675  0.8827 -0.8669
12815TIP3    H259937   3.903   3.467  11.606 -0.4986  0.9270  0.6223
12816TIP3   OH259938   4.773   0.642  14.505  0.1037 -0.1719 -0.0043
12816TIP3    H159939   4.772   0.665  14.412 -2.3883 -0.5037 -0.0904
12816TIP3    H259940   4.823   0.561  14.510  2.2447  1.0478 -0.7097
12817TIP3   OH259941   5.598   4.816  16.018 -0.0721 -0.7140 -0.4762
12817TIP3    H159942   5.574   4.892  15.964  0.4547  0.0350  0.3146
12817TIP3    H259943   5.517   4.790  16.060 -0.3341 -0.8356 -1.0443
12818TIP3   OH259944   4.121   1.094   3.524 -0.2207  0.0772  0.4273
12818TIP3    H159945   4.094   1.030   3.590  1.4512 -0.7179  0.3643
12818TIP3    H259946   4.144   1.172   3.575  1.4288 -0.6600  0.8450
12819TIP3   OH259947   5.279   6.781   2.826  0.0210 -0.0335 -0.3455
12819TIP3    H159948   5.356   6.737   2.789 -0.0354 -0.5095  0.0912
12819TIP3    H259949   5.300   6.792   2.919 -0.9422 -1.3050  0.0408
12820TIP3   OH259950   0.361   2.764  15.307  0.1471  0.3454 -0.5464
12820TIP3    H159951   0.421   2.831  15.340  0.0166  0.9838 -1.6022
12820TIP3    H259952   0.407   2.682  15.321  1.2245  0.8250 -1.2587
12821TIP3   OH259953   2.382   5.692   6.651 -0.4261 -0.3114 -0.4725
12821TIP3    H159954   2.308   5.657   6.700  0.1181 -0.8904 -0.0521
12821TIP3    H259955   2.355   5.684   6.559 -0.5225 -1.3841 -0.3644
12822TIP3   OH259956   2.706   4.713  17.218 -0.2229  0.1670 -0.3695
12822TIP3    H159957   2.618   4.680  17.231 -0.7549  1.3018 -0.9987
12822TIP3    H259958   2.696   4.808  17.211  1.3456  0.5591  2.1078
12823TIP3   OH259959   4.179   6.647   2.139  0.1743 -0.3029 -0.2755
12823TIP3    H159960   4.271   6.630   2.161  0.5318 -0.1701 -1.6545
12823TIP3    H259961   4.139   6.561   2.135  0.6890 -0.4857 -1.6160
12824TIP3   OH259962   4.355   0.809   0.260 -0.8370  0.5187  0.0951
12824TIP3    H159963   4.300   0.731   0.259 -0.5233  0.2825  1.2221
12824TIP3    H259964   4.377   0.824   0.168 -1.2825 -0.4467 -0.1724
12825TIP3   OH259965   2.298   6.693   5.458  0.0444 -0.8590  0.0302
12825TIP3    H159966   2.375   6.653   5.417  0.2990 -0.7544  0.4077
12825TIP3    H259967   2.226   6.672   5.398  0.1892 -1.8293  0.1899
12826TIP3   OH259968   6.366   3.384  14.603 -0.3217  0.1828 -0.0175
12826TIP3    H159969   6.443   3.438  14.620 -0.0774  0.3719 -1.6738
12826TIP3    H259970   6.313   3.393  14.682  1.0314  0.5958  0.8639
12827TIP3   OH259971   3.095   4.690  16.140  0.0581 -0.0266 -0.3151
12827TIP3    H159972   3.050   4.656  16.217  2.8630 -2.0068  0.5435
12827TIP3    H259973   3.037   4.670  16.067 -2.8290  2.2700  1.2716
12828TIP3   OH259974   5.410   0.959  16.093 -0.0343 -0.8258 -0.0262
12828TIP3    H159975   5.339   1.009  16.053  0.3073 -0.9186 -0.7664
12828TIP3    H259976   5.423   0.999  16.179 -0.2348 -0.0924 -0.3306
12829TIP3   OH259977   4.042   5.666  13.017  0.4427  0.2084 -0.4144
12829TIP3    H159978   3.967   5.725  13.016  0.4537  0.2222 -0.5460
12829TIP3    H259979   4.019   5.597  13.078 -0.0214 -0.2282 -1.0712
12830TIP3   OH259980   5.292   0.354  14.238 -0.1546 -0.0102 -0.4389
12830TIP3    H159981   5.271   0.409  14.314  3.4779  1.1928 -0.2201
12830TIP3    H259982   5.284   0.413  14.163  0.8662  0.0434 -0.5069
12831TIP3   OH259983   0.971   0.635   5.918  0.1426  0.1076  0.1864
12831TIP3    H159984   0.961   0.730   5.923 -2.0806 -0.0694 -0.1938
12831TIP3    H259985   1.054   0.617   5.961  1.4523  2.3723 -1.2931
12832TIP3   OH259986   3.248   6.614  13.356 -0.2356  0.3537 -0.4312
12832TIP3    H159987   3.248   6.688  13.417  1.2228 -1.0558  1.3495
12832TIP3    H259988   3.325   6.628  13.301 -1.8413  1.8988 -2.3355
12833TIP3   OH259989   4.799   2.326  16.916 -0.1900 -0.0234 -0.2556
12833TIP3    H159990   4.712   2.342  16.952 -0.5127  0.1126 -1.0882
12833TIP3    H259991   4.806   2.386  16.842  1.0476  0.7681  0.4876
12834TIP3   OH259992   6.275   0.553  15.638  0.0094  0.1378  0.0207
12834TIP3    H159993   6.281   0.537  15.732 -1.7539  3.1354  0.7208
12834TIP3    H259994   6.231   0.475  15.603  1.2396 -1.2789  1.5702
12835TIP3   OH259995   2.270   0.205   3.300  0.0058  0.2707  0.3072
12835TIP3    H159996   2.330   0.207   3.225 -1.2773 -0.5462 -0.7655
12835TIP3    H259997   2.245   0.296   3.314  0.4833  0.4620 -0.0690
12836TIP3   OH259998   3.525   6.698  13.178 -0.6146  0.3575 -0.6591
12836TIP3    H159999   3.594   6.746  13.132 -1.3113  0.6214 -1.4347
12836TIP3    H260000   3.560   6.609  13.187  0.2509  0.7427 -0.1294
12837TIP3   OH260001   3.158   0.312   5.095  0.9633 -0.0055 -0.3645
12837TIP3    H160002   3.143   0.220   5.072  1.4541 -0.0107 -0.6844
12837TIP3    H260003   3.143   0.359   5.013  2.9809 -0.0466 -0.7802
12838TIP3   OH260004   1.481   6.026   4.096  0.1326  0.7307  0.0683
12838TIP3    H160005   1.543   6.023   4.023 -0.0966  2.7759 -0.2352
12838TIP3    H260006   1.408   5.971   4.069  0.7900  0.1534 -0.5415
12839TIP3   OH260007   6.319   1.998   4.835  0.7766  0.1552  0.0048
12839TIP3    H160008   6.397   2.050   4.850  0.9779 -0.4823  1.2230
12839TIP3    H260009   6.335   1.915   4.881 -0.3154 -0.2509 -0.3141
12840TIP3   OH260010   4.028   2.172  10.190  0.0780  0.1747  1.0576
12840TIP3    H160011   3.982   2.089  10.175  1.1614  0.0333 -1.8076
12840TIP3    H260012   3.962   2.239  10.175 -0.6792 -0.1484  2.8970
12841TIP3   OH260013   4.297   2.268   5.307  0.3916 -0.5222  0.6985
12841TIP3    H160014   4.342   2.311   5.235  2.3220 -0.0430  2.1608
12841TIP3    H260015   4.246   2.337   5.349  2.0070 -0.0441  1.8978
12842TIP3   OH260016   6.352   2.446  16.048 -0.3226 -0.1010  0.1473
12842TIP3    H160017   6.271   2.397  16.035 -1.2307  0.9813  1.5765
12842TIP3    H260018   6.393   2.405  16.125  0.0451 -0.0820 -0.0373
12843TIP3   OH260019   3.832   1.862  12.302  0.0525 -0.1041 -0.0791
12843TIP3    H160020   3.831   1.930  12.235  1.9366 -0.4423 -0.4926
12843TIP3    H260021   3.915   1.874  12.347 -0.7108 -0.5743  1.4781
12844TIP3   OH260022   0.172   2.295  14.170  0.2704 -0.6475  0.5359
12844TIP3    H160023   0.207   2.237  14.102  0.9452  0.0580  0.2735
12844TIP3    H260024   0.152   2.376  14.124 -0.7975 -0.7134  0.8757
12845TIP3   OH260025   1.590   1.843  14.194  0.2115 -0.1290 -0.3288
12845TIP3    H160026   1.568   1.928  14.156 -0.2244  0.6295  1.5687
12845TIP3    H260027   1.683   1.832  14.177  0.2849  0.7580 -0.5263
12846TIP3   OH260028   0.992   6.660  13.311 -0.0133 -0.4728  0.1283
12846TIP3    H160029   1.039   6.631  13.389 -0.3297 -1.4147 -0.0296
12846TIP3    H260030   0.918   6.600  13.304 -0.8578  0.5700 -0.0173
12847TIP3   OH260031   4.131   5.157   1.742 -0.3535  0.4331  0.0289
12847TIP3    H160032   4.127   5.181   1.649 -0.9080  0.2235 -0.0035
12847TIP3    H260033   4.216   5.189   1.771  0.9771 -1.8634 -1.2144
12848TIP3   OH260034   4.635   3.209  14.706  0.4322  0.1089  0.2436
12848TIP3    H160035   4.660   3.277  14.643 -2.4329  0.8938 -0.1120
12848TIP3    H260036   4.617   3.257  14.787  0.0104 -0.3961  0.4515
12849TIP3   OH260037   4.759   3.394   6.509 -0.2214 -0.0114  0.1569
12849TIP3    H160038   4.693   3.453   6.545 -1.3453 -0.4989 -1.0439
12849TIP3    H260039   4.841   3.442   6.516 -0.9471  1.2418  0.2343
12850TIP3   OH260040   1.635   4.030  16.797  0.1284  0.0754  0.0261
12850TIP3    H160041   1.688   4.007  16.873 -0.6507 -1.5652  0.0888
12850TIP3    H260042   1.694   4.016  16.722  0.6006  0.8036  0.2574
12851TIP3   OH260043   5.099   6.158  14.942 -0.0972  0.3097  0.1460
12851TIP3    H160044   5.052   6.136  15.023 -1.1021 -0.9384 -0.7564
12851TIP3    H260045   5.189   6.174  14.971 -0.8872  1.9961  1.7946
12852TIP3   OH260046   6.283   4.534  12.950  0.4160  0.4310  0.2936
12852TIP3    H160047   6.297   4.464  13.013  2.2950  0.0354 -0.5202
12852TIP3    H260048   6.312   4.498  12.866  0.9259  1.9828 -0.2315
12853TIP3   OH260049   4.550   2.492   5.783  0.2967  0.3157 -0.7260
12853TIP3    H160050   4.542   2.580   5.819  0.3288 -0.4295  1.1256
12853TIP3    H260051   4.507   2.436   5.846  0.6356 -1.0607 -1.6980
12854TIP3   OH260052   3.065   3.079  11.779 -0.0510  0.0092 -0.1969
12854TIP3    H160053   3.097   3.142  11.843  0.0145  0.5367 -0.7420
12854TIP3    H260054   3.014   3.016  11.830  1.5479 -0.6368  0.6502
12855TIP3   OH260055   0.040   4.439  11.895  0.1783 -0.1113 -0.2501
12855TIP3    H160056  -0.022   4.492  11.844 -0.5172 -0.7001 -0.0268
12855TIP3    H260057  -0.010   4.360  11.918  0.1235  0.6058  2.2267
12856TIP3   OH260058   3.267   1.774   5.588 -0.0051  0.0554  0.3895
12856TIP3    H160059   3.359   1.765   5.614  0.1620  0.4144 -0.0842
12856TIP3    H260060   3.258   1.864   5.559 -0.7679  0.3401  1.4665
12857TIP3   OH260061   5.216   2.010   2.251  0.3633 -0.1291 -0.2081
12857TIP3    H160062   5.219   1.920   2.283  0.0441  0.1533  0.6341
12857TIP3    H260063   5.257   2.062   2.321 -2.4504  0.7924  0.8606
12858TIP3   OH260064   2.076   0.088   3.677  0.0839  0.2058  0.1490
12858TIP3    H160065   2.144   0.127   3.623  1.3161 -1.1872  0.6651
12858TIP3    H260066   2.097  -0.005   3.679 -1.6322 -0.1960  0.6197
12859TIP3   OH260067   2.947   4.331  13.636 -0.5575 -0.1431 -0.1542
12859TIP3    H160068   2.881   4.320  13.704 -1.8357  3.4105 -0.7573
12859TIP3    H260069   2.920   4.271  13.566 -0.6115 -1.9809  1.4087
12860TIP3   OH260070   1.481   5.001   4.844 -0.4633  0.3580  0.2076
12860TIP3    H160071   1.458   4.982   4.934 -1.9389 -1.4485 -0.5269
12860TIP3    H260072   1.464   5.095   4.834 -0.7622  0.4637  1.6537
12861TIP3   OH260073   3.529   0.584  15.234  0.3999  0.0623 -0.0547
12861TIP3    H160074   3.550   0.538  15.316  0.2124  0.0377 -0.0201
12861TIP3    H260075   3.476   0.659  15.262  1.0070  0.5007 -0.0730
12862TIP3   OH260076   0.030   3.269  12.617  0.5608  0.3866  0.1807
12862TIP3    H160077   0.016   3.333  12.687  1.0097  0.2622  0.3863
12862TIP3    H260078  -0.049   3.273  12.564  0.2500  0.5327  0.6580
12863TIP3   OH260079   4.443   1.989  12.000  0.1880 -0.4387  0.3310
12863TIP3    H160080   4.415   1.998  11.909 -0.3252 -0.6711  0.4636
12863TIP3    H260081   4.401   1.908  12.031 -0.4098  0.1406  1.0543
12864TIP3   OH260082   3.926   6.054   6.272 -0.1836 -0.2497 -0.6157
12864TIP3    H160083   4.016   6.085   6.266 -0.4016  0.1365 -2.2741
12864TIP3    H260084   3.879   6.127   6.313  0.1876 -0.3218 -0.0519
12865TIP3   OH260085   2.303   2.300   2.479 -0.1962 -0.7503 -0.9112
12865TIP3    H160086   2.333   2.377   2.528 -0.1436 -1.1003 -0.3858
12865TIP3    H260087   2.303   2.230   2.544 -2.3811 -0.7118 -0.8292
12866TIP3   OH260088   5.538   2.791   5.365 -0.2360  0.4231  0.0402
12866TIP3    H160089   5.632   2.771   5.354 -0.8924 -1.5524 -2.4714
12866TIP3    H260090   5.511   2.736   5.438  0.1664 -0.4862 -0.4792
12867TIP3   OH260091   1.508   3.408  16.315  0.4055  0.1613 -0.1856
12867TIP3    H160092   1.446   3.481  16.302  2.1745  1.5456 -0.9803
12867TIP3    H260093   1.555   3.402  16.232  1.4676 -0.7690  0.4862
12868TIP3   OH260094   3.839   5.800   6.289 -0.1956  0.4015 -0.0119
12868TIP3    H160095   3.864   5.892   6.279 -0.5412  0.4296 -0.6911
12868TIP3    H260096   3.747   5.797   6.261  0.0611 -0.2909 -0.7966
12869TIP3   OH260097   0.832   1.161   0.792 -0.1152  0.1608  0.3535
12869TIP3    H160098   0.799   1.115   0.869 -0.7363  0.8914  0.5364
12869TIP3    H260099   0.901   1.218   0.826 -0.1614  0.2389  0.3161
12870TIP3   OH260100   5.522   1.457  12.989 -0.1112 -0.4590  0.2822
12870TIP3    H160101   5.503   1.513  13.064 -0.1664  1.2566 -0.9815
12870TIP3    H260102   5.614   1.471  12.970 -0.6766  1.1329 -1.5320
12871TIP3   OH260103   5.431   0.924  14.387 -0.3412  0.9205  0.3722
12871TIP3    H160104   5.354   0.981  14.382 -1.7528 -1.0434 -1.3554
12871TIP3    H260105   5.439   0.903  14.480 -1.5006  1.6883  0.6623
12872TIP3   OH260106   5.186   0.573   4.358  0.0910  0.1047 -0.7964
12872TIP3    H160107   5.267   0.601   4.400 -1.2724  0.6215  1.6059
12872TIP3    H260108   5.188   0.614   4.271  1.8663  1.0274 -0.3418
12873TIP3   OH260109   2.069   2.266  10.426  0.3116  0.2975 -1.0072
12873TIP3    H160110   1.995   2.318  10.457  0.7865  0.5314 -0.2585
12873TIP3    H260111   2.042   2.175  10.442  0.5690  0.4104  0.1715
12874TIP3   OH260112   2.304   3.598   3.087  0.4863 -0.0466 -0.2661
12874TIP3    H160113   2.240   3.575   3.155  1.4959  0.5216  0.9147
12874TIP3    H260114   2.337   3.684   3.115  1.2892 -0.0447 -1.2175
12875TIP3   OH260115   4.300   3.467   0.318  0.6017 -0.0801 -0.1916
12875TIP3    H160116   4.227   3.468   0.380 -0.0221  1.0160 -0.9135
12875TIP3    H260117   4.334   3.378   0.321  2.2602  0.5938  3.6482
12876TIP3   OH260118   0.003   0.743   4.697  0.2187  0.1245  0.2095
12876TIP3    H160119   0.032   0.659   4.732  0.4922 -0.0046 -0.3278
12876TIP3    H260120   0.056   0.808   4.744 -0.9803  0.0953  1.6605
12877TIP3   OH260121   2.330   1.011   1.535  0.1506 -0.2900  0.5601
12877TIP3    H160122   2.272   1.088   1.532  0.6585  0.1382  1.5595
12877TIP3    H260123   2.362   1.003   1.445  1.4413  1.7164  0.8082
12878TIP3   OH260124   5.019   2.637   5.834 -0.3190 -0.3805 -0.0163
12878TIP3    H160125   5.034   2.548   5.804  0.9502 -0.0213 -0.4570
12878TIP3    H260126   4.946   2.669   5.781 -1.0859 -1.2946  0.4611
12879TIP3   OH260127   2.675   5.713   5.142  0.2708  0.1680  0.0245
12879TIP3    H160128   2.642   5.644   5.085  0.2920  0.3509 -0.2084
12879TIP3    H260129   2.689   5.669   5.226  2.2607 -0.5988 -0.6787
12880TIP3   OH260130   6.443   1.497   2.242  0.1918  0.1884 -0.5069
12880TIP3    H160131   6.378   1.542   2.187 -0.2403  2.4204  1.7688
12880TIP3    H260132   6.415   1.406   2.241 -0.8642  0.4991 -2.5092
12881TIP3   OH260133   0.194   1.164  13.081  0.1651 -0.1041 -0.2262
12881TIP3    H160134   0.260   1.127  13.140  0.8554 -0.1047 -1.0025
12881TIP3    H260135   0.232   1.248  13.053 -0.4319  0.1762 -0.1930
12882TIP3   OH260136   3.262   6.193  15.494  0.1969  0.2663  0.0378
12882TIP3    H160137   3.240   6.203  15.402 -0.8107 -1.5443  0.0598
12882TIP3    H260138   3.335   6.252  15.508  1.0536 -0.2231 -2.1878
12883TIP3   OH260139   3.106   3.883  13.864 -0.0003  0.1101  0.0778
12883TIP3    H160140   3.104   3.854  13.956  2.2502  0.2818  0.2234
12883TIP3    H260141   3.036   3.948  13.858 -0.0094  0.2894  1.7451
12884TIP3   OH260142   2.544   2.464   0.943 -0.4852 -0.1450  0.0256
12884TIP3    H160143   2.482   2.463   0.870  1.2918 -0.3920 -1.5171
12884TIP3    H260144   2.615   2.406   0.914  1.3869  1.6598  0.9147
12885TIP3   OH260145   4.362   2.411  11.932  0.1998  0.6104 -0.4998
12885TIP3    H160146   4.368   2.422  11.837 -0.3356  2.3393 -0.3489
12885TIP3    H260147   4.451   2.429  11.963 -0.0332  1.8293 -0.5188
12886TIP3   OH260148   4.400   4.546  14.473 -0.2282 -0.2719 -0.4346
12886TIP3    H160149   4.369   4.632  14.444  0.8969 -0.3268 -1.8069
12886TIP3    H260150   4.485   4.535  14.430  0.4156 -1.3424  1.0769
12887TIP3   OH260151   1.889   3.648  13.910  0.8469 -0.5391 -0.6541
12887TIP3    H160152   1.901   3.553  13.917 -0.7425 -0.6817  0.4744
12887TIP3    H260153   1.876   3.677  14.001 -0.7398  0.4589 -1.1827
12888TIP3   OH260154   6.069   5.282  12.011  0.3065 -0.3010  0.0275
12888TIP3    H160155   6.005   5.333  11.962 -1.9464 -3.1122 -0.1346
12888TIP3    H260156   6.068   5.319  12.099 -1.8255 -0.5385  0.1139
12889TIP3   OH260157   3.623   4.904  16.946  0.2926  0.0785  0.4146
12889TIP3    H160158   3.576   4.939  16.870 -1.0171  1.1363  1.6686
12889TIP3    H260159   3.572   4.827  16.972  1.3289 -0.8903 -0.3839
12890TIP3   OH260160   0.864   4.919  13.632 -0.6069 -0.0353  0.0137
12890TIP3    H160161   0.850   4.902  13.538 -0.4004  0.5399 -0.1236
12890TIP3    H260162   0.836   5.010  13.644  0.1117  0.1483  0.3428
12891TIP3   OH260163   0.323   0.097   5.189  0.1582  0.2272 -0.7788
12891TIP3    H160164   0.239   0.099   5.233  0.9827 -0.4861  0.8826
12891TIP3    H260165   0.316   0.022   5.129 -0.0139 -0.5312  0.1670
12892TIP3   OH260166   2.516   0.121  13.689  0.3675 -0.8646 -0.0456
12892TIP3    H160167   2.567   0.098  13.766  0.7289  1.2868  0.3861
12892TIP3    H260168   2.443   0.173  13.722  0.1250 -0.5374 -1.0578
12893TIP3   OH260169   3.931   6.277   5.956  0.5046  0.0174 -0.6516
12893TIP3    H160170   3.897   6.326   6.032 -0.4640 -0.5776 -0.6864
12893TIP3    H260171   3.973   6.343   5.902  0.4022  0.5984 -0.0333
12894TIP3   OH260172   3.422   5.608   3.997  0.5239  0.1070  0.0394
12894TIP3    H160173   3.402   5.570   4.082  1.4130  0.6048  0.4791
12894TIP3    H260174   3.402   5.539   3.934 -0.2438 -0.2230  0.6464
12895TIP3   OH260175   0.485   6.704  15.038 -0.5635  0.3183 -0.4142
12895TIP3    H160176   0.440   6.709  15.122  1.1059  2.4647  0.3941
12895TIP3    H260177   0.504   6.795  15.015  3.2083 -0.4463 -0.7450
12896TIP3   OH260178   1.548   3.357   0.342 -1.0238  0.1460  0.2969
12896TIP3    H160179   1.484   3.365   0.271 -0.5018 -1.2673 -0.3592
12896TIP3    H260180   1.580   3.446   0.355 -1.6299  0.5397 -0.7694
12897TIP3   OH260181   2.898   0.420   1.767 -0.2674 -0.3113 -0.1045
12897TIP3    H160182   2.887   0.505   1.812  2.2560 -0.3960  0.7676
12897TIP3    H260183   2.985   0.425   1.729 -1.4524 -1.1917 -3.0980
12898TIP3   OH260184   1.874   1.884  14.287  0.0585  0.0202 -0.3377
12898TIP3    H160185   1.948   1.876  14.348 -0.6240 -1.1917  0.3371
12898TIP3    H260186   1.863   1.979  14.277  2.7356  0.2517 -1.7314
12899TIP3   OH260187   1.852   5.325   2.878 -0.2944 -0.2357  0.6623
12899TIP3    H160188   1.809   5.364   2.954  0.5619  1.0394  0.5092
12899TIP3    H260189   1.928   5.280   2.915  1.0670  1.7893  0.4219
12900TIP3   OH260190   4.804   2.857  15.011 -0.3857  0.1076  0.0564
12900TIP3    H160191   4.803   2.927  15.077 -0.8072 -0.0666  0.2377
12900TIP3    H260192   4.723   2.808  15.028 -0.7208  0.3381 -0.8781
12901TIP3   OH260193   0.702   1.050  15.396  0.3114 -0.2075 -0.7038
12901TIP3    H160194   0.789   1.088  15.385 -0.1836  1.3248  0.5118
12901TIP3    H260195   0.716   0.956  15.390  2.4796 -0.1348  1.9831
12902TIP3   OH260196   3.371   5.751   3.753  1.0434 -0.6266  0.1574
12902TIP3    H160197   3.458   5.771   3.788  0.2168  1.4479  1.1224
12902TIP3    H260198   3.322   5.718   3.828  0.3021  0.4823  0.1729
12903TIP3   OH260199   2.726   3.621  13.165  0.7280  0.3875  0.5356
12903TIP3    H160200   2.720   3.641  13.259 -1.0993 -0.8111  0.7026
12903TIP3    H260201   2.676   3.691  13.123  1.9942  1.2255  0.3938
12904TIP3   OH260202   2.748   2.214  14.782 -0.8352  0.0246  0.0535
12904TIP3    H160203   2.695   2.197  14.704 -0.0068 -0.0638 -0.4844
12904TIP3    H260204   2.704   2.287  14.825 -1.7078 -0.3968 -0.1085
12905TIP3   OH260205   2.549   2.473   4.947  0.2308 -0.2992 -0.2022
12905TIP3    H160206   2.581   2.382   4.945 -0.7850 -0.6434 -2.1158
12905TIP3    H260207   2.524   2.491   4.856 -1.6010  1.1700  0.5744
12906TIP3   OH260208   1.086   0.692   0.558  0.0400  0.2871 -0.2102
12906TIP3    H160209   1.168   0.742   0.566 -0.6914  1.1672  2.0228
12906TIP3    H260210   1.041   0.734   0.485  0.7257  1.0324 -0.2178
12907TIP3   OH260211   4.458   0.143  14.693  0.0708  0.4417 -0.2053
12907TIP3    H160212   4.432   0.146  14.601 -1.0663 -1.4125  0.0238
12907TIP3    H260213   4.448   0.051  14.718  0.3290  0.9215  1.7770
12908TIP3   OH260214   2.073   5.390  13.085  0.3742 -0.2725 -0.0767
12908TIP3    H160215   1.999   5.332  13.067 -0.6847  0.4865  1.6472
12908TIP3    H260216   2.060   5.464  13.026  0.1728 -0.4875 -0.3063
12909TIP3   OH260217   5.367   1.073  12.388  0.1118 -0.1251 -0.5088
12909TIP3    H160218   5.445   1.125  12.405  0.1905 -0.0447 -1.1262
12909TIP3    H260219   5.401   0.985  12.370  0.1456  0.1820 -2.0009
12910TIP3   OH260220   2.695   0.438  13.924 -0.0589 -0.4934  0.1425
12910TIP3    H160221   2.718   0.347  13.907  1.5426 -0.6972  3.0550
12910TIP3    H260222   2.747   0.488  13.861 -1.3374 -1.5743 -1.8146
12911TIP3   OH260223   1.238   3.322  11.232 -0.5088  0.5273 -0.2833
12911TIP3    H160224   1.260   3.385  11.164  0.0902 -1.9156 -2.4313
12911TIP3    H260225   1.322   3.284  11.259 -0.9228  0.1256  0.4809
12912TIP3   OH260226   5.684   1.286  16.026 -0.5650  0.7360 -0.6493
12912TIP3    H160227   5.614   1.283  16.091  0.4237  0.3559  0.4019
12912TIP3    H260228   5.649   1.236  15.951 -1.3322  0.3658 -0.0503
12913TIP3   OH260229   5.881   1.095   5.604 -0.1568  0.1814  0.2386
12913TIP3    H160230   5.862   1.043   5.526 -1.6350  1.7234 -0.4867
12913TIP3    H260231   5.896   1.184   5.571 -1.5355  1.0184  1.7446
12914TIP3   OH260232   1.512   6.569   0.311  0.6654  0.2219  0.1602
12914TIP3    H160233   1.489   6.648   0.359 -0.6088  1.3846 -2.2430
12914TIP3    H260234   1.508   6.499   0.376 -0.6081  1.7802  1.8090
12915TIP3   OH260235   4.694   5.479   1.628 -0.7843  0.0999  0.4168
12915TIP3    H160236   4.702   5.562   1.677  0.4144 -0.3557  1.0204
12915TIP3    H260237   4.779   5.437   1.640 -0.9121 -0.5946 -1.0483
12916TIP3   OH260238   0.333   1.848  16.956 -0.0703  0.2321  0.1110
12916TIP3    H160239   0.413   1.834  16.905  0.8454  0.8628  1.3463
12916TIP3    H260240   0.292   1.926  16.916  0.4910  0.5494  0.1529
12917TIP3   OH260241   3.574   1.322   0.397  0.1139 -0.1259  0.6868
12917TIP3    H160242   3.512   1.323   0.324 -0.3438 -0.7536  1.0629
12917TIP3    H260243   3.640   1.388   0.373 -0.1341 -0.1904 -0.1999
12918TIP3   OH260244   2.197   2.870  13.193  0.0207 -0.1111  1.0324
12918TIP3    H160245   2.289   2.894  13.190 -0.2121  0.7642  0.4853
12918TIP3    H260246   2.163   2.916  13.270  0.2124 -1.0824  1.6999
12919TIP3   OH260247   0.636   4.136  16.953 -0.5423 -0.5372  0.5081
12919TIP3    H160248   0.727   4.108  16.943 -0.8813 -1.9673  1.2909
12919TIP3    H260249   0.610   4.167  16.866  1.0788  1.1059  0.5786
12920TIP3   OH260250   1.172   4.344   2.288 -0.2283 -0.1091  0.2933
12920TIP3    H160251   1.223   4.278   2.335 -0.6285  0.2948  1.3114
12920TIP3    H260252   1.081   4.329   2.317 -0.5141 -0.0174 -0.5467
12921TIP3   OH260253   5.717   6.091  17.280  0.1113  0.0037  0.2035
12921TIP3    H160254   5.798   6.107  17.233 -0.0233  1.7621  0.5389
12921TIP3    H260255   5.742   6.093  17.373 -0.3607  0.8855  0.3193
12922TIP3   OH260256   4.782   6.667  14.696  0.4113  0.0767 -0.1360
12922TIP3    H160257   4.706   6.621  14.731  1.4776 -0.1197  1.9892
12922TIP3    H260258   4.817   6.716  14.770  3.2099 -1.0020 -0.6619
12923TIP3   OH260259   1.340   5.184   2.890  0.1297  0.1374 -0.5404
12923TIP3    H160260   1.307   5.100   2.858 -0.9272  0.1363  0.5130
12923TIP3    H260261   1.372   5.229   2.812 -1.3846 -0.3250 -1.4420
12924TIP3   OH260262   6.020   1.649  12.490  0.1255 -0.4713  0.3711
12924TIP3    H160263   6.115   1.662  12.492  0.1950  0.1625 -3.9217
12924TIP3    H260264   5.984   1.737  12.494 -0.1184 -0.4052 -2.7088
12925TIP3   OH260265   1.945   4.582   4.490  0.0799  0.0263  0.3488
12925TIP3    H160266   2.039   4.566   4.500  0.5002  1.8672 -0.3581
12925TIP3    H260267   1.908   4.563   4.576  1.5743  2.2651  1.5499
12926TIP3   OH260268   3.829   3.343   4.129  0.3898 -0.4756  0.2582
12926TIP3    H160269   3.845   3.331   4.223  0.6938  0.3430  0.3237
12926TIP3    H260270   3.852   3.435   4.113  0.8299 -0.7467 -0.7159
12927TIP3   OH260271   4.062   4.650  15.530 -0.2086 -0.3612 -0.1167
12927TIP3    H160272   4.012   4.647  15.612  1.3448 -0.7558  0.8360
12927TIP3    H260273   4.151   4.627  15.555  0.6090  0.9522 -1.6820
12928TIP3   OH260274   2.920   3.635   3.991 -0.3508  0.1180  0.1550
12928TIP3    H160275   2.971   3.576   3.934 -0.5276 -0.0871  0.2075
12928TIP3    H260276   2.893   3.707   3.934  1.3322  1.0336  0.4961
12929TIP3   OH260277   2.379   5.925   4.051 -0.3462 -0.3398  0.1967
12929TIP3    H160278   2.396   5.983   4.125  1.5394 -0.3993 -0.1648
12929TIP3    H260279   2.291   5.947   4.023  0.6783  3.1100 -0.5535
12930TIP3   OH260280   1.350   4.584  16.282  0.0271  0.0353  0.2331
12930TIP3    H160281   1.432   4.549  16.245  0.2115  1.6060 -0.9179
12930TIP3    H260282   1.316   4.641  16.213 -2.4140 -1.1358  0.4427
12931TIP3   OH260283   5.461   3.624   3.955 -0.6425 -0.2498  0.2150
12931TIP3    H160284   5.407   3.557   3.996 -2.1942  0.2631 -0.9620
12931TIP3    H260285   5.432   3.706   3.993 -0.8552  0.0513 -0.5877
12932TIP3   OH260286   6.601   3.755  14.108  0.1939  0.8182  0.8551
12932TIP3    H160287   6.548   3.834  14.123  0.0867  0.6141  1.5668
12932TIP3    H260288   6.600   3.709  14.192 -0.5573 -0.4425  0.1691
12933TIP3   OH260289   4.927   1.067   5.439  0.1678 -0.1262  0.1007
12933TIP3    H160290   5.013   1.027   5.453 -0.2810 -0.9413  0.6212
12933TIP3    H260291   4.913   1.123   5.516 -0.1673 -0.7394  0.4952
12934TIP3   OH260292   1.672   2.351  12.428  0.6308  0.4287 -0.2134
12934TIP3    H160293   1.638   2.378  12.514  1.6126  1.3703 -0.1066
12934TIP3    H260294   1.649   2.423  12.370 -0.6569 -0.5259 -0.9098
12935TIP3   OH260295   5.179   6.320   0.432 -0.2716  0.0053 -0.1325
12935TIP3    H160296   5.151   6.395   0.379  1.5197 -0.9061 -2.4653
12935TIP3    H260297   5.260   6.290   0.390 -0.2275 -2.4016  1.5708
12936TIP3   OH260298   4.190   5.447  12.702  0.2107  0.5341  0.5777
12936TIP3    H160299   4.266   5.389  12.712 -0.8277 -1.3384 -1.7488
12936TIP3    H260300   4.122   5.405  12.756 -1.0581 -1.4686 -2.4624
12937TIP3   OH260301   3.023   0.863  14.049  0.1367 -0.3681  0.5003
12937TIP3    H160302   3.010   0.772  14.022 -0.1310 -0.3210  0.4726
12937TIP3    H260303   3.027   0.860  14.144 -0.6533 -0.3074  0.5371
12938TIP3   OH260304   6.742   3.783  14.487  0.9293 -0.2903  0.3360
12938TIP3    H160305   6.678   3.720  14.455  0.7401  0.3715 -0.6328
12938TIP3    H260306   6.813   3.779  14.423  1.5077 -0.4590  0.9810
12939TIP3   OH260307   1.773   4.912  11.710 -0.4592 -0.6345  0.0084
12939TIP3    H160308   1.856   4.880  11.747 -0.2410  0.9838  0.9330
12939TIP3    H260309   1.750   4.845  11.645  0.0820 -2.6063  1.7610
12940TIP3   OH260310   6.294   2.274   5.605 -0.2683 -0.0331 -0.0288
12940TIP3    H160311   6.384   2.250   5.629 -0.4229 -1.9793 -1.2939
12940TIP3    H260312   6.239   2.231   5.670 -0.2886  1.1532  0.7410
12941TIP3   OH260313   2.903   1.237   3.794 -0.2894  0.0080 -0.6692
12941TIP3    H160314   2.976   1.294   3.770 -0.5712  1.7250  2.4176
12941TIP3    H260315   2.930   1.197   3.877 -2.0945 -0.7704 -0.4353
12942TIP3   OH260316   2.389   5.495   3.647 -0.3577  0.0720  0.4108
12942TIP3    H160317   2.341   5.499   3.565 -1.5157 -0.7746  1.0325
12942TIP3    H260318   2.334   5.442   3.705  1.2720 -0.8498  1.1646
12943TIP3   OH260319   6.717   4.217  11.610 -0.6026  0.5428 -0.0046
12943TIP3    H160320   6.649   4.153  11.629  0.7361 -0.9995 -0.2535
12943TIP3    H260321   6.675   4.280  11.551 -2.0202  0.0540  0.4659
12944TIP3   OH260322   5.413   4.565   0.960 -0.2401  0.3978  0.3170
12944TIP3    H160323   5.443   4.650   0.927 -3.2436  1.5467  0.3151
12944TIP3    H260324   5.425   4.570   1.054 -2.0426  1.6001  0.5218
12945TIP3   OH260325   4.322   2.295  12.242  0.3969 -0.4735  0.2820
12945TIP3    H160326   4.273   2.370  12.275 -0.5429 -1.4019  1.0269
12945TIP3    H260327   4.367   2.328  12.164 -1.9252  0.2451 -0.8126
12946TIP3   OH260328   0.788   1.217   4.737  0.2212 -0.2133  0.0489
12946TIP3    H160329   0.728   1.190   4.667 -0.1387 -0.6295  0.5134
12946TIP3    H260330   0.861   1.154   4.731 -0.1367 -0.6749  0.4837
12947TIP3   OH260331   0.946   1.072  15.862 -0.0270  0.0791  0.4546
12947TIP3    H160332   0.960   1.000  15.801 -1.3980  0.1236  0.0755
12947TIP3    H260333   0.952   1.031  15.949 -0.1752 -0.3751  0.2504
12948TIP3   OH260334   1.953   2.735  12.331 -0.1400  0.3585 -0.3425
12948TIP3    H160335   2.038   2.779  12.332  0.1056 -0.1046 -0.7520
12948TIP3    H260336   1.905   2.775  12.258  0.4498 -0.7344 -1.3427
12949TIP3   OH260337   0.126   6.673   5.397 -0.5096  0.2709  0.2267
12949TIP3    H160338   0.216   6.646   5.383 -1.3119 -1.3575 -2.0281
12949TIP3    H260339   0.110   6.656   5.490  0.9836 -1.0340  0.2557
12950TIP3   OH260340   5.628   0.546  12.269  0.1650 -0.2450  0.3821
12950TIP3    H160341   5.649   0.498  12.189 -0.4223  0.8733 -0.4595
12950TIP3    H260342   5.656   0.636  12.251 -2.7624  0.6882  0.2818
12951TIP3   OH260343   1.951   5.821  16.232 -0.9403  0.2691  0.0690
12951TIP3    H160344   1.871   5.784  16.193 -0.9377  0.1671  0.1631
12951TIP3    H260345   1.929   5.913  16.245 -0.3396  0.6847 -1.7671
12952TIP3   OH260346   4.087   1.356  11.866 -0.5559 -0.4729 -0.7647
12952TIP3    H160347   4.067   1.349  11.960  0.2931 -2.1647 -0.7051
12952TIP3    H260348   4.017   1.412  11.831 -2.0392 -1.4914  0.5047
12953TIP3   OH260349   2.363   2.227   0.059 -0.2735  0.3157 -0.4532
12953TIP3    H160350   2.314   2.262  -0.015 -1.8618 -1.2481 -0.1859
12953TIP3    H260351   2.413   2.153   0.023 -1.2734 -0.6309  0.0682
12954TIP3   OH260352   4.158   5.515  15.612  0.0008  0.4885 -0.3482
12954TIP3    H160353   4.185   5.477  15.696  0.4825 -2.3544 -1.7271
12954TIP3    H260354   4.241   5.529  15.565 -0.4000 -0.1459 -1.2501
12955TIP3   OH260355   0.716   0.522   3.043 -0.4833 -0.0673 -0.2913
12955TIP3    H160356   0.722   0.605   3.090  0.2570  0.3489 -1.1196
12955TIP3    H260357   0.734   0.455   3.110  1.6966  0.5659 -0.2067
12956TIP3   OH260358   4.154   4.507   6.068 -0.9768 -0.1940  0.3182
12956TIP3    H160359   4.196   4.592   6.059  0.0116 -0.6883  0.2030
12956TIP3    H260360   4.143   4.496   6.163  1.6028 -1.2150  0.5487
12957TIP3   OH260361   6.068   4.998  12.302  0.2431  0.2583  0.4879
12957TIP3    H160362   6.146   4.994  12.358 -0.1051  0.2292  0.9760
12957TIP3    H260363   6.084   4.933  12.234  1.9358  2.2550 -1.0896
12958TIP3   OH260364   5.571   4.614  16.327 -0.7951 -0.0015 -0.4235
12958TIP3    H160365   5.606   4.693  16.286 -0.2479 -0.5373 -0.9769
12958TIP3    H260366   5.538   4.645  16.412  0.1688  0.6716 -0.2820
12959TIP3   OH260367   3.110   1.972  11.110 -0.1139  0.1916  0.2678
12959TIP3    H160368   3.130   2.052  11.061  1.0820  0.1334  0.6415
12959TIP3    H260369   3.121   1.997  11.202 -0.1093 -0.3011  0.4053
12960TIP3   OH260370   6.623   4.771   5.112  0.1289  0.1289  0.4377
12960TIP3    H160371   6.564   4.712   5.065 -0.5186  0.7374  0.4825
12960TIP3    H260372   6.707   4.762   5.066 -0.7879  1.5871 -1.6143
12961TIP3   OH260373   1.976   4.957  16.921 -0.4989  0.4880 -0.1650
12961TIP3    H160374   1.931   5.025  16.872  0.4680  0.7474 -0.7026
12961TIP3    H260375   2.066   4.988  16.929  0.1880 -1.1437 -1.2009
12962TIP3   OH260376   6.627   0.199   3.524  0.3833 -1.0433 -0.4507
12962TIP3    H160377   6.559   0.184   3.458  0.0343  1.8656 -0.8060
12962TIP3    H260378   6.581   0.241   3.597  1.8219  1.3245 -0.8520
12963TIP3   OH260379   3.360   4.224   0.078  0.1270 -0.4540  0.1604
12963TIP3    H160380   3.339   4.136   0.045 -1.0288 -0.4366  0.8278
12963TIP3    H260381   3.292   4.280   0.042 -0.4236 -0.2182  1.5356
12964TIP3   OH260382   3.002   0.352  12.036  0.3234  0.8181  0.1728
12964TIP3    H160383   2.949   0.325  12.111  3.5929  0.3060  2.3805
12964TIP3    H260384   3.072   0.286  12.031  0.8643  1.5295 -2.5787
12965TIP3   OH260385   2.052   6.356   0.723  0.5407  0.5079  0.2629
12965TIP3    H160386   1.978   6.299   0.699  1.7959 -1.3474  0.6789
12965TIP3    H260387   2.072   6.405   0.644 -0.0583 -0.2182 -0.3460
12966TIP3   OH260388   2.738   6.546   0.868 -0.3664 -0.1443 -0.6775
12966TIP3    H160389   2.764   6.560   0.777 -1.1433  0.6228 -0.7874
12966TIP3    H260390   2.804   6.486   0.902  0.3856  0.1784 -1.5245
12967TIP3   OH260391   1.959   3.225  11.669 -0.4992 -0.1247  0.3610
12967TIP3    H160392   2.024   3.221  11.739 -1.1323  0.2063  0.9865
12967TIP3    H260393   2.006   3.259  11.593  0.7471 -2.6449 -0.0391
12968TIP3   OH260394   6.626   6.046  15.169 -0.6323 -0.3090 -0.6284
12968TIP3    H160395   6.663   5.958  15.163 -1.4961 -0.5995 -2.2169
12968TIP3    H260396   6.532   6.032  15.177 -0.7150  0.4585 -0.2177
12969TIP3   OH260397   4.879   6.378  14.742  0.0615 -0.0017  0.2217
12969TIP3    H160398   4.872   6.401  14.835  1.6949 -1.8086  0.8190
12969TIP3    H260399   4.968   6.404  14.717  0.4790 -1.7937 -0.1780
12970TIP3   OH260400   2.869   6.057   0.440  0.1574 -0.3587  0.0648
12970TIP3    H160401   2.948   6.076   0.388  0.1337 -1.6435 -0.4557
12970TIP3    H260402   2.805   6.026   0.376  0.3291 -2.5568  0.9188
12971TIP3   OH260403   1.912   2.693   4.358 -0.0077 -0.6646  0.0510
12971TIP3    H160404   1.877   2.611   4.323 -0.1428 -1.0165  0.9928
12971TIP3    H260405   1.835   2.744   4.383  0.0998 -0.8988  0.9021
12972TIP3   OH260406   2.125   3.126   0.695  0.2287  0.0153  0.7810
12972TIP3    H160407   2.030   3.137   0.691  0.0504 -1.4769  0.6803
12972TIP3    H260408   2.160   3.195   0.639 -0.8287  0.1653  0.3059
12973TIP3   OH260409   0.842   2.948  11.763  0.5991  0.1638 -0.0499
12973TIP3    H160410   0.924   2.996  11.772 -0.1995  1.7133 -0.9294
12973TIP3    H260411   0.870   2.857  11.748  2.1084  0.2322  2.0352
12974TIP3   OH260412   1.989   5.672   0.149  0.0387 -0.1237 -1.1548
12974TIP3    H160413   2.002   5.625   0.231 -0.7399  0.9786 -0.3846
12974TIP3    H260414   2.024   5.613   0.082  1.4673 -0.6736  0.0402
12975TIP3   OH260415   1.325   3.536   5.332 -0.6031 -0.7301  0.2864
12975TIP3    H160416   1.241   3.575   5.311 -0.7231 -0.5942  1.0024
12975TIP3    H260417   1.364   3.514   5.247 -0.3239  1.3879 -0.1605
12976TIP3   OH260418   4.620   1.522  14.988 -0.1767 -0.4775 -0.4633
12976TIP3    H160419   4.564   1.526  15.065 -0.9938  0.2472 -1.0776
12976TIP3    H260420   4.663   1.607  14.984  3.0337 -1.9279  1.4845
12977TIP3   OH260421   6.568   2.242  14.997  0.0764 -0.2036 -0.4560
12977TIP3    H160422   6.497   2.307  15.003  0.4506  0.0624  1.4585
12977TIP3    H260423   6.646   2.289  15.026  0.7636 -0.9135 -1.1353
12978TIP3   OH260424   4.880   1.427  15.329  0.5169  0.2216  0.1213
12978TIP3    H160425   4.806   1.472  15.289  0.5997 -0.5478 -0.9162
12978TIP3    H260426   4.957   1.466  15.289  0.6732  0.7923  0.9590
12979TIP3   OH260427   5.076   0.422   0.248  0.5286 -0.4562 -0.1999
12979TIP3    H160428   5.041   0.453   0.164 -1.4357  1.0210  1.1097
12979TIP3    H260429   5.017   0.351   0.274 -0.0399  0.3784  0.8330
12980TIP3   OH260430   0.045   1.798   0.351 -0.2338 -0.8023 -0.7828
12980TIP3    H160431   0.043   1.809   0.256 -1.1707 -2.2084 -0.9283
12980TIP3    H260432  -0.032   1.846   0.382  0.2079 -0.1373 -0.7034
12981TIP3   OH260433   2.906   0.232  13.605 -0.0047 -0.0914 -0.7288
12981TIP3    H160434   2.832   0.254  13.548 -0.0613  0.7382 -0.3484
12981TIP3    H260435   2.979   0.219  13.545 -0.0878  0.6725 -1.0086
12982TIP3   OH260436   4.490   1.180  13.791 -0.9168  0.0954  0.1421
12982TIP3    H160437   4.489   1.125  13.713  0.8656 -0.0135  0.1696
12982TIP3    H260438   4.468   1.268  13.759  1.3057  0.3565 -0.7689
12983TIP3   OH260439   0.426   6.718  17.055  0.2694 -0.0604 -0.4178
12983TIP3    H160440   0.506   6.737  17.104  0.9412 -2.0103 -0.6985
12983TIP3    H260441   0.392   6.803  17.029  2.1823  0.7884 -0.1670
12984TIP3   OH260442   0.190   2.192   5.586 -0.3388  0.7385  0.1454
12984TIP3    H160443   0.158   2.115   5.539 -0.4826  0.1653  1.1692
12984TIP3    H260444   0.187   2.263   5.521  1.4721 -0.4773 -1.3160
12985TIP3   OH260445   0.361   4.930  10.576 -0.1165  0.0405  0.5064
12985TIP3    H160446   0.384   4.856  10.632  1.3963  0.8290  0.9579
12985TIP3    H260447   0.363   5.006  10.634 -0.0143  0.6691 -0.3053
12986TIP3   OH260448   4.202   1.487  16.563 -0.2499  0.0360  0.4135
12986TIP3    H160449   4.136   1.527  16.506  0.7525 -1.1765 -1.6951
12986TIP3    H260450   4.198   1.394  16.541  1.6019 -0.1606  0.8303
12987TIP3   OH260451   2.178   0.620  10.563 -0.4640  0.1586 -0.1948
12987TIP3    H160452   2.175   0.541  10.509  1.3021 -0.1708  0.1457
12987TIP3    H260453   2.110   0.606  10.629 -0.8270 -0.6320 -0.7201
12988TIP3   OH260454   5.526   5.243   1.432  0.4956  0.2199  0.8397
12988TIP3    H160455   5.457   5.239   1.365 -0.8079  0.0031  2.1749
12988TIP3    H260456   5.558   5.153   1.438  0.0239  0.0694  1.1124
12989TIP3   OH260457   6.415   5.262   4.818 -0.1642  0.1042  0.4873
12989TIP3    H160458   6.436   5.274   4.911 -2.9322 -1.0105  1.3164
12989TIP3    H260459   6.388   5.349   4.788  1.8278  0.7137  0.3986
12990TIP3   OH260460   3.424   5.978   4.299  0.3063 -0.3723  0.0886
12990TIP3    H160461   3.389   5.914   4.361 -0.9853 -1.9251 -2.1583
12990TIP3    H260462   3.358   6.048   4.297  1.4829  0.8403  2.1750
12991TIP3   OH260463   6.004   3.625  12.742  0.2791  0.0356 -0.8455
12991TIP3    H160464   5.969   3.702  12.698 -1.5692  0.3479  1.0852
12991TIP3    H260465   5.927   3.573  12.765  1.3893 -1.5895 -0.6674
12992TIP3   OH260466   5.768   3.339  12.048  0.5810 -0.3604  0.4042
12992TIP3    H160467   5.730   3.257  12.019  0.0469 -0.7623  2.1772
12992TIP3    H260468   5.732   3.405  11.988  0.9333 -1.3852 -0.9514
12993TIP3   OH260469   3.434   2.651  15.789  0.3648  0.2646 -0.6455
12993TIP3    H160470   3.509   2.668  15.847  0.4945  0.9519 -1.0187
12993TIP3    H260471   3.383   2.732  15.792 -0.8873 -0.5411  0.3732
12994TIP3   OH260472   1.266   0.846   2.572  0.3271 -0.2110  0.2844
12994TIP3    H160473   1.205   0.868   2.642  0.0738 -1.7701  0.5789
12994TIP3    H260474   1.248   0.754   2.553  0.0819  0.3019 -2.1367
12995TIP3   OH260475   4.688   3.224   6.260  0.0612 -0.1824 -0.2573
12995TIP3    H160476   4.593   3.233   6.271 -0.0430  1.1913 -2.1428
12995TIP3    H260477   4.725   3.288   6.320 -0.1748 -0.9906  0.7712
12996TIP3   OH260478   0.210   5.624   5.081 -0.4479  0.1316  0.1880
12996TIP3    H160479   0.288   5.578   5.051  1.3904  1.9578  2.0245
12996TIP3    H260480   0.216   5.711   5.042 -1.1774  0.5304  0.9388
12997TIP3   OH260481   3.561   1.571  13.910 -0.4042  0.3935 -0.4474
12997TIP3    H160482   3.486   1.626  13.886 -0.1492  0.3170 -1.4209
12997TIP3    H260483   3.534   1.483  13.885 -0.7143  0.1035  0.8873
12998TIP3   OH260484   5.472   2.215  14.765 -0.4441 -0.3906  0.2866
12998TIP3    H160485   5.440   2.280  14.703 -1.6978 -1.3725 -0.1127
12998TIP3    H260486   5.398   2.197  14.822 -0.7582 -2.9469 -0.8719
12999TIP3   OH260487   2.731   5.211   4.181 -0.0533 -0.3722 -0.3432
12999TIP3    H160488   2.716   5.218   4.275  0.4738  0.5377 -0.3189
12999TIP3    H260489   2.809   5.157   4.173 -0.2620 -0.6825 -0.2623
13000TIP3   OH260490   3.695   1.523  12.530 -0.1433  0.1680  0.2325
13000TIP3    H160491   3.683   1.572  12.449  0.9922  2.5318  1.4344
13000TIP3    H260492   3.618   1.546  12.583 -1.5030 -2.3093 -0.5715
13001TIP3   OH260493   5.844   6.411  11.416 -0.1638  0.0473 -0.4103
13001TIP3    H160494   5.922   6.454  11.381  1.1177 -0.9781  1.0815
13001TIP3    H260495   5.835   6.331  11.364  0.2666 -0.2392 -0.0462
13002TIP3   OH260496   1.732   6.305   6.428 -0.2023 -0.5267  0.4788
13002TIP3    H160497   1.654   6.250   6.439  0.0505 -1.1777 -0.9002
13002TIP3    H260498   1.697   6.393   6.416 -0.7891 -0.9139 -0.8608
13003TIP3   OH260499   4.880   1.218   2.937 -0.0864 -0.6072 -0.2390
13003TIP3    H160500   4.845   1.188   2.854 -0.1002 -0.1676 -0.3943
13003TIP3    H260501   4.805   1.254   2.984  0.0251 -0.3216 -0.2772
13004TIP3   OH260502   4.446   5.215  15.702  0.4660 -0.1692 -0.6578
13004TIP3    H160503   4.523   5.253  15.659 -0.5543  2.0162 -0.5901
13004TIP3    H260504   4.388   5.190  15.631  0.7641 -0.8276 -0.6740
13005TIP3   OH260505   6.090   2.467  15.089 -0.3937 -0.0031  0.9220
13005TIP3    H160506   6.140   2.538  15.130  0.3470 -0.1440  0.2715
13005TIP3    H260507   6.051   2.507  15.012  0.1066 -0.3196  0.4999
13006TIP3   OH260508   1.605   3.982  13.220 -0.6505  0.1986 -0.2713
13006TIP3    H160509   1.648   4.040  13.157 -0.7756 -0.9129 -1.4113
13006TIP3    H260510   1.641   3.895  13.200  0.3662  0.0267  2.1354
13007TIP3   OH260511   3.413   4.060  10.867 -0.6648 -0.3292 -0.7257
13007TIP3    H160512   3.329   4.033  10.903 -0.7266  0.4224 -0.2879
13007TIP3    H260513   3.425   4.149  10.899  1.5525 -1.3573  1.4270
13008TIP3   OH260514   3.185   0.712  15.151  0.2945 -0.0522 -0.2977
13008TIP3    H160515   3.235   0.694  15.230 -0.4562 -0.9484 -0.0065
13008TIP3    H260516   3.250   0.735  15.085  0.9384  0.5096  0.5347
13009TIP3   OH260517   5.160   0.558   0.487  0.3046  0.3584 -0.2106
13009TIP3    H160518   5.132   0.649   0.474 -1.7390  0.1539  2.3781
13009TIP3    H260519   5.112   0.509   0.420 -1.3169  0.7526  0.6332
13010TIP3   OH260520   6.484   6.611   6.146  0.0001  0.3333 -0.7832
13010TIP3    H160521   6.579   6.603   6.155 -0.1075 -1.0532 -0.7882
13010TIP3    H260522   6.459   6.675   6.212  0.8589  0.1989 -0.3185
13011TIP3   OH260523   1.650   0.663   4.206 -0.0788  0.3817 -0.7299
13011TIP3    H160524   1.660   0.568   4.204 -0.4138  0.3378 -0.3460
13011TIP3    H260525   1.589   0.683   4.136 -0.4202  0.2631 -0.4657
13012TIP3   OH260526   1.193   5.331   2.415  0.3620  0.4210 -0.2153
13012TIP3    H160527   1.278   5.374   2.425  1.3299 -1.1529 -1.4908
13012TIP3    H260528   1.214   5.241   2.391 -1.6758  0.0521 -0.7202
13013TIP3   OH260529   6.140   1.864   2.281  0.1647 -0.1344  0.5780
13013TIP3    H160530   6.065   1.873   2.339 -0.6058 -0.2748 -0.3835
13013TIP3    H260531   6.207   1.822   2.335  0.1608  1.5916  1.9465
13014TIP3   OH260532   5.019   6.811  17.273 -0.5279  0.0241  0.1021
13014TIP3    H160533   5.035   6.865  17.196  1.1566 -0.7485 -0.1118
13014TIP3    H260534   5.065   6.855  17.344  0.6122 -0.9445 -0.0129
13015TIP3   OH260535   4.525   2.526   4.532  0.3232  0.4940 -0.4145
13015TIP3    H160536   4.486   2.557   4.613  1.1613 -0.2833  0.2985
13015TIP3    H260537   4.604   2.579   4.521 -0.0825  0.9893 -1.0369
13016TIP3   OH260538   4.272   4.689   0.096  0.1433 -0.5114 -0.5125
13016TIP3    H160539   4.241   4.609   0.139 -1.3266 -0.5165 -1.5493
13016TIP3    H260540   4.303   4.660   0.010 -1.6567  0.1927 -1.4290
13017TIP3   OH260541   6.766   3.734   3.463  0.4098  0.0638 -0.2536
13017TIP3    H160542   6.782   3.699   3.375 -0.7524  1.8118 -1.1772
13017TIP3    H260543   6.689   3.686   3.494  0.9223 -0.6763 -0.0902
13018TIP3   OH260544   6.746   4.401  16.395 -0.2202  0.2986 -0.0833
13018TIP3    H160545   6.672   4.453  16.364 -0.9057 -0.8028 -0.3014
13018TIP3    H260546   6.761   4.432  16.484 -0.3670  1.1563 -0.3551
13019TIP3   OH260547   3.820   1.623  11.528 -0.4005 -0.5654 -0.2146
13019TIP3    H160548   3.873   1.703  11.539 -3.7119  1.7186 -0.2801
13019TIP3    H260549   3.807   1.617  11.433 -1.8737  0.0301 -0.0656
13020TIP3   OH260550   6.427   5.758   6.592 -0.6343  0.1215 -0.2132
13020TIP3    H160551   6.444   5.780   6.684  1.7961  1.0655 -0.8477
13020TIP3    H260552   6.432   5.662   6.590 -0.2187  0.1201  0.5636
13021TIP3   OH260553   2.806   5.758   4.152  0.2112 -0.1969 -0.0361
13021TIP3    H160554   2.885   5.809   4.168  0.9385 -0.4033 -2.7987
13021TIP3    H260555   2.835   5.681   4.104 -1.7860  0.2878 -2.1078
13022TIP3   OH260556   2.024   1.993  15.023 -0.1672  0.2694  0.0022
13022TIP3    H160557   1.946   1.989  14.968 -0.8001  0.9651  0.8293
13022TIP3    H260558   2.069   2.072  14.995  0.2047 -0.0878 -0.4181
13023TIP3   OH260559   3.566   5.294  10.667 -0.2522  0.0067 -0.0851
13023TIP3    H160560   3.534   5.215  10.624  0.3991 -0.3017 -0.0057
13023TIP3    H260561   3.655   5.307  10.631 -0.9272  1.5679 -1.2883
13024TIP3   OH260562   4.141   4.701  12.080  0.3934  0.7462  0.3553
13024TIP3    H160563   4.136   4.607  12.059  0.7035  0.1892  2.6267
13024TIP3    H260564   4.090   4.710  12.161 -2.3187  3.1267 -1.4902
13025TIP3   OH260565   4.229   4.388  16.624 -0.1277 -0.4930 -0.0999
13025TIP3    H160566   4.152   4.382  16.567  1.0650  0.1726 -1.8333
13025TIP3    H260567   4.231   4.479  16.653  1.0857  0.0072 -1.6666
13026TIP3   OH260568   5.109   5.336  16.079  0.6193  0.6415 -0.2008
13026TIP3    H160569   5.143   5.272  16.142 -1.6504  0.1072  0.5229
13026TIP3    H260570   5.138   5.420  16.114 -0.7040  0.3678  1.6646
13027TIP3   OH260571   2.842   0.254  14.740 -0.2387 -0.2568 -0.0865
13027TIP3    H160572   2.884   0.170  14.756  0.2333  0.2901  1.5647
13027TIP3    H260573   2.850   0.267  14.645  0.2635 -1.7528 -0.2595
13028TIP3   OH260574   2.050   3.472   4.090 -0.2012 -0.6735 -0.3700
13028TIP3    H160575   2.058   3.529   4.014  1.1271 -0.5191 -0.1188
13028TIP3    H260576   2.132   3.421   4.091  0.6817  0.7321  2.0941
13029TIP3   OH260577   6.598   3.941   0.238  0.3097 -0.1859 -0.5338
13029TIP3    H160578   6.553   3.904   0.313  0.1382 -1.3106 -1.1729
13029TIP3    H260579   6.528   3.961   0.176  0.3564  1.7018  0.0064
13030TIP3   OH260580   0.022   1.396  14.183 -0.0270 -0.1392 -0.2901
13030TIP3    H160581   0.026   1.376  14.090 -1.6469 -0.1024 -0.3843
13030TIP3    H260582  -0.066   1.370  14.209  0.2069  0.4226  1.0987
13031TIP3   OH260583   0.925   4.073   0.176 -0.5634 -0.4590 -0.0883
13031TIP3    H160584   0.871   4.043   0.250 -0.7039 -0.1635 -0.0711
13031TIP3    H260585   0.906   4.167   0.170 -0.1067 -0.3729 -0.1316
13032TIP3   OH260586   5.542   1.433   3.233  0.2472  0.2391  0.4948
13032TIP3    H160587   5.603   1.495   3.194 -0.8913  1.4479  0.6288
13032TIP3    H260588   5.540   1.359   3.172  0.0501  1.2131 -0.6878
13033TIP3   OH260589   1.640   2.926   0.130 -0.0498  0.0008 -0.7204
13033TIP3    H160590   1.721   2.905   0.084 -0.0073 -1.3802 -0.0311
13033TIP3    H260591   1.578   2.859   0.100 -0.6482  0.4380 -0.4671
13034TIP3   OH260592   5.741   6.546  11.620 -0.2050  0.0089  0.0665
13034TIP3    H160593   5.679   6.608  11.582 -1.3028 -1.8704 -1.2518
13034TIP3    H260594   5.765   6.489  11.548  0.9946 -0.9647  1.2111
13035TIP3   OH260595   3.353   3.832   3.575 -0.1126 -0.6574 -0.2503
13035TIP3    H160596   3.442   3.798   3.581 -0.1136 -0.4660  1.1254
13035TIP3    H260597   3.310   3.799   3.654 -0.3368  1.8568  0.7294
13036TIP3   OH260598   3.276   2.727  14.572  0.5105 -0.2833  0.1862
13036TIP3    H160599   3.195   2.682  14.547 -1.2066  4.2947 -3.3116
13036TIP3    H260600   3.250   2.786  14.642  0.8255  0.9386 -0.6978
13037TIP3   OH260601   4.479   3.470  16.336  0.0683 -0.1347  0.4870
13037TIP3    H160602   4.508   3.385  16.367  0.8251  0.4280  1.3255
13037TIP3    H260603   4.526   3.484  16.253 -0.0472 -0.5228  0.3575
13038TIP3   OH260604   5.503   1.405   5.501 -0.6293  0.0195  0.1835
13038TIP3    H160605   5.507   1.309   5.507 -0.8422 -0.0713 -0.8838
13038TIP3    H260606   5.435   1.431   5.563  0.6824 -0.3644  1.8077
13039TIP3   OH260607   3.375   0.521   2.287 -0.5593  0.3344 -0.1663
13039TIP3    H160608   3.293   0.522   2.238  0.3213 -2.1079 -1.7188
13039TIP3    H260609   3.412   0.435   2.272  1.2256  0.5872  2.3670
13040TIP3   OH260610   5.860   3.480   6.556  0.9386  0.0177  0.0975
13040TIP3    H160611   5.806   3.560   6.555  0.2792 -0.4327 -1.0795
13040TIP3    H260612   5.950   3.512   6.569  0.4370  0.7913  1.8051
13041TIP3   OH260613   2.569   0.272   3.880  0.5111  0.3004  0.0379
13041TIP3    H160614   2.630   0.203   3.905  0.6855 -0.3671 -2.1304
13041TIP3    H260615   2.483   0.236   3.900  0.3740 -2.0031 -4.2352
13042TIP3   OH260616   6.439   6.340  13.826 -0.2596  0.2093 -0.4021
13042TIP3    H160617   6.403   6.251  13.830  0.4934 -0.0780  0.0454
13042TIP3    H260618   6.505   6.342  13.895  1.1421  0.4849 -1.7166
13043TIP3   OH260619   5.602   5.881  17.164  0.0846 -0.4163 -0.3948
13043TIP3    H160620   5.645   5.819  17.223  0.5930 -0.3413 -0.6798
13043TIP3    H260621   5.632   5.967  17.193 -0.5313 -0.3112 -0.0696
13044TIP3   OH260622   4.437   1.698  11.263  0.6698 -0.0373  0.0546
13044TIP3    H160623   4.415   1.607  11.281 -2.4640  0.6469 -0.0299
13044TIP3    H260624   4.445   1.739  11.349  0.6759 -0.0607  0.0650
13045TIP3   OH260625   4.960   3.455   4.507 -0.1848 -0.0579  0.1542
13045TIP3    H160626   4.987   3.399   4.579  1.0908 -0.6697 -0.7797
13045TIP3    H260627   4.997   3.541   4.527 -0.9748  0.1188  0.8917
13046TIP3   OH260628   2.159   2.071  14.313 -0.3283  0.5139 -0.7452
13046TIP3    H160629   2.199   2.148  14.353 -1.0834  0.4790  0.0857
13046TIP3    H260630   2.186   1.998  14.370 -2.0276  0.5667  0.1525
13047TIP3   OH260631   3.681   0.401  14.751  0.0572  0.2748 -0.7588
13047TIP3    H160632   3.668   0.354  14.669  0.8081 -0.9761 -0.1738
13047TIP3    H260633   3.773   0.385  14.773  0.7518  3.2054 -1.2864
13048TIP3   OH260634   5.325   1.181  16.598  0.4317 -0.2867  0.8663
13048TIP3    H160635   5.314   1.237  16.675  0.9446  0.6980  0.2311
13048TIP3    H260636   5.275   1.225  16.529 -0.1950 -1.2736  0.6843
13049TIP3   OH260637   1.708   3.925   4.283 -0.4471  0.2084  0.0830
13049TIP3    H160638   1.706   3.946   4.190  0.2175  2.6020  0.5551
13049TIP3    H260639   1.720   3.830   4.287 -1.1565  0.0029 -2.2543
13050TIP3   OH260640   2.404   0.093  17.174 -0.0552 -0.2095 -0.2228
13050TIP3    H160641   2.344   0.073  17.103  0.3536  2.0835 -1.2551
13050TIP3    H260642   2.482   0.127  17.131  0.1009  1.4572  1.3164
13051TIP3   OH260643   0.055   5.158   0.005 -0.0741 -0.7158  0.0583
13051TIP3    H160644   0.079   5.065   0.007  1.7423 -0.2909 -1.0492
13051TIP3    H260645   0.135   5.204   0.030  0.2968  0.7154 -3.3915
13052TIP3   OH260646   2.517   1.283  16.268  0.1244 -0.0661 -0.2361
13052TIP3    H160647   2.524   1.227  16.345 -0.5580  0.7781  0.4629
13052TIP3    H260648   2.607   1.310  16.250  0.2974 -0.3003  0.2580
13053TIP3   OH260649   3.302   6.098   4.965 -0.0039  0.0733 -0.0225
13053TIP3    H160650   3.228   6.145   4.925 -0.0170 -0.8487 -1.1057
13053TIP3    H260651   3.262   6.026   5.013  0.0298  1.0502  1.4967
13054TIP3   OH260652   6.277   5.429   5.220  0.0874  0.0786  0.3092
13054TIP3    H160653   6.342   5.497   5.238  0.3256 -0.1288  0.2295
13054TIP3    H260654   6.193   5.476   5.218  0.2648  0.3877  0.1364
13055TIP3   OH260655   6.117   2.207  14.741 -0.6813  0.4631  0.1301
13055TIP3    H160656   6.158   2.157  14.671  1.5208  1.2684  0.8006
13055TIP3    H260657   6.154   2.295  14.732  0.1709  0.3999  2.6988
13056TIP3   OH260658   0.200   3.790  15.386 -0.0369 -0.4675 -0.1839
13056TIP3    H160659   0.275   3.848  15.372 -0.4526  0.3024  0.7397
13056TIP3    H260660   0.155   3.789  15.302  0.4643 -0.1469 -0.4620
13057TIP3   OH260661   4.757   4.452   0.235  0.2964 -0.2994  0.6797
13057TIP3    H160662   4.787   4.498   0.157  0.8955  1.4087  1.8999
13057TIP3    H260663   4.665   4.478   0.245 -0.9043 -3.3737 -1.4817
13058TIP3   OH260664   4.972   1.800   2.451 -0.0422 -0.4585 -0.5078
13058TIP3    H160665   4.941   1.775   2.364 -1.2449 -4.1937  0.9299
13058TIP3    H260666   5.035   1.732   2.474  1.5151  1.4187  0.8920
13059TIP3   OH260667   1.011   3.156   0.138 -0.0526 -0.6463  0.0674
13059TIP3    H160668   0.958   3.076   0.140  0.4535 -0.9487  2.2032
13059TIP3    H260669   0.951   3.225   0.168  0.1347 -0.6153  0.3736
13060TIP3   OH260670   5.907   0.184  13.114 -0.0621  0.0539 -0.3760
13060TIP3    H160671   5.909   0.090  13.132  0.9009  0.1616  0.0861
13060TIP3    H260672   5.829   0.196  13.060 -1.2707 -0.7201  1.1660
13061TIP3   OH260673   2.334   4.642   0.997 -0.1270 -0.4380  0.0568
13061TIP3    H160674   2.259   4.585   1.013  0.9496 -1.7340  0.6245
13061TIP3    H260675   2.401   4.611   1.058  1.5499 -0.6054 -1.8125
13062TIP3   OH260676   3.315   1.382  15.492  0.2926  0.4483  0.4759
13062TIP3    H160677   3.232   1.335  15.486  0.6356 -0.0216 -0.7523
13062TIP3    H260678   3.374   1.320  15.536  0.2717  0.3847  0.4148
13063TIP3   OH260679   0.768   0.931   2.870  0.0704 -0.0490  0.2431
13063TIP3    H160680   0.817   0.993   2.816 -1.2359  2.0704  1.4330
13063TIP3    H260681   0.832   0.896   2.932  0.6026  0.8640  0.2076
13064TIP3   OH260682   5.601   5.400   2.279 -0.5666 -0.2489 -0.2363
13064TIP3    H160683   5.676   5.404   2.220 -0.5318 -2.4035 -0.3952
13064TIP3    H260684   5.635   5.428   2.364 -0.0466  0.5697 -0.7055
13065TIP3   OH260685   4.272   2.851  12.894  0.1474  0.5141 -0.4512
13065TIP3    H160686   4.306   2.901  12.820  0.5619  1.3567  0.2979
13065TIP3    H260687   4.342   2.790  12.916 -0.6757 -0.9779 -1.8838
13066TIP3   OH260688   1.966   2.949   2.517 -0.1810 -0.3178  0.4345
13066TIP3    H160689   1.996   2.991   2.598 -0.3541 -1.4298  1.0853
13066TIP3    H260690   2.045   2.910   2.480 -0.1034  0.1847  0.0603
13067TIP3   OH260691   0.168   3.640  11.760 -0.4870 -0.6850 -0.1585
13067TIP3    H160692   0.143   3.729  11.733 -1.0966 -0.7081  0.2950
13067TIP3    H260693   0.087   3.603  11.796 -0.3733 -1.6373 -0.8854
13068TIP3   OH260694   5.611   1.382   0.120 -0.5841 -0.2767  0.4962
13068TIP3    H160695   5.561   1.375   0.039  1.3179  1.4326 -0.8701
13068TIP3    H260696   5.584   1.306   0.172 -3.4466 -0.2216 -0.8073
13069TIP3   OH260697   6.256   6.665   0.662 -0.6737  0.0550 -0.1105
13069TIP3    H160698   6.248   6.702   0.574 -0.3777  1.7995  0.5730
13069TIP3    H260699   6.294   6.579   0.648  0.8476  0.9356 -1.5738
13070TIP3   OH260700   3.086   2.937  14.034  0.6009  0.1149  0.0561
13070TIP3    H160701   3.022   2.870  14.011  0.5446 -0.0294  0.6260
13070TIP3    H260702   3.160   2.920  13.976 -0.5903  1.4233 -1.8936
13071TIP3   OH260703   2.421   4.400   4.751  0.2095 -0.3071  0.3735
13071TIP3    H160704   2.483   4.471   4.766  0.5922 -0.9596  1.9699
13071TIP3    H260705   2.458   4.325   4.798 -1.0191 -1.1055  0.0841
13072TIP3   OH260706   4.545   5.418   4.807  0.3299  0.0870 -0.1504
13072TIP3    H160707   4.536   5.463   4.891 -0.9950 -2.5499  1.1572
13072TIP3    H260708   4.499   5.475   4.745 -1.2024  0.6333  1.4406
13073TIP3   OH260709   0.361   1.467  14.200  0.0467  0.0421 -0.6532
13073TIP3    H160710   0.363   1.533  14.269  1.2796 -1.0026  0.3389
13073TIP3    H260711   0.450   1.464  14.166  0.2089 -1.6195 -0.1613
13074TIP3   OH260712   3.256   5.405  13.316 -0.5158  0.0841  0.5172
13074TIP3    H160713   3.180   5.405  13.257  1.2238  0.9300 -1.8371
13074TIP3    H260714   3.225   5.451  13.394 -2.4637  0.3528 -0.3672
13075TIP3   OH260715   3.076   0.269   6.309 -0.0933  0.7057  0.0403
13075TIP3    H160716   3.059   0.213   6.384  1.7521  0.5087  0.3365
13075TIP3    H260717   3.050   0.216   6.233  0.3064 -0.0148  0.4049
13076TIP3   OH260718   3.067   0.713  16.934 -0.1883 -0.5096 -0.1359
13076TIP3    H160719   3.083   0.792  16.883  0.5971 -0.8822 -0.4725
13076TIP3    H260720   2.994   0.736  16.991  0.7089  0.7932  0.5041
13077TIP3   OH260721   4.364   0.535   1.791  0.2405 -0.1252  0.0730
13077TIP3    H160722   4.355   0.579   1.875 -0.5589 -0.1438  0.0086
13077TIP3    H260723   4.434   0.582   1.746  1.1815 -0.6014  1.0516
13078TIP3   OH260724   5.547   4.820  12.479  0.2348 -0.3309  0.3850
13078TIP3    H160725   5.557   4.857  12.567  0.9341  0.2205  0.0801
13078TIP3    H260726   5.487   4.747  12.491  0.7674 -0.6153  1.4216
13079TIP3   OH260727   4.569   6.635  15.094 -0.0296  0.8795  0.2046
13079TIP3    H160728   4.558   6.578  15.018  2.1578 -1.4293  1.5694
13079TIP3    H260729   4.489   6.688  15.095 -1.8584 -1.7243 -1.4578
13080TIP3   OH260730   0.653   5.857   3.154 -0.0091 -0.1195 -0.5415
13080TIP3    H160731   0.606   5.911   3.217  1.8573 -0.0913  0.8584
13080TIP3    H260732   0.725   5.912   3.123 -1.6641  0.3655 -3.7694
13081TIP3   OH260733   3.210   1.733   4.003  0.8303  0.5396  0.7198
13081TIP3    H160734   3.250   1.698   4.082 -0.0503 -0.6780  0.6475
13081TIP3    H260735   3.135   1.676   3.987  0.5220  1.2712 -0.5360
13082TIP3   OH260736   5.456   4.112  16.900  0.7950 -0.1938  0.9083
13082TIP3    H160737   5.427   4.102  16.990  0.5459  0.6824  0.9361
13082TIP3    H260738   5.382   4.085  16.846 -0.0305  1.8065  0.9777
13083TIP3   OH260739   5.123   0.151  11.573  0.2743 -0.2550  0.7801
13083TIP3    H160740   5.092   0.062  11.555 -0.2435  0.2007 -0.6353
13083TIP3    H260741   5.046   0.206  11.561  0.7298  0.4494  1.0789
13084TIP3   OH260742   1.601   6.380  12.331  0.2547 -0.2361  0.1344
13084TIP3    H160743   1.669   6.403  12.395  1.8334 -1.5951 -1.0075
13084TIP3    H260744   1.542   6.322  12.378  1.8152 -1.8269  0.1909
13085TIP3   OH260745   1.573   2.637   4.287 -0.4990  0.1028  0.0018
13085TIP3    H160746   1.579   2.681   4.372 -0.4624 -0.3582  0.2365
13085TIP3    H260747   1.557   2.708   4.225  0.7214  0.5995  0.2346
13086TIP3   OH260748   3.441   0.746   3.302  0.2367  0.8091 -0.3396
13086TIP3    H160749   3.406   0.815   3.246 -0.1314  0.6215 -0.3424
13086TIP3    H260750   3.533   0.768   3.312 -0.3957  2.7253  1.7141
13087TIP3   OH260751   5.048   2.224   2.662 -0.4088 -0.1831 -1.0830
13087TIP3    H160752   5.070   2.275   2.740 -2.5485  1.1998 -1.3450
13087TIP3    H260753   5.072   2.280   2.588 -1.3311 -0.1844 -1.3900
13088TIP3   OH260754   5.496   1.103   2.467 -0.3848 -0.1174 -0.3082
13088TIP3    H160755   5.560   1.063   2.526  0.4622 -1.7622 -2.2764
13088TIP3    H260756   5.411   1.086   2.508  0.3296  1.1454  1.7789
13089TIP3   OH260757   2.131   5.427   0.279 -0.3473  0.4606  0.0285
13089TIP3    H160758   2.104   5.439   0.370 -2.4328  1.1428 -0.6585
13089TIP3    H260759   2.083   5.350   0.250  1.7063 -0.8726  0.0066
13090TIP3   OH260760   2.975   0.191  15.326 -0.2904  0.2332  0.2531
13090TIP3    H160761   3.034   0.255  15.367  0.8229 -0.9409  0.5298
13090TIP3    H260762   3.029   0.149  15.259 -1.0607 -0.3117 -0.0223
13091TIP3   OH260763   2.652   0.596  16.131 -0.5495  0.3783  0.1913
13091TIP3    H160764   2.614   0.509  16.119 -0.8238  0.6433 -0.9038
13091TIP3    H260765   2.649   0.636  16.044  0.5037  1.1054  0.4740
13092TIP3   OH260766   6.652   1.293   5.990  0.6876  0.1661 -0.0514
13092TIP3    H160767   6.687   1.246   5.914  1.4023 -0.6606  0.7655
13092TIP3    H260768   6.598   1.362   5.953  0.2749 -0.7952 -1.3068
13093TIP3   OH260769   0.649   2.341  16.039 -0.5859 -0.0041 -0.3310
13093TIP3    H160770   0.689   2.309  16.120  0.5236  0.7946 -0.5466
13093TIP3    H260771   0.628   2.261  15.989 -0.3031 -0.4714  0.2875
13094TIP3   OH260772   4.404   5.646   1.617 -0.3841 -0.1680 -0.1253
13094TIP3    H160773   4.411   5.579   1.685 -0.7897 -1.0462 -0.9368
13094TIP3    H260774   4.310   5.664   1.610 -0.3027  0.2709 -0.1227
13095TIP3   OH260775   5.817   0.589  15.703 -0.0421 -0.2603 -0.6441
13095TIP3    H160776   5.737   0.559  15.747 -1.2309  0.8211 -1.9933
13095TIP3    H260777   5.888   0.563  15.761 -1.4959  0.1194  1.3535
13096TIP3   OH260778   2.488   6.272  17.281 -0.2214 -0.3724  0.6953
13096TIP3    H160779   2.548   6.203  17.250  0.7129  0.4614  0.6267
13096TIP3    H260780   2.408   6.225  17.305  0.4883 -1.5143  0.8664
13097TIP3   OH260781   2.870   2.922  15.078 -0.6543 -0.2709  0.4998
13097TIP3    H160782   2.862   2.844  15.131 -1.7134 -3.1255 -3.5832
13097TIP3    H260783   2.945   2.905  15.021 -1.5486  1.1731 -1.1829
13098TIP3   OH260784   1.547   1.315   5.728  0.0025  0.4218 -0.6895
13098TIP3    H160785   1.629   1.363   5.735 -0.1347  0.9368 -2.2605
13098TIP3    H260786   1.571   1.234   5.683  0.4972 -1.7369  3.2384
13099TIP3   OH260787   4.146   6.672  16.046  0.2708 -0.0816  0.1993
13099TIP3    H160788   4.216   6.738  16.043  1.0547 -0.8620  0.8871
13099TIP3    H260789   4.071   6.714  16.004  0.1358  1.9903  2.4541
13100TIP3   OH260790   0.017   2.736  15.502  0.1549 -0.6134 -0.3513
13100TIP3    H160791   0.041   2.665  15.443  1.4594 -0.7890  0.3753
13100TIP3    H260792  -0.010   2.692  15.583 -0.1842 -0.3197 -0.3012
13101TIP3   OH260793   4.902   4.655  13.247 -0.3328  0.1229 -0.7728
13101TIP3    H160794   4.913   4.570  13.291 -2.7492 -0.3732 -1.0299
13101TIP3    H260795   4.808   4.660  13.228  0.1139  1.9077 -2.7199
13102TIP3   OH260796   4.379   6.367  12.049 -0.3092 -0.2637  0.5352
13102TIP3    H160797   4.420   6.330  11.972 -0.0105 -1.2823  1.1732
13102TIP3    H260798   4.294   6.398  12.019  0.4096  0.7138 -0.5140
13103TIP3   OH260799   5.171   0.753  16.428 -0.0669  0.3627  0.6360
13103TIP3    H160800   5.203   0.783  16.514  0.8273  0.2248  0.3564
13103TIP3    H260801   5.117   0.825  16.396  2.0532  1.6958 -0.0279
13104TIP3   OH260802   5.794   4.131  15.772 -0.4613  0.2768 -0.7439
13104TIP3    H160803   5.884   4.099  15.770 -0.0318  1.5006 -1.4146
13104TIP3    H260804   5.759   4.109  15.685 -1.6164 -2.4277  0.3640
13105TIP3   OH260805   1.696   0.914   0.237  0.5129 -0.0674  0.3865
13105TIP3    H160806   1.791   0.927   0.230  0.3494  0.8855 -0.1340
13105TIP3    H260807   1.663   0.935   0.150 -0.1892 -0.3562  0.5845
13106TIP3   OH260808   5.965   3.888   5.571 -0.6873  0.0406 -0.2549
13106TIP3    H160809   5.973   3.883   5.476 -4.1240 -1.0067 -0.5752
13106TIP3    H260810   6.021   3.817   5.603 -1.0597 -0.9210 -1.6430
13107TIP3   OH260811   3.795   0.486  17.041 -0.2941  0.9782 -0.4213
13107TIP3    H160812   3.816   0.517  17.129 -0.9069  3.0026 -0.9634
13107TIP3    H260813   3.876   0.497  16.991  0.5659 -1.8032  0.2942
13108TIP3   OH260814   6.616   0.909   5.061  0.3851  0.1147 -0.3545
13108TIP3    H160815   6.581   0.830   5.019  0.0260  0.0836  0.0008
13108TIP3    H260816   6.570   0.914   5.145 -1.1731  1.8530 -1.2667
13109TIP3   OH260817   4.376   1.847   6.099  0.6361  0.0147  0.1034
13109TIP3    H160818   4.300   1.889   6.139  0.7841  0.9781 -0.6233
13109TIP3    H260819   4.354   1.754   6.100  0.1025  0.1401  1.2846
13110TIP3   OH260820   3.743   0.342   0.912 -0.7114  0.0258  0.4148
13110TIP3    H160821   3.709   0.375   0.995  0.7227 -2.4138  2.0288
13110TIP3    H260822   3.838   0.335   0.926 -0.3214  0.5270 -1.7697
13111TIP3   OH260823   6.547   2.033  16.813  0.5695 -0.6987 -0.1408
13111TIP3    H160824   6.631   1.988  16.798  1.0197  0.1006 -0.0613
13111TIP3    H260825   6.555   2.070  16.901  0.3492 -0.1736 -0.3331
13112TIP3   OH260826   0.911   6.640  15.991  1.0151 -0.1272  0.4479
13112TIP3    H160827   0.979   6.706  16.007  2.4809 -1.3398 -0.5972
13112TIP3    H260828   0.959   6.557  15.984 -0.5444 -0.9792 -0.4985
13113TIP3   OH260829   6.735   5.348  16.523  0.2208  0.5495 -0.3664
13113TIP3    H160830   6.808   5.295  16.556  0.6378  0.5777 -1.2132
13113TIP3    H260831   6.659   5.290  16.527  0.4775  0.2108 -0.3514
13114TIP3   OH260832   0.591   1.861   6.187 -0.1536  0.2518 -0.1403
13114TIP3    H160833   0.616   1.904   6.105  0.2533  1.4057  0.5824
13114TIP3    H260834   0.639   1.778   6.186 -2.0770 -0.8888 -2.2231
13115TIP3   OH260835   4.486   5.538  16.036 -0.0382  0.2199  0.7487
13115TIP3    H160836   4.460   5.591  16.111 -0.4290  2.2291 -0.7780
13115TIP3    H260837   4.520   5.457  16.075  0.3149  1.4591  3.1001
13116TIP3   OH260838   5.154   0.267   1.768  0.1148  0.0549 -0.0704
13116TIP3    H160839   5.225   0.228   1.819 -1.0277 -1.6947  0.2172
13116TIP3    H260840   5.135   0.202   1.700  1.1324  2.0323 -2.3406
13117TIP3   OH260841   3.041   2.326   4.080 -0.5023 -0.1315 -0.5187
13117TIP3    H160842   3.005   2.395   4.025 -0.1529 -0.6256 -1.3690
13117TIP3    H260843   3.051   2.367   4.166  0.3290  1.0690 -1.1788
13118TIP3   OH260844   6.740   3.156  10.487  0.1980  0.1229  0.5493
13118TIP3    H160845   6.763   3.149  10.395  0.4369  0.0404  0.6141
13118TIP3    H260846   6.720   3.249  10.499  0.5789  0.2142  0.5056
13119TIP3   OH260847   1.604   2.423  11.610 -0.2354  0.2335 -0.3001
13119TIP3    H160848   1.617   2.417  11.704 -0.5772 -0.0363 -0.2683
13119TIP3    H260849   1.518   2.465  11.599 -1.4054 -2.1277 -0.4596
13120TIP3   OH260850   0.624   4.272   0.185 -0.5650 -0.3153  0.7908
13120TIP3    H160851   0.599   4.180   0.181 -1.4550 -0.1545  1.9776
13120TIP3    H260852   0.609   4.296   0.277  1.0064  0.6437  0.8120
13121TIP3   OH260853   2.427   4.117   6.032 -0.4786 -0.1684 -0.2211
13121TIP3    H160854   2.514   4.156   6.015 -0.3250  0.0454  1.0366
13121TIP3    H260855   2.446   4.038   6.081 -1.1095  1.0324  2.0191
13122TIP3   OH260856   0.404   3.733   3.633 -0.0266 -0.7247 -0.0022
13122TIP3    H160857   0.334   3.739   3.567  0.5035  3.2178 -0.3601
13122TIP3    H260858   0.358   3.713   3.715 -1.4252  0.2004 -0.5402
13123TIP3   OH260859   0.180   1.791  12.028  0.2284  0.1143 -0.2678
13123TIP3    H160860   0.271   1.762  12.036 -0.0307 -0.7767 -0.4671
13123TIP3    H260861   0.129   1.711  12.039 -0.5010  0.4869 -0.9505
13124TIP3   OH260862   0.913   3.014  16.135  0.1357 -0.5704 -0.0838
13124TIP3    H160863   0.981   2.996  16.199 -0.9307  0.0657  1.2678
13124TIP3    H260864   0.884   3.103  16.155 -0.8294 -0.6937 -0.8804
13125TIP3   OH260865   2.753   4.879   3.057  0.1069  0.1327 -0.0128
13125TIP3    H160866   2.743   4.948   2.991  0.6157  1.2270  1.0388
13125TIP3    H260867   2.846   4.857   3.053  0.0121 -0.2456 -0.1009
13126TIP3   OH260868   4.532   5.739  16.788 -0.4196 -0.1148 -0.0299
13126TIP3    H160869   4.529   5.801  16.861  0.5239 -0.1085  0.0069
13126TIP3    H260870   4.472   5.670  16.813  0.2526 -0.3428  0.9710
13127TIP3   OH260871   1.382   6.158   4.748 -0.8647  1.0466  0.1859
13127TIP3    H160872   1.468   6.148   4.708 -1.1213  1.2287 -0.4026
13127TIP3    H260873   1.389   6.238   4.801 -1.3651  2.3342 -1.6524
13128TIP3   OH260874   3.980   2.205   1.873 -0.2755  0.3318  0.4770
13128TIP3    H160875   3.939   2.157   1.801  1.6602  1.3377 -1.3463
13128TIP3    H260876   4.023   2.137   1.926 -0.5683 -0.2852 -0.0667
13129TIP3   OH260877   5.539   0.055   2.597  0.0188 -0.4630 -0.0532
13129TIP3    H160878   5.617   0.107   2.614 -0.8632  0.5161  1.1131
13129TIP3    H260879   5.572  -0.028   2.563  1.5210  0.2161 -0.2917
13130TIP3   OH260880   6.376   0.662  15.229  0.0601  0.2360  0.4598
13130TIP3    H160881   6.373   0.572  15.261  1.6548 -0.7134 -1.8944
13130TIP3    H260882   6.345   0.715  15.302  0.9930 -2.0414  2.5590
13131TIP3   OH260883   5.137   1.795  12.660  0.4257  0.7512 -0.3879
13131TIP3    H160884   5.135   1.781  12.565 -0.5665 -0.6650 -0.1650
13131TIP3    H260885   5.052   1.835  12.679 -1.3624 -3.2613  0.5273
13132TIP3   OH260886   5.985   0.781   3.663 -0.0890 -0.1817  0.2330
13132TIP3    H160887   5.981   0.825   3.578 -0.6619 -0.6356  0.0262
13132TIP3    H260888   5.916   0.715   3.659  1.1870 -1.5363  0.3123
13133TIP3   OH260889   0.618   0.967  17.144  0.1405  0.0545 -0.4322
13133TIP3    H160890   0.546   1.000  17.090  0.3739 -0.4948 -1.0918
13133TIP3    H260891   0.678   0.926  17.081 -0.0613 -1.4456  0.3425
13134TIP3   OH260892   1.231   1.659   2.297 -0.1399 -0.4711 -0.1376
13134TIP3    H160893   1.248   1.742   2.252  0.0003 -0.7757 -0.6589
13134TIP3    H260894   1.300   1.652   2.361  1.1835 -1.2559 -1.6177
13135TIP3   OH260895   5.483   3.444   2.367 -0.0295  0.0708  0.2912
13135TIP3    H160896   5.561   3.398   2.398 -0.5834 -1.0993 -0.0543
13135TIP3    H260897   5.442   3.384   2.305  0.2223  1.7583 -1.5849
13136TIP3   OH260898   0.858   1.003   4.141 -0.0218  0.4011  0.0230
13136TIP3    H160899   0.794   0.977   4.074 -0.3541  0.5227  0.2959
13136TIP3    H260900   0.845   1.097   4.152 -0.5730  0.2236  0.8997
13137TIP3   OH260901   2.080   2.573   6.040 -0.3547 -0.1609  0.0562
13137TIP3    H160902   2.092   2.631   5.965  1.0769 -0.7074 -0.1533
13137TIP3    H260903   2.137   2.609   6.108 -1.0717 -0.1055  0.6308
13138TIP3   OH260904   2.056   1.690   4.281 -0.3375 -0.2222 -0.6703
13138TIP3    H160905   2.023   1.734   4.360  0.5807  0.3617 -0.5916
13138TIP3    H260906   2.011   1.734   4.209 -0.9795 -0.5725 -0.4861
13139TIP3   OH260907   3.489   6.469   3.185  0.0082 -0.9057 -0.6088
13139TIP3    H160908   3.531   6.548   3.149 -0.8843 -0.4964 -0.7717
13139TIP3    H260909   3.422   6.503   3.244  0.0374 -1.5549 -0.2081
13140TIP3   OH260910   2.443   4.487   2.575  0.4764  0.1155 -0.8389
13140TIP3    H160911   2.528   4.514   2.608  0.6141  1.0661 -1.9496
13140TIP3    H260912   2.388   4.565   2.582 -0.3461 -0.5219 -0.0215
13141TIP3   OH260913   1.891   6.118   3.859  0.0902 -0.0670  0.7613
13141TIP3    H160914   1.810   6.105   3.810  0.3089 -0.6692  0.5626
13141TIP3    H260915   1.896   6.213   3.872  0.6755  0.2499 -1.4981
13142TIP3   OH260916   1.050   4.630   2.922  0.7768 -0.4519 -0.0110
13142TIP3    H160917   1.103   4.565   2.876  2.1106 -0.3871  1.3843
13142TIP3    H260918   1.079   4.625   3.013  0.8428  2.0110  0.1568
13143TIP3   OH260919   1.141   3.745  12.245  0.4106  0.9913 -0.3201
13143TIP3    H160920   1.048   3.747  12.220  0.3061 -1.0201 -0.2144
13143TIP3    H260921   1.142   3.776  12.336 -0.4145 -0.7880  0.3183
13144TIP3   OH260922   1.909   0.826   4.113 -0.6174 -0.2912  0.4919
13144TIP3    H160923   1.815   0.828   4.126 -0.5167  0.5794  1.0981
13144TIP3    H260924   1.921   0.778   4.030 -1.5653 -0.5996  0.5307
13145TIP3   OH260925   2.493   3.937  14.568 -0.8440  0.0471  0.0752
13145TIP3    H160926   2.484   3.914  14.476 -0.1195 -0.9155  0.2380
13145TIP3    H260927   2.456   3.863  14.615 -1.0342  0.4512  0.5612
13146TIP3   OH260928   4.372   1.183   2.741 -0.1340  0.0619  0.1905
13146TIP3    H160929   4.379   1.204   2.834 -2.9376  1.3597  0.1571
13146TIP3    H260930   4.328   1.259   2.702 -2.1706 -1.9451 -1.5643
13147TIP3   OH260931   6.302   4.030  12.559 -0.3563 -0.4739 -0.6808
13147TIP3    H160932   6.353   3.955  12.530  0.0230 -0.9918  1.2315
13147TIP3    H260933   6.211   4.002  12.550 -0.2252 -0.9547 -0.5513
13148TIP3   OH260934   4.731   4.453   0.919 -0.5131  0.3735 -0.2246
13148TIP3    H160935   4.811   4.494   0.953 -0.1170 -0.4580 -0.1186
13148TIP3    H260936   4.709   4.388   0.986 -0.5424 -0.2912 -0.8803
13149TIP3   OH260937   3.776   4.638  11.482 -0.5814 -0.2151  0.1846
13149TIP3    H160938   3.689   4.623  11.447 -0.8669  1.4135  0.1742
13149TIP3    H260939   3.816   4.700  11.422  0.5979 -0.9481  0.1925
13150TIP3   OH260940   2.030   5.813  14.609  0.2014 -0.2019 -0.7408
13150TIP3    H160941   2.104   5.830  14.668 -1.2593  0.3598  0.9732
13150TIP3    H260942   2.009   5.899  14.572  0.4168 -0.3601 -1.2267
13151TIP3   OH260943   3.911   1.018   4.324 -0.1220  0.1495 -0.1085
13151TIP3    H160944   3.876   0.966   4.396 -1.2911  1.3646  0.2256
13151TIP3    H260945   3.952   1.093   4.367  1.8374 -0.6276 -0.5678
13152TIP3   OH260946   1.212   1.959  15.021 -0.5337  0.0929  0.2606
13152TIP3    H160947   1.253   1.954  14.934  2.0000  0.6079  1.3883
13152TIP3    H260948   1.166   2.043  15.021 -0.9972 -0.1485 -0.7492
13153TIP3   OH260949   5.425   6.271  10.722 -0.1897  0.1522 -0.8459
13153TIP3    H160950   5.472   6.233  10.647 -0.0745 -1.5635  0.0901
13153TIP3    H260951   5.458   6.361  10.727  0.6027 -0.0486 -2.1985
13154TIP3   OH260952   3.788   4.568   0.161  0.0158 -0.5561  0.1012
13154TIP3    H160953   3.832   4.567   0.076  2.4665 -2.2502  1.3089
13154TIP3    H260954   3.733   4.489   0.161 -1.6876  0.6066 -0.7184
13155TIP3   OH260955   5.899   4.691   0.805  0.1668 -0.0822  0.3735
13155TIP3    H160956   5.839   4.617   0.817 -2.0545  1.5855 -0.2596
13155TIP3    H260957   5.965   4.658   0.743 -1.1096 -1.3447 -0.3403
13156TIP3   OH260958   5.349   1.269  12.923  0.3692 -0.7683 -0.4507
13156TIP3    H160959   5.265   1.303  12.954  0.3443 -0.1582 -1.1681
13156TIP3    H260960   5.413   1.334  12.952  0.4165 -0.5055 -1.1143
13157TIP3   OH260961   5.958   3.959   3.636 -0.1097  0.3975 -0.0661
13157TIP3    H160962   6.050   3.971   3.661  0.1100  0.1067 -0.7270
13157TIP3    H260963   5.923   4.048   3.631 -0.1781  0.4621  1.3493
13158TIP3   OH260964   4.145   2.010   1.300  0.1882  0.4127  0.1972
13158TIP3    H160965   4.229   2.008   1.345 -0.0052  1.5857  0.6389
13158TIP3    H260966   4.099   2.085   1.340  0.1439  1.6800 -2.1610
13159TIP3   OH260967   4.128   2.959   6.101 -0.1663  0.3159 -0.0048
13159TIP3    H160968   4.218   2.940   6.075  0.5213  0.9037  1.8557
13159TIP3    H260969   4.137   3.006   6.184 -2.1281  1.7036 -0.5447
13160TIP3   OH260970   5.138   6.056   0.233  0.1859  0.0749 -0.0973
13160TIP3    H160971   5.234   6.062   0.227  0.0219  2.3261 -0.6544
13160TIP3    H260972   5.109   6.040   0.144  0.0623 -1.2625  0.1681
13161TIP3   OH260973   3.790   4.465  15.017  0.1561 -0.5237  0.4825
13161TIP3    H160974   3.719   4.479  14.956  0.8104  0.2585 -0.1105
13161TIP3    H260975   3.867   4.453  14.962  0.5717 -0.8503  1.1255
13162TIP3   OH260976   3.755   4.473   4.765 -0.5345  0.5110  0.8929
13162TIP3    H160977   3.774   4.478   4.671  0.6155  1.2238  1.1428
13162TIP3    H260978   3.799   4.550   4.802  1.0556 -1.0313  2.3403
13163TIP3   OH260979   2.958   5.542  16.240 -0.6272 -0.6238 -0.8441
13163TIP3    H160980   3.034   5.504  16.283  0.3451  0.2363 -1.7725
13163TIP3    H260981   2.987   5.630  16.214 -1.6981 -0.5585 -1.8484
13164TIP3   OH260982   4.958   1.205  12.028  0.9010  0.0897 -0.2308
13164TIP3    H160983   4.947   1.277  11.966 -0.7182  0.9864  1.0530
13164TIP3    H260984   4.907   1.133  11.991 -0.1976  0.6772  0.1026
13165TIP3   OH260985   1.240   2.542   6.496 -0.2227  0.1178  0.2665
13165TIP3    H160986   1.333   2.519   6.496  0.0329  1.1511  0.5663
13165TIP3    H260987   1.197   2.465   6.459  0.6364 -0.8166  1.1795
13166TIP3   OH260988   1.413   5.192  12.524  0.3837  0.0068 -0.4669
13166TIP3    H160989   1.382   5.110  12.488 -0.0701 -1.2481  2.5853
13166TIP3    H260990   1.505   5.176  12.544  0.4820  0.4711 -0.5415
13167TIP3   OH260991   1.370   6.375  11.459  0.2531  0.0004 -0.9261
13167TIP3    H160992   1.406   6.297  11.416 -0.9211 -1.5559  0.8027
13167TIP3    H260993   1.365   6.351  11.552 -0.0423  2.1888 -0.3424
13168TIP3   OH260994   0.120   2.772  11.896  0.1605  0.3272  0.0347
13168TIP3    H160995   0.080   2.686  11.908  1.1261  0.0449  1.3546
13168TIP3    H260996   0.048   2.830  11.872 -0.9450 -0.2912  1.8163
13169TIP3   OH260997   4.255   6.339   2.017  0.3932 -0.2280 -0.3993
13169TIP3    H160998   4.173   6.294   2.000  1.5085 -2.2947 -0.4432
13169TIP3    H260999   4.254   6.415   1.959 -1.1721 -0.5921 -0.8599
13170TIP3   OH261000   1.389   3.896  15.282  0.3389  0.5208  0.0570
13170TIP3    H161001   1.466   3.909  15.227  1.3963 -3.8303  0.3638
13170TIP3    H261002   1.330   3.843  15.229  0.2125 -1.4202  2.0508
13171TIP3   OH261003   0.021   4.856  12.897 -0.0646  0.0588 -0.0753
13171TIP3    H161004   0.013   4.818  12.984  3.2313  0.1748  0.3415
13171TIP3    H261005   0.096   4.811  12.858 -1.3063  0.2318 -2.7510
13172TIP3   OH261006   3.910   4.965   1.161 -0.1063  0.0946  0.3098
13172TIP3    H161007   3.945   4.943   1.074  0.5575 -1.3158  0.9107
13172TIP3    H261008   3.856   5.042   1.146  0.9778  0.6002 -1.1544
13173TIP3   OH261009   1.034   4.428  12.070  0.0976  0.3045 -0.0088
13173TIP3    H161010   1.016   4.518  12.095 -1.0372  0.5289 -1.5809
13173TIP3    H261011   1.096   4.435  11.997 -0.3782 -0.1480 -0.4639
13174TIP3   OH261012   2.673   4.292  15.205 -0.3119 -0.1589 -0.2778
13174TIP3    H161013   2.709   4.238  15.134 -3.3720 -0.3190 -1.8013
13174TIP3    H261014   2.678   4.381  15.171 -0.9803 -0.1381 -0.3102
13175TIP3   OH261015   6.179   2.077  13.025 -0.0998  0.0132 -0.1123
13175TIP3    H161016   6.113   2.146  13.018 -0.9771 -0.6331  1.6196
13175TIP3    H261017   6.232   2.103  13.101 -1.0020 -1.6929  1.1239
13176TIP3   OH261018   2.006   0.462   3.752 -0.3364  0.3516 -0.1751
13176TIP3    H161019   1.935   0.464   3.816  0.7503  1.9490  1.0135
13176TIP3    H261020   2.084   0.439   3.803  0.3047  0.1936 -1.1934
13177TIP3   OH261021   2.087   4.328   2.505 -0.0433 -0.0795  0.3079
13177TIP3    H161022   2.045   4.412   2.487 -0.0702 -0.5397 -2.0066
13177TIP3    H261023   2.018   4.275   2.544 -1.3356 -0.4249 -2.3249
13178TIP3   OH261024   1.320   6.751   2.602 -0.4586  0.4549  0.3049
13178TIP3    H161025   1.366   6.742   2.518 -0.9430  1.1468 -0.0357
13178TIP3    H261026   1.262   6.826   2.590  0.2160  1.1921  1.6074
13179TIP3   OH261027   3.893   1.623  12.171 -0.7028 -0.6152 -0.6179
13179TIP3    H161028   3.893   1.649  12.079 -0.0108  0.1951 -0.3982
13179TIP3    H261029   3.881   1.704  12.219 -1.0235 -1.0328  0.0091
13180TIP3   OH261030   1.191   6.410  15.631 -0.3923  0.0633  0.5151
13180TIP3    H161031   1.276   6.398  15.590 -0.5659 -3.1503  0.9539
13180TIP3    H261032   1.132   6.431  15.559  0.4606  0.7058 -0.0032
13181TIP3   OH261033   1.665   3.281  16.710 -0.9463 -0.0207 -0.1892
13181TIP3    H161034   1.725   3.208  16.696 -2.0255 -0.8203 -0.6972
13181TIP3    H261035   1.663   3.293  16.805  1.0383  0.8990 -0.2294
13182TIP3   OH261036   3.207   6.216   1.592  0.5784 -0.4623  0.2050
13182TIP3    H161037   3.264   6.226   1.516  1.4650 -0.1245  0.9092
13182TIP3    H261038   3.119   6.221   1.556  0.9851 -1.2794 -0.9350
13183TIP3   OH261039   0.366   2.130  12.350  0.6661 -0.1283 -0.1307
13183TIP3    H161040   0.298   2.090  12.405  0.7034  0.7689  0.5750
13183TIP3    H261041   0.383   2.215  12.391 -0.1123  1.0427 -2.1660
13184TIP3   OH261042   3.861   3.009   2.675 -0.0314  0.2232 -0.4471
13184TIP3    H161043   3.807   2.975   2.746  0.8872  1.3323  0.8087
13184TIP3    H261044   3.909   2.933   2.643  0.6957 -0.0170  1.1635
13185TIP3   OH261045   5.492   5.278  11.828 -0.6905  0.2708 -0.2167
13185TIP3    H161046   5.498   5.187  11.857 -3.3961  0.0903 -0.1057
13185TIP3    H261047   5.494   5.329  11.909  0.0695  0.2772 -0.2345
13186TIP3   OH261048   5.990   0.442   1.865 -0.4584  0.1921 -0.3492
13186TIP3    H161049   5.978   0.494   1.786 -1.0790  0.0080 -0.3760
13186TIP3    H261050   5.905   0.441   1.907 -0.2135  0.0004  0.1465
13187TIP3   OH261051   6.594   2.847   0.394  0.4373  0.2298  0.1634
13187TIP3    H161052   6.580   2.849   0.300 -1.1209 -0.9359  0.3686
13187TIP3    H261053   6.552   2.767   0.424 -0.4815  1.3699  2.0687
13188TIP3   OH261054   3.005   1.300   1.614  0.2719 -0.3014 -0.4329
13188TIP3    H161055   3.058   1.380   1.621  0.3321 -0.0082 -3.3780
13188TIP3    H261056   2.935   1.324   1.554 -0.5192 -2.0673 -0.2310
13189TIP3   OH261057   5.811   5.123  15.804 -0.1441  0.2995 -0.3860
13189TIP3    H161058   5.872   5.056  15.773 -1.6030 -0.9086 -0.7081
13189TIP3    H261059   5.857   5.166  15.875  1.0846 -0.5969 -0.6162
13190TIP3   OH261060   4.150   6.729  14.698 -0.0125 -0.1126  0.1156
13190TIP3    H161061   4.151   6.771  14.612  0.1548 -0.5436 -0.0945
13190TIP3    H261062   4.126   6.800  14.758 -2.2979 -0.2782 -0.5380
13191TIP3   OH261063   2.836   1.753   0.814 -0.3779  0.2086  0.5149
13191TIP3    H161064   2.847   1.837   0.768  1.2010  0.7248  1.7925
13191TIP3    H261065   2.768   1.771   0.879 -1.4285 -0.0594 -0.4941
13192TIP3   OH261066   1.383   6.650  16.605  0.3151  0.7879  0.0951
13192TIP3    H161067   1.415   6.732  16.644  0.5373  0.8132 -0.1400
13192TIP3    H261068   1.350   6.600  16.680  0.2182  1.0740  0.2449
13193TIP3   OH261069   2.252   4.903   4.985 -0.5178 -0.4138  0.1486
13193TIP3    H161070   2.299   4.833   5.029 -1.3857 -0.7139  0.6119
13193TIP3    H261071   2.287   4.904   4.896  1.1686  0.1239  0.7945
13194TIP3   OH261072   6.149   0.829   6.193 -0.1111 -0.4619  0.1781
13194TIP3    H161073   6.105   0.849   6.276  1.2179 -1.6368  1.1985
13194TIP3    H261074   6.133   0.735   6.180 -1.1827 -0.0647 -1.4365
13195TIP3   OH261075   2.050   6.028   1.522 -0.0173  0.0209 -0.3693
13195TIP3    H161076   2.039   6.116   1.557 -2.9397  0.8058 -3.0059
13195TIP3    H261077   1.983   5.976   1.567 -0.2174 -0.1884 -0.9074
13196TIP3   OH261078   2.435   5.055   2.140  0.5751  0.0294  0.2373
13196TIP3    H161079   2.377   5.020   2.073  0.0063  1.3558  0.0114
13196TIP3    H261080   2.377   5.102   2.200  1.2255 -0.0494  0.9306
13197TIP3   OH261081   2.733   2.399   2.609 -0.0727  0.7080  0.0899
13197TIP3    H161082   2.827   2.383   2.599 -0.4312 -2.0490  0.7205
13197TIP3    H261083   2.726   2.459   2.683  1.0205 -2.8055  3.2159
13198TIP3   OH261084   3.537   3.581   2.770  0.5300  0.3334  0.7114
13198TIP3    H161085   3.630   3.599   2.776  0.4997  2.1463 -2.8364
13198TIP3    H261086   3.532   3.489   2.742  1.1594 -0.2255  2.3759
13199TIP3   OH261087   4.404   4.227   3.111 -0.1316  0.0919  0.0617
13199TIP3    H161088   4.484   4.272   3.085  0.1461 -0.0435  0.6858
13199TIP3    H261089   4.412   4.216   3.206 -1.2648  0.8395  0.2591
13200TIP3   OH261090   2.103   6.250   4.477  0.1155  0.7340 -0.0734
13200TIP3    H161091   2.148   6.309   4.538 -1.6873 -0.3262  2.3735
13200TIP3    H261092   2.152   6.168   4.484 -0.5764  0.3705  0.5873
13201TIP3   OH261093   5.863   3.773  16.038  0.0089 -0.3225  0.9320
13201TIP3    H161094   5.911   3.856  16.034 -1.8711  0.8441  1.7019
13201TIP3    H261095   5.902   3.719  15.969 -0.0382  1.9422 -0.9383
13202TIP3   OH261096   1.117   0.396   3.264  0.4194  0.1782 -0.5357
13202TIP3    H161097   1.200   0.357   3.295  0.3398  0.9936  0.7441
13202TIP3    H261098   1.053   0.369   3.330  0.0292  1.0448 -0.5634
13203TIP3   OH261099   0.641   2.094  15.898 -0.2731 -0.5346 -0.5802
13203TIP3    H161100   0.723   2.060  15.864 -0.0619  0.7238 -1.3383
13203TIP3    H261101   0.574   2.056  15.841 -0.1409 -0.7029 -0.6244
13204TIP3   OH261102   3.348   5.702  11.230 -0.4016  0.1027  0.2162
13204TIP3    H161103   3.383   5.620  11.194  1.8960  0.0129  2.5408
13204TIP3    H261104   3.315   5.679  11.316 -1.7111  1.2164  0.0341
13205TIP3   OH261105   4.761   5.336  14.930  0.1929 -0.9583 -0.1521
13205TIP3    H161106   4.688   5.386  14.965  0.9853  1.5951 -2.0320
13205TIP3    H261107   4.754   5.250  14.972 -1.0543  0.7772  3.3506
13206TIP3   OH261108   1.216   6.107  16.004 -0.4720 -0.4096  0.3977
13206TIP3    H161109   1.143   6.069  16.052 -1.1279  0.1284 -0.1580
13206TIP3    H261110   1.231   6.047  15.931  1.5391 -2.0542  2.1081
13207TIP3   OH261111   5.870   5.588   2.687 -0.2239 -0.1629  0.3570
13207TIP3    H161112   5.858   5.678   2.717  0.6089 -0.1221  0.5735
13207TIP3    H261113   5.955   5.589   2.642  0.2076 -1.0353  1.1430
13208TIP3   OH261114   3.740   2.217  10.957 -0.1189  0.7592 -0.5695
13208TIP3    H161115   3.807   2.152  10.980 -0.5343  0.3572 -0.4811
13208TIP3    H261116   3.658   2.169  10.963 -0.5633  1.6558  0.9458
13209TIP3   OH261117   1.331   6.315   1.004  0.1402 -0.2602 -0.3071
13209TIP3    H161118   1.352   6.232   1.047  0.2251  0.2265  0.6176
13209TIP3    H261119   1.258   6.350   1.056 -0.5751 -0.2444 -1.3147
13210TIP3   OH261120   6.565   6.655  11.818 -0.0147 -0.2981  0.5325
13210TIP3    H161121   6.660   6.644  11.817 -0.2022 -1.8315 -0.4431
13210TIP3    H261122   6.546   6.689  11.905  1.2740 -1.4211  1.2657
13211TIP3   OH261123   6.351   4.198  12.840 -0.3455 -0.0132 -0.0125
13211TIP3    H161124   6.360   4.278  12.787 -1.1596  1.5503  2.1185
13211TIP3    H261125   6.265   4.207  12.882  0.6519 -0.7208  2.2709
13212TIP3   OH261126   3.565   1.564  14.978 -0.4004  0.0171 -0.4816
13212TIP3    H161127   3.657   1.591  14.981 -0.5823  0.8335 -1.7662
13212TIP3    H261128   3.518   1.631  15.027 -0.0158 -1.8714  2.5946
13213TIP3   OH261129   5.939   6.403   5.895 -0.3764  0.1759  0.0261
13213TIP3    H161130   5.946   6.318   5.940  2.4421  0.5024  0.3017
13213TIP3    H261131   5.912   6.464   5.964  3.3686  0.5624  1.2880
13214TIP3   OH261132   4.463   0.953   6.289  0.0919  0.6083 -0.3216
13214TIP3    H161133   4.458   0.875   6.234 -0.0745  1.7539 -1.9668
13214TIP3    H261134   4.408   1.017   6.245  1.1963  2.0549  0.3533
13215TIP3   OH261135   1.115   0.759  13.827 -0.0893  0.2647 -0.9404
13215TIP3    H161136   1.086   0.684  13.879 -0.6208  0.1519 -1.3987
13215TIP3    H261137   1.170   0.810  13.887  0.9974 -0.9412 -0.9020
13216TIP3   OH261138   0.025   6.110   6.177  0.1665 -0.3371  0.7027
13216TIP3    H161139   0.107   6.094   6.130 -1.1015 -0.5795 -1.5360
13216TIP3    H261140   0.022   6.205   6.188  0.0906 -0.1788 -0.5294
13217TIP3   OH261141   1.215   4.751  14.550  0.9284  0.3897 -0.1845
13217TIP3    H161142   1.215   4.809  14.626  0.8699 -1.2964  1.1210
13217TIP3    H261143   1.134   4.701  14.557  0.1132  1.3396 -2.2730
13218TIP3   OH261144   0.216   1.784  11.738 -0.1366  0.6542 -0.5076
13218TIP3    H161145   0.171   1.720  11.683  1.0430  0.0463 -0.7863
13218TIP3    H261146   0.160   1.794  11.815 -0.0727 -1.1262 -0.2030
13219TIP3   OH261147   4.857   3.935  15.208 -0.0857  0.1564  0.4550
13219TIP3    H161148   4.821   3.925  15.296  1.1670  1.1633  1.1065
13219TIP3    H261149   4.788   3.979  15.158 -1.1649 -1.2694  0.6597
13220TIP3   OH261150   0.537   5.057  14.621 -0.7368 -0.0421 -0.0631
13220TIP3    H161151   0.498   4.997  14.558  0.2220  1.0235 -1.7274
13220TIP3    H261152   0.473   5.063  14.691 -1.4707 -1.8907 -0.5448
13221TIP3   OH261153   6.773   2.561  11.926  0.1183  0.3414 -0.2773
13221TIP3    H161154   6.799   2.480  11.883  0.1271  0.2087 -0.0266
13221TIP3    H261155   6.677   2.564  11.916  0.1407  0.3978 -0.4583
13222TIP3   OH261156   5.366   3.057   5.909 -0.7944 -0.6144 -0.0975
13222TIP3    H161157   5.305   3.122   5.945 -1.5160 -2.2077  1.6580
13222TIP3    H261158   5.429   3.042   5.980 -0.6455 -1.8259 -0.4796
13223TIP3   OH261159   4.410   1.213   2.996 -0.0912 -0.0732 -0.6588
13223TIP3    H161160   4.463   1.150   3.046 -2.1792 -2.0073 -0.8208
13223TIP3    H261161   4.403   1.289   3.053 -0.8909 -1.5480  1.2621
13224TIP3   OH261162   2.821   6.392   2.683 -0.0122  0.3188  0.4998
13224TIP3    H161163   2.890   6.446   2.722  0.8303 -0.1744 -0.2871
13224TIP3    H261164   2.818   6.314   2.739  0.0946  0.3204  0.5089
13225TIP3   OH261165   2.108   1.649  12.429  0.1953 -0.2392  0.3561
13225TIP3    H161166   2.065   1.713  12.487  1.4798  1.1688 -0.2125
13225TIP3    H261167   2.101   1.688  12.342  0.7921 -1.0073 -0.0367
13226TIP3   OH261168   1.079   4.800  12.237  0.6498 -0.2034  0.3353
13226TIP3    H161169   1.026   4.873  12.268 -1.9607 -1.0847 -1.8042
13226TIP3    H261170   1.063   4.730  12.300  0.1767 -0.0808  0.3536
13227TIP3   OH261171   2.326   3.294   3.350  0.0091 -0.1581  0.3182
13227TIP3    H161172   2.317   3.200   3.366 -0.9029 -0.3513 -1.2325
13227TIP3    H261173   2.417   3.313   3.374  0.5457 -1.6610 -0.4136
13228TIP3   OH261174   5.646   1.860   3.625 -0.1491 -0.3120 -0.1070
13228TIP3    H161175   5.708   1.787   3.634  1.6746  1.3066  0.9551
13228TIP3    H261176   5.668   1.899   3.540 -0.8944 -0.7906 -0.5211
13229TIP3   OH261177   0.522   5.221  14.316 -0.1644  0.0173  0.5487
13229TIP3    H161178   0.446   5.272  14.343 -0.4990 -0.1441 -0.0723
13229TIP3    H261179   0.556   5.266  14.238 -1.2152 -1.3967 -0.7636
13230TIP3   OH261180   0.010   4.067   2.475  0.0945 -0.5271 -0.7469
13230TIP3    H161181  -0.066   4.111   2.512  0.7354 -0.4594  0.5370
13230TIP3    H261182   0.031   4.116   2.396 -0.4855  0.1776 -0.4647
13231TIP3   OH261183   3.803   5.659  12.550 -0.4405 -0.4714 -0.0574
13231TIP3    H161184   3.748   5.737  12.564 -0.5074 -0.6783  0.8705
13231TIP3    H261185   3.890   5.685  12.581 -0.7821 -1.2065  1.5889
13232TIP3   OH261186   0.468   4.628  12.679 -0.6718 -0.1681  0.3689
13232TIP3    H161187   0.495   4.626  12.588 -2.3469 -0.7484 -0.1416
13232TIP3    H261188   0.531   4.572  12.725 -1.1190 -1.6865 -0.8205
13233TIP3   OH261189   0.500   3.362  16.279  0.0229  0.2845 -0.0527
13233TIP3    H161190   0.423   3.351  16.224 -1.0506  0.9319  1.2936
13233TIP3    H261191   0.548   3.279  16.270 -1.0531 -0.2895 -0.5518
13234TIP3   OH261192   4.244   2.058   5.697  0.0620 -0.0212  0.4462
13234TIP3    H161193   4.259   2.150   5.720  3.0043 -0.5888  0.9751
13234TIP3    H261194   4.307   2.040   5.627 -0.5532 -1.6247  0.2831
13235TIP3   OH261195   5.874   1.843   3.331 -0.6579 -0.0425 -0.3277
13235TIP3    H161196   5.938   1.896   3.285 -1.1633 -1.3789 -2.6355
13235TIP3    H261197   5.803   1.904   3.351 -0.4991  0.5351 -1.4742
13236TIP3   OH261198   5.731   6.624  10.667 -0.5437 -0.1437  0.0924
13236TIP3    H161199   5.753   6.669  10.586  1.2445 -0.4761  0.3796
13236TIP3    H261200   5.769   6.679  10.736 -2.9387  0.6923  0.7937
13237TIP3   OH261201   0.027   4.463  13.121 -0.3918 -0.6651  0.4146
13237TIP3    H161202   0.121   4.452  13.111 -0.5966  0.1454 -3.0735
13237TIP3    H261203   0.006   4.420  13.204  2.9027 -1.6239  0.7945
13238TIP3   OH261204   1.866   2.970  11.621 -0.0811  0.0806  0.6044
13238TIP3    H161205   1.885   2.966  11.527  2.0493 -0.7475  1.0252
13238TIP3    H261206   1.894   3.058  11.647  0.1834 -0.0058  0.6172
13239TIP3   OH261207   5.926   5.550   1.324 -0.0607 -0.7040 -0.4932
13239TIP3    H161208   5.970   5.631   1.349  0.8819 -1.4053  0.1754
13239TIP3    H261209   5.934   5.493   1.401 -0.9461 -1.3264 -0.8561
13240TIP3   OH261210   4.280   3.780   1.102 -0.6152  0.2581 -1.0052
13240TIP3    H161211   4.251   3.849   1.162 -0.4471  0.0760 -0.7140
13240TIP3    H261212   4.229   3.703   1.128 -1.0298  0.3538 -1.5327
13241TIP3   OH261213   5.795   5.599  14.318 -0.5073  0.5063  0.2232
13241TIP3    H161214   5.707   5.572  14.293 -0.5209  0.5390  0.2383
13241TIP3    H261215   5.852   5.538  14.271 -0.5449  0.2860  0.4654
13242TIP3   OH261216   4.414   1.697  13.974 -0.2808 -0.4358  0.4656
13242TIP3    H161217   4.439   1.685  13.883  1.1716 -1.2878  0.9589
13242TIP3    H261218   4.438   1.788  13.994 -1.4822  0.0533 -0.2486
13243TIP3   OH261219   6.164   6.711   1.396  0.4569  0.0694  0.2189
13243TIP3    H161220   6.234   6.766   1.431  1.3038 -0.9262  0.1181
13243TIP3    H261221   6.090   6.725   1.455  0.2362  2.2981 -0.5334
13244TIP3   OH261222   2.810   6.544   0.080 -0.5910  0.2363 -0.3218
13244TIP3    H161223   2.905   6.551   0.073 -0.4753  0.4344  1.2569
13244TIP3    H261224   2.788   6.465   0.031  0.5645 -0.6561  0.5759
13245TIP3   OH261225   5.799   1.048   2.525 -0.0428 -0.1934 -0.1065
13245TIP3    H161226   5.809   0.995   2.447  0.6686  0.0483 -0.1852
13245TIP3    H261227   5.881   1.036   2.573 -0.9301 -1.2516  1.1650
13246TIP3   OH261228   2.980   0.722   5.706  0.3112  0.0911 -1.2497
13246TIP3    H161229   3.063   0.759   5.737 -1.4241  1.9428  1.3832
13246TIP3    H261230   2.960   0.653   5.770 -3.2474  3.8621  1.8969
13247TIP3   OH261231   5.967   5.626  13.109 -0.0544  1.3900 -0.5563
13247TIP3    H161232   5.953   5.569  13.185 -0.3829 -0.4513 -1.9356
13247TIP3    H261233   5.895   5.688  13.111  0.3813  1.8468  1.0751
13248TIP3   OH261234   5.736   3.554  17.275  0.1332 -0.0057  0.2590
13248TIP3    H161235   5.676   3.605  17.221 -0.2391  1.4075  1.9507
13248TIP3    H261236   5.692   3.548  17.360  2.2097  0.7706  1.4360
13249TIP3   OH261237   1.152   4.786  12.793 -0.0416  0.1790  0.0284
13249TIP3    H161238   1.145   4.694  12.768  0.0931  0.4643 -1.1170
13249TIP3    H261239   1.223   4.820  12.739 -0.9170  1.2414 -0.4850
13250TIP3   OH261240   3.937   1.488  14.012 -0.2264  0.1875  0.2635
13250TIP3    H161241   3.982   1.571  14.027 -0.3537  0.2889  0.0870
13250TIP3    H261242   4.005   1.421  14.026  0.4920  0.4205 -1.9498
13251TIP3   OH261243   5.809   0.777  11.180  0.2630 -0.3477  0.2602
13251TIP3    H161244   5.854   0.860  11.167 -0.9364  0.0287 -1.7285
13251TIP3    H261245   5.733   0.782  11.122  0.3609 -2.9898 -0.1309
13252TIP3   OH261246   6.054   4.687  15.359  0.0059  0.1933 -0.4448
13252TIP3    H161247   6.009   4.771  15.349  1.4096  0.8280 -1.5039
13252TIP3    H261248   6.014   4.648  15.437 -1.6644  1.1865 -0.7736
13253TIP3   OH261249   2.739   3.858   4.687 -0.5398 -0.1466 -0.4102
13253TIP3    H161250   2.706   3.792   4.626 -0.7414 -0.2796 -0.1580
13253TIP3    H261251   2.743   3.812   4.771 -2.2406  0.6212  0.1167
13254TIP3   OH261252   6.661   3.462  13.833 -0.1617  0.4661 -0.6991
13254TIP3    H161253   6.570   3.433  13.845  0.1829 -0.1675  0.4997
13254TIP3    H261254   6.682   3.441  13.742 -1.0004  0.0076 -0.7924
13255TIP3   OH261255   0.794   1.223   3.442  0.0409 -0.1242  0.1003
13255TIP3    H161256   0.835   1.138   3.426 -1.1287 -0.9404  1.3888
13255TIP3    H261257   0.749   1.244   3.360  1.0477 -0.3417 -0.5094
13256TIP3   OH261258   6.072   4.291   2.258 -0.0855  0.7145  0.7343
13256TIP3    H161259   6.055   4.376   2.217  1.0777  0.8531  0.5167
13256TIP3    H261260   6.030   4.297   2.343 -0.6007  1.2604  0.4492
13257TIP3   OH261261   1.666   2.315   2.369  0.3868 -0.0639  0.0071
13257TIP3    H161262   1.614   2.304   2.449 -0.8125  1.2248 -0.5744
13257TIP3    H261263   1.648   2.237   2.317 -2.0512  0.9755 -0.7679
13258TIP3   OH261264   6.174   4.899  15.903  0.4430  0.5815  0.0851
13258TIP3    H161265   6.121   4.977  15.922 -1.7438 -0.2884 -2.2180
13258TIP3    H261266   6.205   4.870  15.989  0.1356  3.1713  1.1189
13259TIP3   OH261267   1.400   1.942   3.911  0.0357 -0.0434  0.3039
13259TIP3    H161268   1.394   1.944   3.816  0.4045 -0.6984  0.2646
13259TIP3    H261269   1.315   1.907   3.940  0.0028 -0.0397  0.2103
13260TIP3   OH261270   5.411   6.142   2.426 -1.0697 -0.0733 -0.3848
13260TIP3    H161271   5.480   6.081   2.453 -0.0832  0.8396 -0.8035
13260TIP3    H261272   5.355   6.150   2.503 -0.1136 -0.0154  0.3140
13261TIP3   OH261273   2.962   4.075  13.327  0.0522 -0.6706 -0.1259
13261TIP3    H161274   3.041   4.127  13.317  0.3105 -0.9320  0.5262
13261TIP3    H261275   2.904   4.105  13.257  0.3271  0.2603  0.0339
13262TIP3   OH261276   0.890   6.709  14.471  0.7120 -0.3179  0.2565
13262TIP3    H161277   0.833   6.775  14.432  0.6233 -0.8438 -0.5186
13262TIP3    H261278   0.834   6.665  14.536  0.8692  0.5729  1.0071
13263TIP3   OH261279   3.329   4.943   4.059  0.5466  0.1268  0.1130
13263TIP3    H161280   3.420   4.914   4.056  0.1365 -1.0995 -0.7646
13263TIP3    H261281   3.280   4.872   4.020 -1.0068  0.0465  2.1402
13264TIP3   OH261282   4.961   2.823   6.133  0.6207  0.3478 -0.1972
13264TIP3    H161283   4.885   2.766   6.123  1.1282 -0.3523 -0.0556
13264TIP3    H261284   5.026   2.770   6.178  1.0881  1.0443 -0.0360
13265TIP3   OH261285   0.475   2.536   3.993  0.7556 -0.5369  0.5008
13265TIP3    H161286   0.508   2.517   3.905 -2.3856  1.5288 -1.1823
13265TIP3    H261287   0.407   2.470   4.008 -0.4337  0.6373  0.3475
13266TIP3   OH261288   1.255   1.873   2.092 -0.2551 -0.1333 -0.2898
13266TIP3    H161289   1.351   1.868   2.095 -0.3056  0.0173  2.1840
13266TIP3    H261290   1.236   1.967   2.102 -0.6607 -0.0321 -1.8112
13267TIP3   OH261291   4.243   0.982  13.484  0.1457  0.5689  0.1307
13267TIP3    H161292   4.332   1.011  13.504 -0.1828  1.1331  0.7784
13267TIP3    H261293   4.192   1.062  13.480 -0.8819  0.0790  2.4585
13268TIP3   OH261294   6.365   4.167  16.416 -0.0397 -0.9045 -0.1969
13268TIP3    H161295   6.454   4.151  16.446  0.6710  0.9191 -1.2799
13268TIP3    H261296   6.317   4.088  16.441  1.4000 -1.0613  2.1960
13269TIP3   OH261297   2.616   5.999  13.983 -0.7019  0.2307 -0.2023
13269TIP3    H161298   2.665   5.937  14.036 -0.6852  0.1499 -0.3105
13269TIP3    H261299   2.530   5.959  13.972 -0.9033  0.5355  0.2809
13270TIP3   OH261300   0.586   3.164   4.163  0.1346  0.3288 -0.5566
13270TIP3    H161301   0.574   3.102   4.091  1.1932 -0.3836 -0.1475
13270TIP3    H261302   0.634   3.237   4.124 -0.2289  0.4236 -0.8201
13271TIP3   OH261303   6.501   5.218   1.175  0.0042 -0.1390 -0.3827
13271TIP3    H161304   6.523   5.150   1.239  0.6371  0.5162  0.1017
13271TIP3    H261305   6.541   5.298   1.210  0.0763  0.2936 -1.4347
13272TIP3   OH261306   5.502   4.597  15.357  0.7178  0.1908  0.0718
13272TIP3    H161307   5.526   4.582  15.265 -1.5015  0.3765 -0.5746
13272TIP3    H261308   5.475   4.689  15.360 -0.8466 -0.2713  0.5217
13273TIP3   OH261309   2.165   4.569  12.725  0.2591  0.1280  0.2687
13273TIP3    H161310   2.150   4.633  12.795  1.0420 -0.9398  1.4215
13273TIP3    H261311   2.238   4.605  12.674  1.2521 -0.2586  1.4136
13274TIP3   OH261312   4.957   5.666   5.115  0.4046 -0.6722  0.0539
13274TIP3    H161313   5.047   5.700   5.112  0.4325 -0.6579  0.7992
13274TIP3    H261314   4.905   5.739   5.147  0.3742 -1.1399  1.1002
13275TIP3   OH261315   0.186   6.332   0.545  0.3094  0.0888  0.7299
13275TIP3    H161316   0.139   6.408   0.510 -0.2773 -1.0413 -0.9968
13275TIP3    H261317   0.124   6.260   0.539  2.0364 -1.3007 -1.0272
13276TIP3   OH261318   0.136   6.109   2.595 -0.3378  0.1076 -0.3416
13276TIP3    H161319   0.109   6.035   2.649 -1.7438  0.1274 -0.9828
13276TIP3    H261320   0.170   6.070   2.514  1.6487  0.0808  0.4953
13277TIP3   OH261321   3.673   1.769   5.122  0.2353  0.4886  0.5663
13277TIP3    H161322   3.650   1.681   5.151 -0.4485  0.7311  0.7721
13277TIP3    H261323   3.737   1.755   5.052  2.1173 -0.0774  2.3806
13278TIP3   OH261324   6.264   1.617  12.233  0.0429 -0.6576 -0.0990
13278TIP3    H161325   6.287   1.691  12.289 -0.0086 -1.7960  1.4733
13278TIP3    H261326   6.242   1.656  12.149  2.6178  0.9105 -0.1186
13279TIP3   OH261327   5.248   4.825   1.382 -0.2696  0.1931 -0.5745
13279TIP3    H161328   5.200   4.826   1.464  1.1938 -0.0215  0.3066
13279TIP3    H261329   5.316   4.892   1.393  1.5810 -1.6236 -0.5612
13280TIP3   OH261330   2.099   3.594   2.649 -0.3037 -0.8679 -0.1588
13280TIP3    H161331   2.061   3.623   2.732 -0.1000 -0.4673 -0.2017
13280TIP3    H261332   2.117   3.501   2.662  1.0658 -0.4975  0.7757
13281TIP3   OH261333   5.219   3.795  10.815  0.6732  0.0985  0.0334
13281TIP3    H161334   5.178   3.721  10.771 -0.6670 -0.5217  2.2285
13281TIP3    H261335   5.313   3.775  10.815  0.3193 -1.6198  0.6070
13282TIP3   OH261336   0.949   0.306  12.289  0.2351 -0.3092  0.0039
13282TIP3    H161337   0.953   0.371  12.360  2.1898 -1.2398  0.7832
13282TIP3    H261338   0.967   0.223  12.332  1.2712 -0.9017 -1.5690
13283TIP3   OH261339   5.855   3.443  15.797  0.1323  0.8578  0.5352
13283TIP3    H161340   5.924   3.509  15.799  0.2459  0.7227  1.2193
13283TIP3    H261341   5.890   3.370  15.848 -0.7907  1.0635  1.4765
13284TIP3   OH261342   3.878   5.392  10.817 -0.2191 -0.3537  0.0760
13284TIP3    H161343   3.913   5.480  10.799  0.7079 -0.8323 -0.4900
13284TIP3    H261344   3.867   5.353  10.730 -3.4531  0.2513  0.1280
13285TIP3   OH261345   4.735   5.958  16.254 -0.1939 -0.1380 -0.2896
13285TIP3    H161346   4.753   5.864  16.264 -1.9887 -0.3204  1.5142
13285TIP3    H261347   4.712   5.969  16.162  1.4880 -1.1919 -0.8588
13286TIP3   OH261348   2.252   0.313   3.874  0.4030 -0.4715 -0.2695
13286TIP3    H161349   2.229   0.240   3.816 -2.5445  0.1594  0.0667
13286TIP3    H261350   2.298   0.375   3.817  2.7629 -2.4268 -0.6005
13287TIP3   OH261351   5.747   0.258   1.392 -0.5191  0.7032  0.2145
13287TIP3    H161352   5.720   0.169   1.367 -2.2928  1.4955 -0.7252
13287TIP3    H261353   5.841   0.260   1.373 -0.7987 -0.4239 -1.4053
13288TIP3   OH261354   4.226   6.716  10.647 -0.2312 -0.3109  0.1477
13288TIP3    H161355   4.240   6.802  10.606 -1.1744  0.7348  1.9733
13288TIP3    H261356   4.154   6.677  10.597  1.1439 -0.6621 -1.6008
13289TIP3   OH261357   3.246   6.577  15.105 -0.1757 -0.1763 -0.1013
13289TIP3    H161358   3.283   6.538  15.184 -1.2775  1.5837  1.2972
13289TIP3    H261359   3.306   6.648  15.082 -1.3723  1.1563  0.8139
13290TIP3   OH261360   5.968   5.993   0.516  0.0952 -0.2083 -0.3119
13290TIP3    H161361   5.992   5.941   0.593 -0.1174  0.2331  0.0511
13290TIP3    H261362   5.885   5.956   0.487  0.2125 -0.4241 -0.3812
13291TIP3   OH261363   6.325   4.247   1.323  0.4503  0.2502  0.2567
13291TIP3    H161364   6.283   4.246   1.409  1.6069 -0.4504  0.8286
13291TIP3    H261365   6.341   4.154   1.303 -0.0825  0.3883 -0.8553
13292TIP3   OH261366   2.468   1.896   4.788  0.2963 -0.7620  0.0673
13292TIP3    H161367   2.497   1.838   4.857  1.2558 -0.9636 -0.5029
13292TIP3    H261368   2.501   1.857   4.707  0.4240  0.2444 -0.3806
13293TIP3   OH261369   2.420   4.838   2.829 -0.3569  0.1095 -0.1033
13293TIP3    H161370   2.500   4.860   2.780 -0.5722  0.0589 -0.4781
13293TIP3    H261371   2.364   4.915   2.819 -0.4406  0.0601 -0.0182
13294TIP3   OH261372   5.387   6.166   3.881 -0.6138  0.3705  0.1101
13294TIP3    H161373   5.297   6.199   3.873 -0.2518  0.9956 -1.7297
13294TIP3    H261374   5.404   6.165   3.975 -2.7885 -0.4360  0.5363
13295TIP3   OH261375   1.268   0.673   6.305  0.3262  0.4120  0.0920
13295TIP3    H161376   1.206   0.691   6.234 -0.5713 -0.9898  0.4876
13295TIP3    H261377   1.231   0.717   6.381 -1.8159 -2.8235  1.0356
13296TIP3   OH261378   1.809   2.442   5.367 -0.0307  0.0245  0.1351
13296TIP3    H161379   1.732   2.442   5.310  0.1907 -0.4039 -0.1651
13296TIP3    H261380   1.866   2.510   5.330  0.3926 -0.6804 -0.5479
13297TIP3   OH261381   2.757   0.974  16.440 -0.3638  0.1230  0.5158
13297TIP3    H161382   2.700   0.902  16.415 -0.4344  0.0934  0.7618
13297TIP3    H261383   2.698   1.041  16.475 -0.2006 -0.1143  1.2588
13298TIP3   OH261384   6.298   6.494   2.477  0.2662  0.6656  0.5646
13298TIP3    H161385   6.321   6.557   2.545 -1.1148  0.9884  0.7309
13298TIP3    H261386   6.380   6.448   2.459  0.5165  0.1607  2.8762
13299TIP3   OH261387   3.404   4.217   2.537 -0.7223  0.5511  0.3366
13299TIP3    H161388   3.417   4.142   2.478 -0.3344  1.3122 -0.5591
13299TIP3    H261389   3.309   4.230   2.537 -0.7828  0.1320  0.4071
13300TIP3   OH261390   1.548   1.959   6.527  0.2630  0.2876 -0.4097
13300TIP3    H161391   1.492   2.035   6.535 -0.0700 -0.1436  1.6347
13300TIP3    H261392   1.576   1.940   6.617  3.2654  0.1911 -1.3022
13301TIP3   OH261393   6.309   1.446  11.600 -0.1456  0.2042 -0.6369
13301TIP3    H161394   6.218   1.423  11.620  0.2879 -0.5278  0.5663
13301TIP3    H261395   6.323   1.412  11.511 -0.1370 -2.5020  0.3327
13302TIP3   OH261396   5.261   0.716   5.491  0.1873 -0.0386 -0.1565
13302TIP3    H161397   5.344   0.754   5.522 -0.6092  1.1705  0.5177
13302TIP3    H261398   5.286   0.630   5.457  1.7596  0.3870 -0.1474
13303TIP3   OH261399   6.225   1.490  14.235 -0.4251  0.2647  0.4615
13303TIP3    H161400   6.204   1.426  14.303  0.1554  0.7970  1.1429
13303TIP3    H261401   6.153   1.483  14.173 -0.0870 -1.4591  0.2361
13304TIP3   OH261402   1.567   6.258   2.764  0.0444  0.2751  0.6302
13304TIP3    H161403   1.550   6.225   2.676  1.3222  1.7633 -0.1911
13304TIP3    H261404   1.611   6.185   2.809 -0.9487 -0.6200  0.1852
13305TIP3   OH261405   1.160   4.707  13.155  0.2734 -0.7750  0.5737
13305TIP3    H161406   1.129   4.797  13.159  0.6848 -0.6406  0.8208
13305TIP3    H261407   1.248   4.711  13.192  1.2157 -0.8763 -1.5909
13306TIP3   OH261408   1.138   6.558  16.147  0.1553 -0.0989 -0.0930
13306TIP3    H161409   1.117   6.651  16.135  0.0060  0.1668  2.1032
13306TIP3    H261410   1.220   6.558  16.196  0.5249 -1.1403 -0.6965
13307TIP3   OH261411   1.143   6.582   3.270 -1.4574  0.0897  0.5634
13307TIP3    H161412   1.169   6.584   3.178  0.1903  0.7923  1.0290
13307TIP3    H261413   1.113   6.671   3.289  0.8542  0.7464  1.4089
13308TIP3   OH261414   1.526   0.295   5.737  0.2301 -1.0449  0.4860
13308TIP3    H161415   1.548   0.292   5.830  0.3187 -3.9191  0.4055
13308TIP3    H261416   1.430   0.296   5.736  0.1788  2.6036  0.6236
13309TIP3   OH261417   3.965   2.291  13.389  0.0906  0.0347 -0.5806
13309TIP3    H161418   4.039   2.328  13.340  1.2001 -0.4776  0.6780
13309TIP3    H261419   3.941   2.213  13.339  2.5098 -1.6032  0.7229
13310TIP3   OH261420   0.550   4.417  12.077 -0.0326  0.0607 -0.3173
13310TIP3    H161421   0.646   4.419  12.081 -0.0138  0.7906 -0.9322
13310TIP3    H261422   0.527   4.325  12.090  0.8048 -0.2727 -1.1264
13311TIP3   OH261423   3.665   5.941  15.129  0.3756 -0.2517 -0.0462
13311TIP3    H161424   3.703   5.954  15.042 -0.3862  1.9057 -0.1033
13311TIP3    H261425   3.721   5.992  15.187  0.1599 -0.6833  0.5405
13312TIP3   OH261426   6.276   4.154  14.825 -0.5803  0.3790  0.0231
13312TIP3    H161427   6.359   4.168  14.780 -1.4625 -1.2875 -2.2168
13312TIP3    H261428   6.292   4.078  14.882 -0.8211 -0.5240 -1.1035
13313TIP3   OH261429   3.463   6.766  12.602 -0.0128 -0.0703  0.6116
13313TIP3    H161430   3.490   6.857  12.612  0.4428 -0.3566  2.1692
13313TIP3    H261431   3.526   6.729  12.540  0.6785  0.3192  1.0752
13314TIP3   OH261432   1.456   6.215  14.454  0.6150 -0.0104  0.2762
13314TIP3    H161433   1.382   6.275  14.457  0.9770  0.4711 -0.2750
13314TIP3    H261434   1.436   6.148  14.520  0.7949  1.3915  1.7921
13315TIP3   OH261435   6.694   4.990  13.295 -0.1644 -0.1519 -0.0008
13315TIP3    H161436   6.746   5.017  13.220  0.6675  2.2461  1.3990
13315TIP3    H261437   6.755   4.992  13.369 -1.3977 -0.7414  1.0590
13316TIP3   OH261438   4.199   1.274  12.636 -0.6589 -0.1786 -0.3062
13316TIP3    H161439   4.127   1.330  12.605 -0.0702  0.4227 -0.6060
13316TIP3    H261440   4.273   1.298  12.580  0.3276  0.6874  1.3575
13317TIP3   OH261441   0.960   3.984   1.886  0.2396  0.2401 -0.1400
13317TIP3    H161442   1.002   4.049   1.942  0.0518 -0.6596  1.0495
13317TIP3    H261443   0.902   4.036   1.830  0.1543  1.1086  0.7355
13318TIP3   OH261444   2.713   5.018   0.756  0.0994  0.1398 -0.0359
13318TIP3    H161445   2.763   4.939   0.774  0.0644  0.4612  1.5645
13318TIP3    H261446   2.691   5.012   0.663  0.9169 -1.2484 -0.1533
13319TIP3   OH261447   4.719   0.741   3.459 -0.7905 -0.6557  0.1930
13319TIP3    H161448   4.686   0.785   3.537  1.8861  0.0343  0.9803
13319TIP3    H261449   4.766   0.665   3.492 -0.1580 -0.6963 -0.7741
13320TIP3   OH261450   0.572   5.596   3.693  0.1409 -0.5008  0.5574
13320TIP3    H161451   0.514   5.570   3.621  0.3104 -1.9182  0.9102
13320TIP3    H261452   0.660   5.581   3.660  0.2303 -0.7289  0.8860
13321TIP3   OH261453   5.721   2.280   3.768 -0.1853  0.8893 -0.7349
13321TIP3    H161454   5.639   2.237   3.744  0.5779 -0.3214 -1.2350
13321TIP3    H261455   5.700   2.332   3.846 -1.0432 -0.6583  0.0807
13322TIP3   OH261456   5.714   0.793   3.265  0.6650 -0.3879  0.1158
13322TIP3    H161457   5.671   0.742   3.195  0.5432 -1.8557  1.2398
13322TIP3    H261458   5.648   0.800   3.334  1.5622 -0.9726  1.0491
13323TIP3   OH261459   5.141   2.283  11.003 -0.0760 -0.1662  0.8749
13323TIP3    H161460   5.101   2.367  11.022  2.0491  0.8801  0.8618
13323TIP3    H261461   5.222   2.283  11.054  0.0994 -2.0827  0.6423
13324TIP3   OH261462   5.351   5.097  12.985 -0.5182  0.6285 -0.4220
13324TIP3    H161463   5.443   5.121  12.989 -0.7862  1.6277 -0.3141
13324TIP3    H261464   5.350   5.002  13.001  0.2775  0.9975  1.8836
13325TIP3   OH261465   4.532   4.936   3.948  0.2380 -0.9602 -0.1333
13325TIP3    H161466   4.519   4.883   4.027  0.6830 -2.8963 -1.3196
13325TIP3    H261467   4.587   5.009   3.978  0.1764 -1.5095  1.4139
13326TIP3   OH261468   5.874   1.138   0.279  0.1256  0.2137 -0.4936
13326TIP3    H161469   5.901   1.110   0.367  0.4188  0.4349 -0.5116
13326TIP3    H261470   5.841   1.227   0.291 -0.8843 -0.1616 -0.4228
13327TIP3   OH261471   0.512   0.532   0.164  0.1594  0.1333 -0.5285
13327TIP3    H161472   0.454   0.480   0.220  0.1590 -0.5390 -1.1386
13327TIP3    H261473   0.454   0.597   0.123 -0.3592 -1.1179 -1.8456
13328TIP3   OH261474   4.108   6.407   2.779  0.2351 -0.4702 -0.2935
13328TIP3    H161475   4.120   6.375   2.690  0.3039 -0.3786 -0.3173
13328TIP3    H261476   4.024   6.453   2.777  0.6790  0.3357 -0.5395
13329TIP3   OH261477   3.261   2.869   5.545 -0.1405 -0.2006  0.4784
13329TIP3    H161478   3.200   2.932   5.583  0.0281  1.1325 -1.3690
13329TIP3    H261479   3.347   2.896   5.578 -0.1272  0.2610  0.0791
13330TIP3   OH261480   4.204   0.317   0.702 -0.4418  0.1706  0.1852
13330TIP3    H161481   4.297   0.321   0.726 -0.5329  0.4856  0.4993
13330TIP3    H261482   4.190   0.394   0.647  0.2467 -1.6476 -2.6543
13331TIP3   OH261483   0.593   3.045  17.204  0.2008 -0.3793 -0.1596
13331TIP3    H161484   0.632   2.995  17.132  0.3701  0.3130 -0.5566
13331TIP3    H261485   0.607   2.991  17.281  1.0191 -0.6162 -0.4671
13332TIP3   OH261486   0.314   3.284  13.216 -0.1949 -0.0303  0.0125
13332TIP3    H161487   0.387   3.336  13.182  1.6170 -1.7399  1.2050
13332TIP3    H261488   0.281   3.236  13.139 -0.7416  1.4767 -0.7259
13333TIP3   OH261489   3.373   1.583   2.373 -0.3674  0.1061  0.2094
13333TIP3    H161490   3.416   1.662   2.341 -0.7630  0.3614  0.3040
13333TIP3    H261491   3.303   1.566   2.310  0.0821 -0.4983 -0.1281
13334TIP3   OH261492   4.611   5.282   3.751  0.0519  0.5784  0.1033
13334TIP3    H161493   4.626   5.364   3.799  2.1799 -0.3829  1.1667
13334TIP3    H261494   4.570   5.224   3.814  0.2199  0.2375 -0.1023
13335TIP3   OH261495   4.539   0.587  13.786 -0.0780  0.0888  0.2678
13335TIP3    H161496   4.492   0.631  13.857  0.8514 -1.3811  1.8280
13335TIP3    H261497   4.470   0.552  13.730 -0.8719  4.1749 -1.5098
13336TIP3   OH261498   5.910   0.441  16.352 -0.2860 -0.1724 -0.3195
13336TIP3    H161499   5.815   0.439  16.341 -0.4600 -0.9025  1.0621
13336TIP3    H261500   5.924   0.406  16.440  1.2316  0.4472 -0.2956
13337TIP3   OH261501   2.690   3.014   0.295  0.2721 -0.5587  0.2505
13337TIP3    H161502   2.601   3.000   0.261 -0.0029  0.3188  0.5875
13337TIP3    H261503   2.732   3.070   0.230 -0.5926  1.9938  1.8106
13338TIP3   OH261504   0.809   5.775  12.216 -0.4341 -0.6337  0.4953
13338TIP3    H161505   0.858   5.825  12.282  0.3424  0.4577 -0.8643
13338TIP3    H261506   0.787   5.840  12.149 -0.3719 -1.8950 -0.7751
13339TIP3   OH261507   0.431   2.964   4.941  0.1221 -0.2415 -0.6027
13339TIP3    H161508   0.447   3.037   4.882  0.2054  0.2478  0.0148
13339TIP3    H261509   0.475   2.989   5.022 -2.7040  0.6197  0.7615
13340TIP3   OH261510   1.858   2.726  16.416 -0.0982  0.0521 -0.8366
13340TIP3    H161511   1.793   2.695  16.352  0.5957  1.6634 -2.3669
13340TIP3    H261512   1.941   2.724  16.369  0.6853 -0.1879  0.5262
13341TIP3   OH261513   5.080   1.380   5.488 -0.1122  0.1746 -0.5594
13341TIP3    H161514   5.126   1.413   5.565 -0.3134  0.9604 -0.7670
13341TIP3    H261515   5.022   1.452   5.462 -1.9282 -1.0207  0.0831
13342TIP3   OH261516   5.025   2.294   2.345  0.2985 -0.2645 -0.4147
13342TIP3    H161517   5.038   2.320   2.254  2.5392  2.4026  0.5967
13342TIP3    H261518   5.089   2.345   2.394  0.6071 -3.2078  2.4622
13343TIP3   OH261519   6.637   6.484  15.372  0.0685 -0.0290 -0.2238
13343TIP3    H161520   6.661   6.506  15.463 -0.1369 -1.1119  0.1005
13343TIP3    H261521   6.578   6.410  15.380 -0.8823  0.6030 -1.2032
13344TIP3   OH261522   0.696   4.482  14.387 -0.5154 -0.3908 -0.8046
13344TIP3    H161523   0.650   4.407  14.347 -2.9502  0.4624  0.3119
13344TIP3    H261524   0.777   4.490  14.336 -0.9128 -2.8524 -1.9003
13345TIP3   OH261525   4.586   5.129  11.602 -0.2001  0.0872  0.2100
13345TIP3    H161526   4.533   5.092  11.672 -2.0274 -0.6886 -1.5229
13345TIP3    H261527   4.587   5.061  11.534 -0.1025  1.5516 -1.2939
13346TIP3   OH261528   6.808   3.381   1.782  1.2579  0.1899  0.0802
13346TIP3    H161529   6.830   3.398   1.874 -1.0497  0.3810  0.6186
13346TIP3    H261530   6.866   3.310   1.756  1.1042 -0.6876  2.0548
13347TIP3   OH261531   3.895   0.332   3.982  0.4920 -0.2436 -0.1344
13347TIP3    H161532   3.950   0.320   3.904 -0.1242 -0.6441 -0.5098
13347TIP3    H261533   3.845   0.412   3.963  1.7456  0.7505  0.6845
13348TIP3   OH261534   2.520   1.292  16.749 -0.0595 -0.3720 -0.1675
13348TIP3    H161535   2.426   1.298  16.766  0.0146 -0.9987  0.4595
13348TIP3    H261536   2.559   1.275  16.834  0.3551 -2.9181 -0.8353
13349TIP3   OH261537   0.963   0.597  15.614  0.3152 -0.0363 -0.2609
13349TIP3    H161538   1.002   0.647  15.686  1.5314 -1.6884  0.2560
13349TIP3    H261539   0.995   0.641  15.535 -0.8223  1.6354  0.1870
13350TIP3   OH261540   4.686   5.303  12.305 -0.2582  0.3254  0.0259
13350TIP3    H161541   4.671   5.219  12.349  0.1306 -0.6895 -1.7544
13350TIP3    H261542   4.756   5.344  12.357 -0.4285 -0.4512  0.8884
13351TIP3   OH261543   2.384   3.249  11.353 -0.3949  0.3678 -0.0969
13351TIP3    H161544   2.478   3.240  11.372 -0.3341  1.8068  0.3710
13351TIP3    H261545   2.372   3.204  11.269  0.4438 -1.0284  0.4990
13352TIP3   OH261546   4.376   3.717  14.769  0.1259  0.4897  0.1140
13352TIP3    H161547   4.369   3.630  14.730  0.5759  0.1567  0.7866
13352TIP3    H261548   4.298   3.763  14.737 -0.0520 -0.1150 -0.3365
13353TIP3   OH261549   5.414   5.043  14.583  0.4685 -0.0980  0.3122
13353TIP3    H161550   5.417   5.092  14.500 -1.0920 -1.4123 -0.5549
13353TIP3    H261551   5.445   5.105  14.648  0.9444  1.2378 -1.1410
13354TIP3   OH261552   4.605   3.911  13.486 -0.1946  0.0676  0.0352
13354TIP3    H161553   4.562   3.987  13.448 -0.1713 -0.7732 -1.7001
13354TIP3    H261554   4.696   3.918  13.457  0.3259  0.5778  1.7404
13355TIP3   OH261555   0.254   5.340  10.990  0.3519 -0.7717  0.1851
13355TIP3    H161556   0.250   5.436  10.988 -0.1610 -0.7913  0.2813
13355TIP3    H261557   0.181   5.312  10.935  0.2409 -1.1103  0.5065
13356TIP3   OH261558   2.896   6.781   2.187  0.2870 -0.3949  0.8002
13356TIP3    H161559   2.861   6.866   2.214  1.0858  0.3585 -0.4810
13356TIP3    H261560   2.958   6.757   2.255  0.6503  0.4292  0.7584
13357TIP3   OH261561   2.685   0.313  12.699 -0.8226 -0.0938 -0.5184
13357TIP3    H161562   2.639   0.247  12.648 -2.6437  1.9654 -1.6428
13357TIP3    H261563   2.653   0.397  12.664  0.0913  1.3859  2.0380
13358TIP3   OH261564   1.455   6.230   2.179  0.6263  0.4262 -0.1662
13358TIP3    H161565   1.477   6.313   2.220 -0.2549 -0.1255  1.4428
13358TIP3    H261566   1.379   6.249   2.124  1.7371  1.1327 -1.5204
13359TIP3   OH261567   6.334   3.882  11.034  0.1051  0.8247 -0.0104
13359TIP3    H161568   6.245   3.859  11.058  0.3567 -0.5513 -0.3000
13359TIP3    H261569   6.380   3.798  11.031  0.9861  1.3234 -1.5672
13360TIP3   OH261570   4.698   4.341   3.064 -0.1408  0.1974  0.4759
13360TIP3    H161571   4.737   4.267   3.017  0.7395  0.7462  0.3465
13360TIP3    H261572   4.760   4.413   3.052 -2.1149  1.6326 -1.3615
13361TIP3   OH261573   4.677   0.596  13.077 -0.1898  0.5580  0.0207
13361TIP3    H161574   4.683   0.580  13.171 -1.7065 -1.8760 -0.2392
13361TIP3    H261575   4.726   0.524  13.037 -0.8258  0.7208 -1.0811
13362TIP3   OH261576   2.229   1.366  16.366 -0.2485  0.1719  0.3392
13362TIP3    H161577   2.180   1.333  16.291 -1.0461  0.8990  0.5372
13362TIP3    H261578   2.287   1.294  16.391 -1.7333 -0.9594  0.5742
13363TIP3   OH261579   3.061   3.695   1.412 -0.0536  0.6009  0.2322
13363TIP3    H161580   3.066   3.603   1.386  1.1776  0.4487  0.9613
13363TIP3    H261581   3.135   3.737   1.367  0.1895  0.9575  0.9489
13364TIP3   OH261582   4.829   2.668   3.662 -0.2243 -0.4551  0.5661
13364TIP3    H161583   4.808   2.699   3.750 -0.1733 -0.0751  0.4461
13364TIP3    H261584   4.744   2.649   3.622 -0.2084 -1.6146  1.0450
13365TIP3   OH261585   1.289   4.220   3.564  0.0748 -0.1902 -0.2238
13365TIP3    H161586   1.332   4.188   3.485  0.7073  2.0428 -0.8107
13365TIP3    H261587   1.196   4.223   3.542  0.0396 -1.2451 -0.2651
13366TIP3   OH261588   3.481   4.116  11.456 -0.6180  0.3416 -0.2387
13366TIP3    H161589   3.436   4.198  11.436 -0.0168  0.7929  0.2389
13366TIP3    H261590   3.485   4.069  11.373  1.0009  1.7751 -0.9822
13367TIP3   OH261591   1.605   5.429  14.627  0.4419 -0.2735  0.0505
13367TIP3    H161592   1.548   5.425  14.704  1.3336 -0.5396  0.7111
13367TIP3    H261593   1.691   5.404  14.660  1.1619  1.1510 -0.7221
13368TIP3   OH261594   6.237   1.149  15.738  0.1937  0.3753 -0.1642
13368TIP3    H161595   6.150   1.110  15.732  0.3358  0.0004  0.1382
13368TIP3    H261596   6.295   1.074  15.757  0.5367  0.6632 -0.0662
13369TIP3   OH261597   2.090   3.650   3.856 -0.1208  0.1789 -0.0280
13369TIP3    H161598   2.167   3.616   3.811  0.3910  0.8813  0.3210
13369TIP3    H261599   2.099   3.745   3.852  0.0509  0.2543  1.7581
13370TIP3   OH261600   6.347   0.351   1.805  0.0112  0.0224  0.4585
13370TIP3    H161601   6.306   0.384   1.885  0.8460 -0.2377  1.0080
13370TIP3    H261602   6.432   0.317   1.834  1.1904  1.7661 -0.8676
13371TIP3   OH261603   2.240   3.863   0.493  0.7651 -0.1370 -0.2803
13371TIP3    H161604   2.199   3.916   0.425 -0.8153 -0.8496  0.1062
13371TIP3    H261605   2.235   3.917   0.572 -0.5603 -0.7138  0.0422
13372TIP3   OH261606   4.765   6.512   0.683  0.8895 -0.1633  0.4814
13372TIP3    H161607   4.813   6.433   0.656  1.7788  0.1548  1.0986
13372TIP3    H261608   4.684   6.509   0.632  1.7040 -0.5384 -0.8293
13373TIP3   OH261609   0.098   2.382   6.073 -0.5460  0.0942 -0.2565
13373TIP3    H161610   0.050   2.318   6.126 -0.8547  0.7394  0.2475
13373TIP3    H261611   0.119   2.335   5.992 -2.6225  0.0201 -0.7631
13374TIP3   OH261612   0.271   4.576  16.197  0.4243  0.1318  0.6735
13374TIP3    H161613   0.215   4.639  16.153  1.6734  2.0663  1.7987
13374TIP3    H261614   0.211   4.513  16.236 -0.8155  0.3527 -0.8216
13375TIP3   OH261615   0.554   2.978   3.971  0.3553 -0.3438  0.0958
13375TIP3    H161616   0.593   2.965   3.885 -1.2616  0.6484 -0.8282
13375TIP3    H261617   0.462   2.954   3.959 -0.5388  2.4936  0.7638
13376TIP3   OH261618   4.164   6.355   4.839  0.2780 -0.0731 -0.1448
13376TIP3    H161619   4.140   6.263   4.826 -0.1371  0.1281 -0.8071
13376TIP3    H261620   4.251   6.351   4.879  0.9315 -0.7319 -1.5994
13377TIP3   OH261621   0.662   4.826   2.305  0.3258  0.3498  0.0077
13377TIP3    H161622   0.716   4.857   2.378  0.0925  0.6457  0.0547
13377TIP3    H261623   0.721   4.772   2.252  0.6366  0.5828  0.1205
13378TIP3   OH261624   3.572   4.864   1.661  0.1387 -0.4043 -0.2541
13378TIP3    H161625   3.621   4.946   1.651 -1.9229  0.8182 -0.6817
13378TIP3    H261626   3.639   4.796   1.661  1.8638  1.2446 -0.3531
13379TIP3   OH261627   3.829   2.005  13.191  0.0652  0.1039  0.8659
13379TIP3    H161628   3.762   2.072  13.178  0.0246 -0.0796  0.1368
13379TIP3    H261629   3.790   1.924  13.159  0.9229  0.1525 -0.3642
13380TIP3   OH261630   0.916   6.593  14.032 -0.1419  0.0996  0.6353
13380TIP3    H161631   0.904   6.505  13.998  0.8675  0.9405 -2.0881
13380TIP3    H261632   0.832   6.636  14.019  0.1963  0.3755 -0.8257
13381TIP3   OH261633   1.927   6.112  16.659 -0.0844 -0.0564  0.3600
13381TIP3    H161634   1.993   6.076  16.719  1.0299 -0.1913 -0.9301
13381TIP3    H261635   1.973   6.183  16.614 -0.2095 -1.3938 -1.9377
13382TIP3   OH261636   5.839   6.073  12.144 -0.3011 -0.4343 -0.1905
13382TIP3    H161637   5.871   5.985  12.166 -1.1114 -0.1142  2.4993
13382TIP3    H261638   5.918   6.126  12.137  0.0541 -0.7415  1.2813
13383TIP3   OH261639   0.869   2.382  14.068  0.0277  0.3678  0.1663
13383TIP3    H161640   0.917   2.454  14.028  1.2914 -0.7046 -0.2991
13383TIP3    H261641   0.934   2.312  14.076 -1.6111 -1.3154 -1.0206
13384TIP3   OH261642   1.190   2.559   1.175 -0.1164  0.9414 -0.6180
13384TIP3    H161643   1.124   2.628   1.171 -0.2759  0.9390  1.3291
13384TIP3    H261644   1.141   2.478   1.159 -0.6310  0.9289  0.9135
13385TIP3   OH261645   0.336   6.309  17.285 -0.2322 -0.8113 -0.7653
13385TIP3    H161646   0.324   6.360  17.365  3.0312 -1.6568  0.3513
13385TIP3    H261647   0.326   6.372  17.214  1.5437  0.9803  0.5252
13386TIP3   OH261648   3.343   0.316  16.338  0.5928 -0.1308  0.1211
13386TIP3    H161649   3.290   0.258  16.283 -0.0276  1.7583 -1.3293
13386TIP3    H261650   3.295   0.399  16.337  1.9597  0.6834  1.3949
13387TIP3   OH261651   0.857   4.003  12.205  0.3284 -0.0997  0.4834
13387TIP3    H161652   0.873   3.912  12.181  0.9330 -0.2695  1.5040
13387TIP3    H261653   0.943   4.045  12.201  0.2039  0.2018  0.9537
13388TIP3   OH261654   1.192   6.510   1.178 -0.3474 -0.0101  0.3317
13388TIP3    H161655   1.120   6.489   1.238  0.2143  0.9787  1.3785
13388TIP3    H261656   1.154   6.571   1.115 -0.6654 -0.2292  0.3099
13389TIP3   OH261657   6.703   3.665  14.782 -0.2719 -0.0618 -0.5128
13389TIP3    H161658   6.664   3.578  14.779  0.4725 -0.3790 -0.9632
13389TIP3    H261659   6.687   3.701  14.695  0.4260 -0.1805 -0.6860
13390TIP3   OH261660   3.399   0.141   3.253  0.3141  0.2724 -0.0242
13390TIP3    H161661   3.417   0.169   3.343  0.3402 -0.5536  0.2320
13390TIP3    H261662   3.310   0.171   3.236  0.4391  0.7421  0.1584
13391TIP3   OH261663   3.111   5.969   4.756  0.0846 -0.3144  0.8825
13391TIP3    H161664   3.092   5.907   4.686  1.4187 -0.2615  0.4593
13391TIP3    H261665   3.123   5.915   4.834 -2.5116 -0.2915  1.3225
13392TIP3   OH261666   5.323   0.611  16.259  0.5330  0.6351 -0.6321
13392TIP3    H161667   5.286   0.647  16.339 -0.4951 -0.4099 -0.6240
13392TIP3    H261668   5.294   0.670  16.189 -1.8429 -0.6025 -0.7310
13393TIP3   OH261669   1.240   4.850   1.274 -0.0909  0.2495  0.5743
13393TIP3    H161670   1.169   4.901   1.234 -0.2497  0.4625  1.1161
13393TIP3    H261671   1.214   4.759   1.262  0.0171  0.3014 -0.0848
13394TIP3   OH261672   0.499   1.643   0.966 -0.0947 -0.4193 -0.2669
13394TIP3    H161673   0.440   1.626   1.040 -0.0208  0.0783 -0.0935
13394TIP3    H261674   0.495   1.737   0.953  2.3588 -0.0507  1.1893
13395TIP3   OH261675   0.640   2.455  17.191  0.3326  0.0454  0.4207
13395TIP3    H161676   0.667   2.406  17.113 -0.3440  0.2260  0.0702
13395TIP3    H261677   0.646   2.391  17.262  1.1860 -0.0528  0.2597
13396TIP3   OH261678   6.112   2.380  10.873  0.4523  0.4316 -0.3936
13396TIP3    H161679   6.107   2.291  10.908  0.8282  0.9281  0.9322
13396TIP3    H261680   6.026   2.417  10.889  1.2323  1.3399  1.8850
13397TIP3   OH261681   3.211   1.954   4.535 -0.5711  1.0100  0.4407
13397TIP3    H161682   3.296   1.995   4.551 -0.1135  0.3656 -0.2874
13397TIP3    H261683   3.158   1.978   4.611 -0.0576  2.2424  0.4194
13398TIP3   OH261684   5.502   3.096  15.357 -0.6546 -0.6613  0.3075
13398TIP3    H161685   5.536   3.029  15.417  0.2705  0.2968  0.8778
13398TIP3    H261686   5.575   3.157  15.346 -1.2097 -0.2126 -0.8907
13399TIP3   OH261687   4.243   4.773  13.724 -0.2404  0.1830 -0.0514
13399TIP3    H161688   4.235   4.678  13.721  0.2406  0.1691 -1.1193
13399TIP3    H261689   4.163   4.805  13.681 -1.0786  0.2962  1.5546
13400TIP3   OH261690   6.616   0.353  11.138 -0.0412  0.0323  0.3640
13400TIP3    H161691   6.707   0.342  11.112 -0.1327  1.6819 -0.7637
13400TIP3    H261692   6.591   0.439  11.102 -2.8254 -1.5805 -1.7497
13401TIP3   OH261693   4.519   4.877  16.877  0.3815  0.3640  0.1960
13401TIP3    H161694   4.609   4.874  16.843  0.3044  1.8246 -0.1647
13401TIP3    H261695   4.521   4.947  16.942 -0.7347  1.0359 -0.4947
13402TIP3   OH261696   0.970   2.734   1.536 -0.4019 -0.3054  0.4057
13402TIP3    H161697   1.017   2.791   1.597 -3.0551  1.0852  1.2233
13402TIP3    H261698   0.979   2.646   1.572  0.7081  0.0745  1.0725
13403TIP3   OH261699   5.939   3.248   1.004 -0.3278  0.1698 -0.2426
13403TIP3    H161700   5.980   3.297   0.933  0.3437  2.2095  1.5026
13403TIP3    H261701   5.850   3.230   0.974  0.4382 -0.4130 -2.2388
13404TIP3   OH261702   5.523   1.842   2.188 -0.5019  0.7063  0.0878
13404TIP3    H161703   5.477   1.842   2.103 -0.5875  0.6321  0.1343
13404TIP3    H261704   5.572   1.760   2.189  0.9072  1.5139 -0.6480
13405TIP3   OH261705   3.546   5.037  16.002  0.1422 -0.1665 -0.5717
13405TIP3    H161706   3.547   4.964  15.941 -2.5088 -0.7193 -0.0082
13405TIP3    H261707   3.497   5.106  15.957 -1.4018 -0.4014  0.6939
13406TIP3   OH261708   0.498   3.252  12.345  0.4166 -0.0162  0.1666
13406TIP3    H161709   0.545   3.304  12.279 -1.5097  0.3880 -0.9219
13406TIP3    H261710   0.486   3.167  12.303  2.1231 -0.8492  1.3166
13407TIP3   OH261711   0.935   2.977   5.720 -0.3789 -0.4862 -0.0857
13407TIP3    H161712   0.872   2.978   5.648 -0.0492  1.7945 -0.3803
13407TIP3    H261713   0.894   2.923   5.787 -2.0390 -0.1447 -0.8026
13408TIP3   OH261714   0.385   1.296   3.440 -0.3577  0.3502  0.1999
13408TIP3    H161715   0.404   1.203   3.451 -0.9782 -0.0172 -1.7947
13408TIP3    H261716   0.310   1.299   3.381  1.0164  2.1837 -1.5057
13409TIP3   OH261717   2.065   6.406  10.458 -0.3699 -0.2622 -1.2208
13409TIP3    H161718   2.012   6.474  10.417 -1.6474  0.3191  1.2733
13409TIP3    H261719   2.021   6.389  10.542  0.7123 -3.1810 -1.1929
13410TIP3   OH261720   2.086   5.172  14.203 -0.0447 -0.1560 -0.3533
13410TIP3    H161721   2.163   5.225  14.183  0.4357 -0.5774  0.3764
13410TIP3    H261722   2.063   5.132  14.119 -0.0808  0.7767 -0.7871
13411TIP3   OH261723   5.881   0.373  13.895  0.0352 -0.3624  0.3763
13411TIP3    H161724   5.786   0.382  13.901 -0.0552 -1.2293  0.2380
13411TIP3    H261725   5.895   0.301  13.834  0.7714 -0.7863  1.0349
13412TIP3   OH261726   2.769   1.699   1.112 -0.3659  0.0884  0.1454
13412TIP3    H161727   2.743   1.747   1.190 -0.7675  1.6963 -0.9388
13412TIP3    H261728   2.692   1.646   1.090  0.2581 -1.4808  1.6337
13413TIP3   OH261729   1.762   0.348  10.899 -0.0085 -0.1097  0.1637
13413TIP3    H161730   1.842   0.339  10.951 -0.6989 -0.2917  1.2249
13413TIP3    H261731   1.766   0.438  10.866  0.6173 -0.1025  0.2408
13414TIP3   OH261732   1.609   1.093   6.768 -0.5617 -0.2224 -0.2137
13414TIP3    H161733   1.572   1.165   6.819 -3.5690 -0.7516 -1.5016
13414TIP3    H261734   1.557   1.017   6.795  0.6814 -1.3457 -0.9614
13415TIP3   OH261735   0.754   5.176   1.207  0.0171  0.6124 -0.4921
13415TIP3    H161736   0.756   5.237   1.281 -0.4580  0.0502 -0.0083
13415TIP3    H261737   0.750   5.232   1.130  0.5388  1.2046 -0.0883
13416TIP3   OH261738   5.780   2.006   0.165  0.2501  0.8756 -0.5619
13416TIP3    H161739   5.710   2.058   0.125  1.1453  2.0034 -0.6959
13416TIP3    H261740   5.858   2.028   0.113  0.5080 -1.1172 -1.0486
13417TIP3   OH261741   6.484   3.813   2.428  0.1563 -0.0226 -0.7415
13417TIP3    H161742   6.499   3.867   2.350  1.7900  0.6071 -0.0282
13417TIP3    H261743   6.479   3.876   2.500  1.8209 -0.7824  0.0624
13418TIP3   OH261744   0.584   2.904  13.638 -0.1066 -0.6264 -0.1390
13418TIP3    H161745   0.662   2.888  13.691 -0.9360  0.5918  1.4910
13418TIP3    H261746   0.562   2.995  13.655 -1.1359 -0.5845 -1.6194
13419TIP3   OH261747   3.170   1.755   3.015 -0.0559  0.0138  0.0005
13419TIP3    H161748   3.175   1.698   2.939  0.0306 -0.2340  0.1911
13419TIP3    H261749   3.180   1.843   2.980  1.9844 -0.2153 -0.0526
13420TIP3   OH261750   1.497   4.703  11.930 -0.0342 -0.6689  0.4609
13420TIP3    H161751   1.453   4.737  11.852  2.2052  1.4461  0.0779
13420TIP3    H261752   1.426   4.690  11.993 -1.6757 -0.9490 -1.3770
13421TIP3   OH261753   6.815   1.322   2.963 -0.0960  0.0814  0.0609
13421TIP3    H161754   6.905   1.305   2.934 -0.2405 -1.3148  0.3659
13421TIP3    H261755   6.791   1.405   2.922  0.6804 -0.4680 -1.5473
13422TIP3   OH261756   2.081   5.299  14.424 -0.6172  0.2985 -0.3768
13422TIP3    H161757   2.026   5.264  14.494 -0.8193  0.4742 -0.4495
13422TIP3    H261758   2.047   5.259  14.344 -1.3352  1.2469 -0.5528
13423TIP3   OH261759   2.861   2.007   6.160 -0.0213  0.2308  0.6137
13423TIP3    H161760   2.820   1.922   6.139 -0.9992  0.5515  1.1734
13423TIP3    H261761   2.893   1.996   6.250  1.3730 -0.1005  0.0892
13424TIP3   OH261762   4.033   1.727   6.181  0.2913  0.2672  0.0812
13424TIP3    H161763   4.068   1.814   6.201  0.7391 -0.1822  1.3051
13424TIP3    H261764   3.957   1.717   6.237 -0.5363  0.3781 -1.0091
13425TIP3   OH261765   1.167   0.335   1.340  0.0385  0.1801 -0.0277
13425TIP3    H161766   1.091   0.292   1.380 -0.4361  0.7149 -0.3548
13425TIP3    H261767   1.165   0.424   1.374  0.5622  0.1781  0.0153
13426TIP3   OH261768   4.816   5.599   3.215 -0.0539  0.1858 -0.1014
13426TIP3    H161769   4.834   5.507   3.237  0.5669  0.0555 -1.1150
13426TIP3    H261770   4.903   5.637   3.201 -0.3474  0.7492 -0.3932
13427TIP3   OH261771   4.498   2.553   1.024 -0.1062  0.2373  0.0027
13427TIP3    H161772   4.532   2.607   1.095 -0.1062 -1.6645  1.5111
13427TIP3    H261773   4.461   2.615   0.961  0.8807  2.0091  1.1487
13428TIP3   OH261774   6.343   1.609  17.179 -0.1263  0.2486 -0.1067
13428TIP3    H161775   6.351   1.659  17.098 -0.0997  2.2179  1.0862
13428TIP3    H261776   6.253   1.626  17.209  0.1196  0.1883  0.6894
13429TIP3   OH261777   0.470   2.743   1.987  0.2858 -0.6145 -0.1220
13429TIP3    H161778   0.534   2.722   2.056  1.1370 -1.1152 -1.0569
13429TIP3    H261779   0.523   2.764   1.911 -0.6644 -0.8106 -0.8394
13430TIP3   OH261780   4.573   3.920  17.058 -0.5431 -0.2557  1.0244
13430TIP3    H161781   4.512   3.936  17.130 -0.8917  0.1980  0.6296
13430TIP3    H261782   4.548   3.835  17.022 -0.2171 -0.5931  1.5893
13431TIP3   OH261783   1.427   3.914  13.703 -0.1943  0.6254  1.0041
13431TIP3    H161784   1.385   3.987  13.656 -0.2295 -0.5449 -0.8097
13431TIP3    H261785   1.517   3.913  13.670 -0.9634 -1.9481 -1.2036
13432TIP3   OH261786   0.999   1.444  13.648 -0.5586  0.5224 -0.1899
13432TIP3    H161787   1.038   1.518  13.601 -0.7604  0.7346 -0.0232
13432TIP3    H261788   0.905   1.457  13.637 -0.7346  2.3886  3.0487
13433TIP3   OH261789   6.569   1.345  14.107 -0.0241 -0.3085  1.0897
13433TIP3    H161790   6.619   1.298  14.041 -1.1973 -0.5885  0.3878
13433TIP3    H261791   6.514   1.278  14.149  0.1497 -0.0009  1.8318
13434TIP3   OH261792   1.567   0.297  11.229  0.2326  0.3357 -0.6081
13434TIP3    H161793   1.496   0.283  11.166 -1.0221 -1.8382  1.2100
13434TIP3    H261794   1.524   0.329  11.308  1.3133 -0.6004  0.3877
13435TIP3   OH261795   0.433   3.860   0.541 -0.5120 -0.2637 -0.0640
13435TIP3    H161796   0.405   3.815   0.461  0.5634 -0.0318 -0.5695
13435TIP3    H261797   0.448   3.790   0.604  0.3205 -0.5603 -0.5897
13436TIP3   OH261798   2.592   1.903   0.529  0.0876 -0.3699 -0.3021
13436TIP3    H161799   2.617   1.912   0.437 -1.5991 -2.2846 -0.9990
13436TIP3    H261800   2.583   1.808   0.542  0.7218 -0.1413  1.9655
13437TIP3   OH261801   0.528   2.683   5.015 -0.6645  0.0840 -0.0563
13437TIP3    H161802   0.510   2.735   5.094 -0.8337 -0.1952  0.0907
13437TIP3    H261803   0.623   2.685   5.007 -0.6581  0.2711  0.0476
13438TIP3   OH261804   2.455   0.739   1.245 -0.2495 -0.1233 -0.1305
13438TIP3    H161805   2.510   0.787   1.307  0.3517  1.1009 -1.5659
13438TIP3    H261806   2.518   0.705   1.180 -1.0437  0.1706 -1.0633
13439TIP3   OH261807   0.542   6.043  17.124 -0.5110 -0.6978 -0.1948
13439TIP3    H161808   0.503   6.122  17.088 -0.6485 -0.3632  0.6786
13439TIP3    H261809   0.513   5.973  17.065  0.0919 -0.0322 -1.3099
13440TIP3   OH261810   2.156   4.493   3.696 -0.3952 -0.1936  0.8077
13440TIP3    H161811   2.231   4.436   3.716  0.0920  0.5883  1.2467
13440TIP3    H261812   2.168   4.518   3.605 -0.6952 -0.9179  0.5683
13441TIP3   OH261813   4.083   0.980  11.947 -0.7626 -0.3404 -0.6067
13441TIP3    H161814   4.125   1.052  11.994 -1.2007 -0.3717 -0.1584
13441TIP3    H261815   4.101   0.996  11.855  2.3808 -1.7001 -0.2816
13442TIP3   OH261816   4.329   3.863   3.885  0.0938  0.0674  0.0030
13442TIP3    H161817   4.390   3.937   3.885 -1.2593  1.2318 -2.4817
13442TIP3    H261818   4.258   3.890   3.943 -0.5314  0.8097 -1.1218
13443TIP3   OH261819   4.255   4.214   0.315 -0.5657 -0.3422  0.5146
13443TIP3    H161820   4.261   4.192   0.408  1.5053 -1.2878  0.1961
13443TIP3    H261821   4.346   4.229   0.289 -1.0152 -1.1284 -1.5913
13444TIP3   OH261822   6.080   6.052   2.797  0.2086 -0.5504 -0.1528
13444TIP3    H161823   6.036   6.086   2.719 -1.1890 -0.5025  0.6250
13444TIP3    H261824   6.173   6.059   2.778 -0.1100  0.3172 -1.4450
13445TIP3   OH261825   5.102   0.686  15.748  0.0912 -0.3046  0.8751
13445TIP3    H161826   5.137   0.707  15.661 -1.4976 -0.3048  0.2322
13445TIP3    H261827   5.025   0.741  15.757 -0.9406 -1.8134  1.4322
13446TIP3   OH261828   2.567   1.631   0.538  0.0016 -0.0509  0.7929
13446TIP3    H161829   2.566   1.562   0.605  0.3195 -1.1047 -0.2734
13446TIP3    H261830   2.493   1.609   0.481  0.7369 -0.1213 -0.1469
13447TIP3   OH261831   5.254   1.004   5.129  0.0460 -0.4718  0.4758
13447TIP3    H161832   5.331   0.952   5.107 -0.1767  0.1930 -2.0286
13447TIP3    H261833   5.279   1.094   5.110 -1.5868 -0.3286 -1.2317
13448TIP3   OH261834   1.836   6.728   1.182  0.1157 -0.2864  0.3648
13448TIP3    H161835   1.801   6.817   1.173 -1.7880 -1.0074  0.3032
13448TIP3    H261836   1.776   6.673   1.132  1.8794 -1.4984 -0.4821
13449TIP3   OH261837   5.062   2.982  11.823  0.2570 -0.4992 -0.7378
13449TIP3    H161838   5.097   2.895  11.799  1.2578 -0.2228 -0.3173
13449TIP3    H261839   4.974   2.964  11.855  0.7620 -1.4694  0.1564
13450TIP3   OH261840   6.105   0.963  15.446 -0.2800  0.1685 -0.2662
13450TIP3    H161841   6.040   0.895  15.463 -0.7813  0.5563 -0.6282
13450TIP3    H261842   6.056   1.045  15.454  0.5830  0.5515  1.4204
13451TIP3   OH261843   4.502   3.798  14.002 -0.1245 -0.3111  0.1877
13451TIP3    H161844   4.480   3.723  13.946  0.3272 -0.7730  0.6183
13451TIP3    H261845   4.464   3.776  14.087 -0.8042  0.3890  0.0723
13452TIP3   OH261846   4.669   1.428   4.399 -0.4966  0.2044 -0.0540
13452TIP3    H161847   4.739   1.459   4.342 -1.7215  1.5575 -0.8594
13452TIP3    H261848   4.687   1.471   4.483 -0.7943  1.1809 -0.4809
13453TIP3   OH261849   0.262   1.710  12.331 -0.3006  0.3136  0.3102
13453TIP3    H161850   0.277   1.801  12.306  0.3217  0.2954  0.6186
13453TIP3    H261851   0.323   1.659  12.278  1.0961  0.2861  1.9099
13454TIP3   OH261852   5.458   5.890   4.165  0.0670  0.2018  0.2424
13454TIP3    H161853   5.538   5.873   4.216  0.1429 -1.5690 -0.4444
13454TIP3    H261854   5.484   5.875   4.074 -0.3531  2.3138 -0.2467
13455TIP3   OH261855   2.434   6.596  11.936 -0.7126  0.3041  0.4105
13455TIP3    H161856   2.486   6.533  11.885  0.2409 -0.1359  1.8850
13455TIP3    H261857   2.409   6.663  11.872  0.0320 -0.4876 -0.7471
13456TIP3   OH261858   2.973   0.850  12.664 -0.2213  0.2791 -0.1963
13456TIP3    H161859   2.900   0.910  12.646  0.8900  1.8743  0.5188
13456TIP3    H261860   2.976   0.794  12.587 -1.1700  1.2661 -0.9795
13457TIP3   OH261861   3.750   1.512   4.679  0.6916 -0.2524 -0.0811
13457TIP3    H161862   3.740   1.600   4.714  2.4233  0.1278 -0.5053
13457TIP3    H261863   3.844   1.495   4.683  0.4011 -1.9840 -0.2470
13458TIP3   OH261864   0.483   6.006  12.213  0.1568  0.3761  0.4440
13458TIP3    H161865   0.388   5.996  12.205  0.1224  1.2528 -0.4505
13458TIP3    H261866   0.515   5.996  12.123  0.7972  1.0767  0.5885
13459TIP3   OH261867   4.789   5.396  13.386  0.1682  0.4531 -0.7007
13459TIP3    H161868   4.856   5.332  13.362 -0.7025 -0.7785  0.0818
13459TIP3    H261869   4.809   5.473  13.333  1.5868 -0.2549 -1.2250
13460TIP3   OH261870   6.054   1.252   3.334  0.1290  0.0201 -0.4764
13460TIP3    H161871   6.112   1.204   3.275 -0.0310  1.5568 -1.9509
13460TIP3    H261872   6.014   1.319   3.278 -0.9098  0.7893  1.1441
13461TIP3   OH261873   5.976   1.321   4.290  0.0313 -0.8355 -0.0251
13461TIP3    H161874   5.998   1.347   4.380 -1.3385  1.2632 -0.2565
13461TIP3    H261875   6.015   1.234   4.280  7.0127  2.0373 -0.0257
13462TIP3   OH261876   3.109   1.819   6.093  0.3536  0.1452 -0.2165
13462TIP3    H161877   3.083   1.911   6.085  1.4334  0.3372 -1.8546
13462TIP3    H261878   3.162   1.815   6.172 -1.2311  0.5646  0.8721
13463TIP3   OH261879   2.939   2.581  15.700 -0.2494 -0.2760  0.3330
13463TIP3    H161880   2.947   2.498  15.653 -0.8560 -0.1997  0.0944
13463TIP3    H261881   3.029   2.604  15.723  0.2035  0.3902 -1.9928
13464TIP3   OH261882   4.756   3.544   5.110 -0.2321  0.0652 -0.1403
13464TIP3    H161883   4.799   3.483   5.170  0.4495 -0.7592 -1.4682
13464TIP3    H261884   4.789   3.630   5.137  0.6816 -0.3743  0.1718
13465TIP3   OH261885   1.824   6.001   3.389  0.5205  0.5433 -0.4099
13465TIP3    H161886   1.890   5.940   3.423 -0.4927  0.0507  0.6882
13465TIP3    H261887   1.875   6.067   3.343  1.6051 -1.6070 -2.4179
13466TIP3   OH261888   2.896   5.643  15.261 -0.0523 -0.0577  0.1625
13466TIP3    H161889   2.942   5.658  15.343 -1.3685  0.7884  0.7672
13466TIP3    H261890   2.928   5.713  15.203  0.2600 -0.1519  0.2214
13467TIP3   OH261891   6.197   0.151   6.493 -0.3055  0.0677 -0.3969
13467TIP3    H161892   6.167   0.241   6.482  0.8990  0.4209 -0.8794
13467TIP3    H261893   6.234   0.149   6.581 -0.7943 -0.0850 -0.1974
13468TIP3   OH261894   1.335   1.572   1.913  0.0722  0.8361  0.3070
13468TIP3    H161895   1.325   1.657   1.870  0.7543 -0.4364 -2.5134
13468TIP3    H261896   1.412   1.533   1.871 -1.6681 -2.1736 -0.2804
13469TIP3   OH261897   1.234   4.458   2.783  0.0961 -0.2343  0.4480
13469TIP3    H161898   1.230   4.469   2.688 -1.7082  0.8897  0.6395
13469TIP3    H261899   1.221   4.365   2.797 -0.5747 -0.2674 -0.3616
13470TIP3   OH261900   3.739   2.015   0.848  0.1167 -0.2622  0.3235
13470TIP3    H161901   3.778   2.065   0.919  1.3199 -1.2353  0.3509
13470TIP3    H261902   3.750   2.070   0.770  1.2820 -0.4159  0.3822
13471TIP3   OH261903   2.311   1.703   5.024 -0.2933  0.7054 -0.2350
13471TIP3    H161904   2.307   1.691   5.118 -1.6905 -1.3917 -0.5330
13471TIP3    H261905   2.347   1.622   4.990 -1.3772  0.7830 -1.6292
13472TIP3   OH261906   0.066   3.714   2.232  1.1260  0.2010  1.1472
13472TIP3    H161907  -0.002   3.683   2.172  1.5955  3.2775 -1.1349
13472TIP3    H261908   0.018   3.744   2.309  0.0469  0.4574  0.3898
13473TIP3   OH261909   5.202   1.356  13.274 -0.0237  0.2642 -0.0339
13473TIP3    H161910   5.146   1.281  13.294 -0.8709  1.2948  1.5295
13473TIP3    H261911   5.143   1.431  13.271  0.8616  0.9370 -1.3209
13474TIP3   OH261912   4.439   1.789  11.513  0.2614  0.1030 -0.0554
13474TIP3    H161913   4.472   1.736  11.586 -3.1598  0.9425  2.1999
13474TIP3    H261914   4.483   1.873  11.522 -1.0371  0.6077  1.8216
13475TIP3   OH261915   1.432   3.484   3.983  0.3263 -1.2527 -0.0364
13475TIP3    H161916   1.469   3.419   4.042  3.1795 -0.0012 -0.3513
13475TIP3    H261917   1.374   3.536   4.038  1.0975 -1.6089  1.1297
13476TIP3   OH261918   0.922   5.897   0.930 -0.1828 -0.4447  0.1064
13476TIP3    H161919   0.952   5.870   1.016  1.1078 -1.9536 -0.7926
13476TIP3    H261920   0.860   5.828   0.904 -0.8802  0.2174 -0.0125
13477TIP3   OH261921   5.137   2.685  16.483  0.1296 -0.2636  0.0717
13477TIP3    H161922   5.222   2.679  16.526  0.1041  0.6858  0.2769
13477TIP3    H261923   5.119   2.597  16.451  0.5536 -0.7771  1.2338
13478TIP3   OH261924   0.453   4.512  13.862  0.1086 -0.0247 -0.0212
13478TIP3    H161925   0.503   4.565  13.924 -0.5620  0.2899  0.2534
13478TIP3    H261926   0.421   4.574  13.797  1.0079 -0.3830 -0.8351
13479TIP3   OH261927   2.815   5.548   4.642  0.4431 -0.0898  0.0827
13479TIP3    H161928   2.761   5.474   4.670  1.4689 -1.0003 -0.3719
13479TIP3    H261929   2.787   5.566   4.553  0.8914 -0.5647 -0.1542
13480TIP3   OH261930   1.616   2.950  11.973 -0.5842  0.5959 -0.0697
13480TIP3    H161931   1.653   3.035  11.949 -0.2272  0.1122 -1.3034
13480TIP3    H261932   1.668   2.887  11.923 -0.2881 -0.4107  1.4982
13481TIP3   OH261933   6.509   6.580   4.571  0.3198 -0.3649 -0.1230
13481TIP3    H161934   6.479   6.519   4.638 -0.4302 -0.3497 -0.4448
13481TIP3    H261935   6.431   6.630   4.548  1.1056  1.2723  0.7214
13482TIP3   OH261936   5.956   3.604   2.516 -0.1017  0.2040  1.1465
13482TIP3    H161937   5.885   3.605   2.580  1.4010  0.4509  2.8480
13482TIP3    H261938   6.011   3.679   2.541 -0.5336  1.5135 -1.6508
13483TIP3   OH261939   1.143   1.015  16.684  0.4285 -0.4903  0.2493
13483TIP3    H161940   1.053   0.982  16.681 -0.3445  1.5863 -0.4375
13483TIP3    H261941   1.135   1.105  16.715  2.4596 -0.8375  1.8883
13484TIP3   OH261942   4.462   1.562   4.050  0.6866  0.4611  0.0692
13484TIP3    H161943   4.446   1.580   4.143 -0.2547 -0.1242  0.0265
13484TIP3    H261944   4.428   1.474   4.036  2.2566 -0.0680 -0.4815
13485TIP3   OH261945   6.349   4.838  13.982  0.2479  0.4898 -0.5868
13485TIP3    H161946   6.393   4.807  13.903  1.7260 -2.5700  1.3244
13485TIP3    H261947   6.257   4.818  13.968  0.6634 -1.1689 -1.0523
13486TIP3   OH261948   0.202   3.498   1.216  0.0412  0.1754 -0.3029
13486TIP3    H161949   0.229   3.446   1.139 -0.3339 -0.8822  0.2649
13486TIP3    H261950   0.204   3.588   1.185  0.3271 -0.1990 -1.4375
13487TIP3   OH261951   0.957   5.118   2.464 -0.0424 -0.1155  0.4457
13487TIP3    H161952   0.960   5.204   2.505  0.5814  0.5171 -0.8895
13487TIP3    H261953   0.943   5.137   2.371  0.3869 -1.4452  0.1058
13488TIP3   OH261954   3.033   1.849   5.772  0.3329 -0.3946 -0.3767
13488TIP3    H161955   3.051   1.911   5.843  0.4961 -2.6550  1.6235
13488TIP3    H261956   3.109   1.855   5.714 -0.7067  2.9306 -1.5009
13489TIP3   OH261957   3.936   2.272   6.114 -0.2603  0.3150 -0.3997
13489TIP3    H161958   3.872   2.283   6.185  0.6705  0.2765  0.4493
13489TIP3    H261959   4.006   2.220   6.153  1.1261  1.8422 -0.7878
13490TIP3   OH261960   1.585   4.294   1.335 -0.3548 -0.2028  0.2901
13490TIP3    H161961   1.597   4.297   1.430 -0.7643 -0.7707  0.3581
13490TIP3    H261962   1.534   4.372   1.315 -0.1639 -0.0168  0.5207
13491TIP3   OH261963   5.683   0.457   6.356 -0.1289 -0.2715 -0.4833
13491TIP3    H161964   5.625   0.533   6.358 -1.8551 -1.5897  1.6383
13491TIP3    H261965   5.640   0.396   6.296 -0.5806 -0.9570  0.5229
13492TIP3   OH261966   4.665   5.425  11.067  0.2494  0.0910  0.2094
13492TIP3    H161967   4.590   5.455  11.119 -0.5479  0.2241 -1.0116
13492TIP3    H261968   4.723   5.501  11.064  0.4095  0.0131  1.0863
13493TIP3   OH261969   4.991   2.539  11.930 -0.3571  0.2610  0.3187
13493TIP3    H161970   4.926   2.577  11.872 -1.0523  1.0986  1.6276
13493TIP3    H261971   5.074   2.547  11.882 -0.9925  0.4650 -0.7603
13494TIP3   OH261972   3.483   5.540  16.720  0.2639 -0.4564 -0.1076
13494TIP3    H161973   3.551   5.605  16.705  0.5572 -0.9041 -0.7310
13494TIP3    H261974   3.527   5.469  16.768  0.1887 -0.6549 -0.3325
13495TIP3   OH261975   5.315   4.231  13.429 -0.4318  0.5384 -0.3890
13495TIP3    H161976   5.409   4.246  13.415 -0.1665 -0.7146  0.0215
13495TIP3    H261977   5.276   4.319  13.424  0.9109  1.2024  0.5885
13496TIP3   OH261978   3.526   6.220  11.226  0.4067  0.3885  0.0044
13496TIP3    H161979   3.511   6.134  11.186 -0.8099 -0.6232  2.4865
13496TIP3    H261980   3.544   6.278  11.152  1.6116 -2.0541 -1.7044
13497TIP3   OH261981   0.380   4.584   4.860  0.0669  0.1373 -0.0968
13497TIP3    H161982   0.412   4.661   4.907 -1.4787 -0.1911  1.5441
13497TIP3    H261983   0.407   4.510   4.914  0.8346 -0.4502 -1.2547
13498TIP3   OH261984   6.109   2.162  15.004 -0.1213  0.3092 -0.1629
13498TIP3    H161985   6.134   2.169  14.912 -0.0481  0.1951 -0.1522
13498TIP3    H261986   6.106   2.252  15.035  0.6958  0.2971 -0.0519
13499TIP3   OH261987   0.501   2.143   5.644  0.7574 -0.6184  0.1944
13499TIP3    H161988   0.442   2.100   5.706 -1.2362 -1.2874 -2.0902
13499TIP3    H261989   0.472   2.235   5.644  0.4828 -0.7036 -0.0383
13500TIP3   OH261990   5.884   4.606   5.132 -0.0168  0.6239  0.1810
13500TIP3    H161991   5.931   4.665   5.191 -1.0591  0.4272  1.2144
13500TIP3    H261992   5.859   4.532   5.186 -2.9215  1.4437  0.0714
13501TIP3   OH261993   1.177   2.555   4.323 -0.0395 -0.4157 -0.4046
13501TIP3    H161994   1.090   2.552   4.282  0.2765  1.1325 -1.2177
13501TIP3    H261995   1.218   2.472   4.298 -1.4920 -1.4418  0.4977
13502TIP3   OH261996   3.088   1.604  13.072  0.2048 -0.6918  0.5976
13502TIP3    H161997   3.015   1.662  13.093  2.1006  1.3630  1.6408
13502TIP3    H261998   3.059   1.558  12.993 -1.7726  0.9000  0.3437
13503TIP3   OH261999   6.723   0.289   0.491 -0.2014 -0.2399 -0.0931
13503TIP3    H162000   6.670   0.231   0.546  0.9924  0.1139  1.4756
13503TIP3    H262001   6.679   0.374   0.498 -0.0990 -0.2135  0.2622
13504TIP3   OH262002   6.158   1.433  15.196  0.2323  0.8576 -0.1862
13504TIP3    H162003   6.223   1.491  15.156  0.3280  1.3411  0.6628
13504TIP3    H262004   6.132   1.478  15.277 -1.3625  0.8114 -0.6520
13505TIP3   OH262005   6.554   3.231  15.634 -0.1341  0.0330  0.3790
13505TIP3    H162006   6.514   3.316  15.652 -1.2824 -0.4394  0.1558
13505TIP3    H262007   6.640   3.235  15.675 -0.3473  1.1417  0.7387
13506TIP3   OH262008   1.384   0.462  14.508  0.5966 -0.7095 -1.1161
13506TIP3    H162009   1.397   0.499  14.596  0.7073 -0.3809 -1.2684
13506TIP3    H262010   1.295   0.427  14.510  1.0713 -1.9242 -0.4347
13507TIP3   OH262011   0.916   6.283   6.033 -0.2323  0.6889  0.1721
13507TIP3    H162012   0.925   6.213   6.097  0.1663  0.0941 -0.5401
13507TIP3    H262013   0.827   6.316   6.046  0.5143  1.8915  2.3836
13508TIP3   OH262014   2.914   3.584   0.232  0.0780 -0.3788 -0.4300
13508TIP3    H162015   2.912   3.658   0.292 -3.5045 -0.4760 -0.3183
13508TIP3    H262016   2.957   3.514   0.280  1.3568  0.9214  0.3217
13509TIP3   OH262017   4.109   3.567  11.793  0.2376  0.9046 -0.2409
13509TIP3    H162018   4.178   3.592  11.855  0.2291 -0.1995  0.2260
13509TIP3    H262019   4.063   3.495  11.836 -2.6984  3.1444  0.4571
13510TIP3   OH262020   5.131   6.814   4.491  0.1228  0.4993  0.0259
13510TIP3    H162021   5.070   6.761   4.542 -0.3215  1.6402  0.7004
13510TIP3    H262022   5.215   6.801   4.535 -0.2855  1.5859  1.1356
13511TIP3   OH262023   5.493   6.093   1.061  0.2314  0.2342  0.3503
13511TIP3    H162024   5.466   6.006   1.032 -0.6350  0.5340  0.2438
13511TIP3    H262025   5.503   6.084   1.155  1.3260 -0.2847  0.2016
13512TIP3   OH262026   0.970   1.021   0.332  0.4503 -0.0426 -0.6084
13512TIP3    H162027   1.065   1.038   0.334  0.1516  1.8930 -2.0807
13512TIP3    H262028   0.945   1.017   0.425  1.9651 -0.5670 -0.2071
13513TIP3   OH262029   5.937   5.883   2.057  0.0888  0.1797  0.0285
13513TIP3    H162030   5.899   5.925   1.979 -1.2803  0.6370  0.9279
13513TIP3    H262031   5.883   5.914   2.129  0.8202 -0.9258  1.0562
13514TIP3   OH262032   3.594   1.218   1.504 -1.3355 -0.6735 -0.4641
13514TIP3    H162033   3.527   1.280   1.533 -0.0518  0.3513  0.3766
13514TIP3    H262034   3.602   1.234   1.410  0.4055  1.9072  0.0608
13515TIP3   OH262035   0.437   3.739  15.071 -0.4431  0.7038 -0.4552
13515TIP3    H162036   0.396   3.660  15.037  1.1489 -0.6879  0.7279
13515TIP3    H262037   0.497   3.707  15.139  0.4382  2.9064 -0.1516
13516TIP3   OH262038   3.678   0.382   5.369 -0.0588 -0.3323 -0.5618
13516TIP3    H162039   3.626   0.318   5.320  0.6353 -0.1723 -1.5094
13516TIP3    H262040   3.651   0.467   5.335 -1.2239 -0.0788  0.9322
13517TIP3   OH262041   6.375   1.848  11.704 -0.1228 -0.0169  0.2364
13517TIP3    H162042   6.408   1.763  11.733  0.6992  0.3325  0.3657
13517TIP3    H262043   6.454   1.903  11.699 -0.6371  0.7142  0.0955
13518TIP3   OH262044   1.829   5.852  15.583  0.0986  0.3271 -0.4041
13518TIP3    H162045   1.804   5.763  15.559  0.0649  0.5377 -1.1767
13518TIP3    H262046   1.833   5.851  15.679 -0.9731 -0.2198 -0.3540
13519TIP3   OH262047   3.713   5.187  13.427 -0.1124  0.1933 -0.5049
13519TIP3    H162048   3.678   5.232  13.350  1.0772 -0.1648 -1.2764
13519TIP3    H262049   3.636   5.161  13.477 -0.8819  0.9962 -1.2496
13520TIP3   OH262050   1.181   3.518   2.412  0.3555 -0.1027 -0.5370
13520TIP3    H162051   1.190   3.450   2.479  0.8093 -0.0369 -0.5304
13520TIP3    H262052   1.224   3.594   2.449  0.3603  0.0172 -0.7899
13521TIP3   OH262053   4.044   3.900   3.807 -0.1692 -0.2841 -0.5930
13521TIP3    H162054   4.081   3.861   3.886 -1.4335 -1.5245 -0.5832
13521TIP3    H262055   4.104   3.874   3.737  0.7759  0.5367 -0.1002
13522TIP3   OH262056   4.740   1.972   2.086 -0.1257 -0.0563 -0.1291
13522TIP3    H162057   4.698   2.054   2.061 -1.8879 -0.3630  1.6844
13522TIP3    H262058   4.781   1.991   2.170 -1.1779 -1.2221  0.6578
13523TIP3   OH262059   4.976   3.035  12.120 -0.0279  0.3315  0.0558
13523TIP3    H162060   5.053   3.055  12.067 -0.3984  1.9479  0.1062
13523TIP3    H262061   5.001   2.956  12.169  1.7909  1.1364  0.4595
13524TIP3   OH262062   1.857   5.401  14.236 -0.2226  0.6700  0.3034
13524TIP3    H162063   1.931   5.450  14.271  0.3355  0.6683 -0.8449
13524TIP3    H262064   1.782   5.459  14.249  0.4908  2.0208 -1.3781
13525TIP3   OH262065   6.805   3.802   0.900 -0.4041  0.2768  0.6415
13525TIP3    H162066   6.854   3.771   0.824 -1.4423  0.9315 -0.3152
13525TIP3    H262067   6.714   3.779   0.880 -0.4953 -1.0153  2.4297
13526TIP3   OH262068   0.583   0.990  16.666  0.4950  0.5836 -0.3448
13526TIP3    H162069   0.549   1.022  16.750 -3.0791 -3.1172 -0.1948
13526TIP3    H262070   0.532   1.037  16.600 -0.6214 -0.4808 -0.2597
13527TIP3   OH262071   0.528   0.582  16.303  0.0162 -0.1107  0.7122
13527TIP3    H162072   0.536   0.601  16.210  1.2498 -2.5140  0.3053
13527TIP3    H262073   0.618   0.562  16.331 -0.3208  0.6991  2.4440
13528TIP3   OH262074   5.254   1.174  15.968  0.3033  0.1644 -0.0240
13528TIP3    H162075   5.345   1.172  15.938  0.6243 -1.4463  0.9417
13528TIP3    H262076   5.202   1.156  15.890  0.7172  2.5193 -0.8596
13529TIP3   OH262077   5.955   0.515   2.776  0.2527  0.0187 -0.1162
13529TIP3    H162078   5.928   0.603   2.801 -0.2640 -0.4945  1.2142
13529TIP3    H262079   5.879   0.478   2.732 -0.1162 -0.3034  0.7625
13530TIP3   OH262080   1.117   1.312  15.847 -0.4062 -0.4163  0.1649
13530TIP3    H162081   1.203   1.284  15.880 -0.8738  0.4924  2.2473
13530TIP3    H262082   1.068   1.231  15.835  1.0644 -1.0168 -2.0020
13531TIP3   OH262083   3.043   4.877   3.015 -0.3447  0.3712 -0.1442
13531TIP3    H162084   3.135   4.864   3.037 -0.4755 -3.1898 -1.4590
13531TIP3    H262085   3.044   4.905   2.924 -0.5453  0.8845  0.0096
13532TIP3   OH262086   6.601   5.637  12.141  0.5002 -0.2003 -0.5896
13532TIP3    H162087   6.696   5.627  12.148  0.4451  0.2794  0.9431
13532TIP3    H262088   6.586   5.654  12.048  2.0955  1.6719 -0.5502
13533TIP3   OH262089   0.637   0.323  15.417 -0.2372 -0.0711 -0.3371
13533TIP3    H162090   0.682   0.365  15.489  0.9084 -0.7436 -0.6493
13533TIP3    H262091   0.659   0.230  15.425  0.0302 -0.1385 -1.6193
13534TIP3   OH262092   2.761   4.752   6.240  0.3089 -0.3317 -0.0542
13534TIP3    H162093   2.667   4.764   6.256  0.6177  0.4141  1.3002
13534TIP3    H262094   2.792   4.839   6.216  1.6900  0.8178  5.1860
13535TIP3   OH262095   0.211   5.962  12.569  0.4456 -0.6856 -0.4015
13535TIP3    H162096   0.115   5.958  12.572  0.3980  0.4859 -0.1238
13535TIP3    H262097   0.238   5.946  12.660  0.5989 -2.7174 -0.7799
13536TIP3   OH262098   6.637   5.122  12.357  0.2172  0.5483 -0.1343
13536TIP3    H162099   6.648   5.031  12.332 -1.1397 -0.0105  1.2297
13536TIP3    H262100   6.574   5.157  12.294 -0.4192  0.1261  0.2579
13537TIP3   OH262101   4.939   5.600  13.558 -0.0123  0.3434  0.2418
13537TIP3    H162102   4.932   5.586  13.652 -1.7311 -0.4855  0.0227
13537TIP3    H262103   4.917   5.515  13.519 -0.2332  0.9116 -0.9163
13538TIP3   OH262104   3.361   4.068   2.875 -0.4432  0.3674  0.2831
13538TIP3    H162105   3.270   4.099   2.868  0.2457  2.3491 -0.2889
13538TIP3    H262106   3.375   4.058   2.969 -1.0421  0.7365  0.4178
13539TIP3   OH262107   2.159   1.757   3.552  0.0056 -0.4877  0.5410
13539TIP3    H162108   2.224   1.767   3.483  0.6695 -1.1387  1.0615
13539TIP3    H262109   2.161   1.664   3.574  0.5962 -0.1146  2.1787
13540TIP3   OH262110   6.384   2.990  15.571 -0.6440 -0.0124  0.3149
13540TIP3    H162111   6.314   3.036  15.526 -0.5903  0.8096  1.0584
13540TIP3    H262112   6.438   3.059  15.610  1.8819 -0.5435 -2.1274
13541TIP3   OH262113   1.210   6.311   5.615 -0.7417 -0.0524 -0.0115
13541TIP3    H162114   1.193   6.242   5.679 -0.3572  0.7487  0.9761
13541TIP3    H262115   1.125   6.354   5.603 -0.0852  2.2312  2.8861
13542TIP3   OH262116   4.925   1.018  14.949  0.6779  0.0085 -0.1711
13542TIP3    H162117   4.848   1.001  14.895  1.8297 -0.9215 -1.5407
13542TIP3    H262118   4.956   1.104  14.919 -0.8602  1.2404  1.6524
13543TIP3   OH262119   4.074   3.621  15.725  0.9895  0.2469  0.1406
13543TIP3    H162120   4.096   3.661  15.809  1.2677 -1.0108  0.6824
13543TIP3    H262121   4.040   3.693  15.672 -3.1477  0.3613  2.7386
13544TIP3   OH262122   5.778   3.136  16.221 -0.2994 -0.3312 -0.4395
13544TIP3    H162123   5.716   3.064  16.231 -0.7248 -0.0317 -0.9310
13544TIP3    H262124   5.849   3.100  16.169 -0.3915 -0.4700 -0.4669
13545TIP3   OH262125   2.614   4.615   3.149  0.3157  0.1802  0.6583
13545TIP3    H162126   2.675   4.585   3.080  1.9312 -0.7352  2.4413
13545TIP3    H262127   2.637   4.707   3.162  0.3424  0.2248  0.3137
13546TIP3   OH262128   6.628   0.726  16.844  0.1065 -0.2435  0.0465
13546TIP3    H162129   6.701   0.718  16.783  0.0697  0.0180 -0.0338
13546TIP3    H262130   6.649   0.804  16.896 -0.7163  0.5575 -0.7964
13547TIP3   OH262131   3.117   2.138   3.001  0.0191 -0.2951  0.0380
13547TIP3    H162132   3.131   2.072   2.933 -1.1975 -1.9673  1.3346
13547TIP3    H262133   3.030   2.174   2.982  1.1979  1.8683 -1.3920
13548TIP3   OH262134   3.990   4.076   2.785  0.2405  0.0440 -0.3820
13548TIP3    H162135   3.925   4.108   2.723  1.1142  1.0992 -0.7882
13548TIP3    H262136   4.025   3.996   2.746 -1.1187 -0.7739  0.0562
13549TIP3   OH262137   5.519   4.969  14.909 -0.0688 -0.1284  0.2493
13549TIP3    H162138   5.568   5.051  14.913 -2.1725  1.2327 -0.5282
13549TIP3    H262139   5.575   4.905  14.951  2.7912  1.1019 -1.5770
13550TIP3   OH262140   5.114   5.716  16.888 -0.3797  0.4860  0.2264
13550TIP3    H162141   5.120   5.719  16.793  1.4266  0.1005  0.3049
13550TIP3    H262142   5.170   5.788  16.917  0.4122 -0.4337  1.0164
13551TIP3   OH262143   3.932   4.697  12.285  0.3481  0.2956  0.3103
13551TIP3    H162144   3.902   4.638  12.355  0.6178 -0.0018  0.1805
13551TIP3    H262145   3.888   4.664  12.206 -0.7048  1.2166  0.5010
13552TIP3   OH262146   1.192   3.745  14.448  0.4170 -0.0723 -0.5250
13552TIP3    H162147   1.242   3.811  14.399 -0.1937  0.0306 -1.0272
13552TIP3    H262148   1.236   3.738  14.532  1.0368  0.3067 -0.8182
13553TIP3   OH262149   5.113   6.644   4.226  0.3419  0.2335  0.4805
13553TIP3    H162150   5.092   6.695   4.305 -1.4338 -0.7805  0.6888
13553TIP3    H262151   5.063   6.687   4.156  2.5170  1.6026 -0.2798
13554TIP3   OH262152   0.815   6.794  15.803 -0.3926 -0.2620  0.1732
13554TIP3    H162153   0.833   6.732  15.874 -5.0709 -1.5139  0.4161
13554TIP3    H262154   0.766   6.743  15.739 -0.9573  2.2527 -1.4605
13555TIP3   OH262155   1.181   3.524  12.000 -0.1495  0.4365  0.7698
13555TIP3    H162156   1.137   3.446  11.968 -1.8647  1.5281  0.4488
13555TIP3    H262157   1.159   3.527  12.094 -1.4756  1.4426  0.4349
13556TIP3   OH262158   2.671   6.390  13.976  0.4293  0.0494 -0.0059
13556TIP3    H162159   2.742   6.401  14.039 -0.1380 -2.1743  1.0836
13556TIP3    H262160   2.705   6.329  13.911  0.1733  0.4712 -0.5449
13557TIP3   OH262161   5.519   0.832   5.503 -0.2818  0.1280  0.4218
13557TIP3    H162162   5.569   0.860   5.580 -1.7706 -0.2410  1.5318
13557TIP3    H262163   5.451   0.898   5.493 -1.4387 -1.0076  0.7354
13558TIP3   OH262164   5.982   6.745  13.150 -0.4294  0.1336 -0.4468
13558TIP3    H162165   5.899   6.747  13.197 -0.5422  1.5177 -0.6844
13558TIP3    H262166   6.031   6.674  13.191 -0.4162  1.4813  1.9646
13559TIP3   OH262167   5.613   4.183  16.481 -0.3687 -0.2308  0.0033
13559TIP3    H162168   5.664   4.262  16.463  1.1363 -0.8219  1.5598
13559TIP3    H262169   5.593   4.146  16.395  1.5610  0.1858 -0.6363
13560TIP3   OH262170   5.071   6.802  11.981 -0.5502 -0.3859 -0.4598
13560TIP3    H162171   5.011   6.741  11.937  1.1120 -1.6376 -1.0395
13560TIP3    H262172   5.094   6.866  11.914 -0.4216 -0.5144 -0.5390
13561TIP3   OH262173   5.279   6.478   4.599  0.1777  0.4620 -0.0921
13561TIP3    H162174   5.312   6.555   4.646  1.1276 -0.0347  0.0641
13561TIP3    H262175   5.263   6.509   4.510  0.9981  0.7285 -0.1495
13562TIP3   OH262176   3.261   3.079   4.285 -0.5133  0.3601  0.2236
13562TIP3    H162177   3.316   3.144   4.241 -0.1849  0.7292  1.1801
13562TIP3    H262178   3.189   3.064   4.223  0.8556 -0.4550 -1.2317
13563TIP3   OH262179   4.041   6.221   2.983  0.1943 -0.5599  0.1934
13563TIP3    H162180   4.103   6.155   2.952  3.2151  1.9715  0.5858
13563TIP3    H262181   4.075   6.304   2.949 -3.1285  0.9114  0.2633
13564TIP3   OH262182   2.104   3.675  15.212  0.7013 -0.2454  0.2300
13564TIP3    H162183   2.035   3.731  15.247  1.4516  2.1147 -1.9414
13564TIP3    H262184   2.066   3.636  15.133  0.1861 -2.8777  1.7091
13565TIP3   OH262185   2.475   0.912  14.613  0.3928 -0.0035  0.0570
13565TIP3    H162186   2.428   0.851  14.557 -0.2049 -0.6318  1.2270
13565TIP3    H262187   2.558   0.868  14.632  1.4215  1.0334 -1.8705
13566TIP3   OH262188   0.993   3.388  11.053  0.3579  0.6609 -0.2806
13566TIP3    H162189   1.038   3.402  11.137  1.2328 -0.8265 -0.4761
13566TIP3    H262190   1.058   3.342  10.999 -2.1540 -3.7187  0.2349
13567TIP3   OH262191   5.941   5.350  14.844 -0.0756  0.7849 -0.3263
13567TIP3    H162192   5.870   5.413  14.837  0.8156  1.9641  0.8791
13567TIP3    H262193   5.978   5.345  14.756  0.1503  2.3452 -0.3357
13568TIP3   OH262194   0.847   5.066  11.316  0.2870 -0.0094  0.0448
13568TIP3    H162195   0.834   4.976  11.285 -0.5505 -0.1290  0.7091
13568TIP3    H262196   0.760   5.094  11.345  0.6129  0.8966  0.1571
13569TIP3   OH262197   1.377   4.492   1.302  0.3277 -0.4005 -0.1939
13569TIP3    H162198   1.403   4.533   1.384  1.1147  0.0625 -0.6649
13569TIP3    H262199   1.289   4.525   1.285  0.4427  0.0684  0.1039
13570TIP3   OH262200   5.043   1.445   5.130  0.7500  0.3849  0.1310
13570TIP3    H162201   5.114   1.493   5.174  0.3824  0.0302  1.0988
13570TIP3    H262202   4.963   1.482   5.166  0.4597 -0.8328  0.7415
13571TIP3   OH262203   2.652   4.903   4.254  0.1228  0.0358  0.4128
13571TIP3    H162204   2.686   4.860   4.175 -3.0825 -2.2373  0.1389
13571TIP3    H262205   2.657   4.996   4.235 -0.5485 -0.4727 -2.5143
13572TIP3   OH262206   2.107   1.266  11.787  0.4359 -0.1841 -0.1575
13572TIP3    H162207   2.033   1.233  11.735 -0.1710  1.4394 -0.3504
13572TIP3    H262208   2.166   1.191  11.794 -0.9137 -1.3180 -0.5700
13573TIP3   OH262209   5.090   3.462  16.380  0.2119 -0.6966  0.3401
13573TIP3    H162210   4.998   3.490  16.376  0.1727 -0.5576  1.8636
13573TIP3    H262211   5.135   3.522  16.320 -0.1684  1.4958  2.1671
13574TIP3   OH262212   1.769   1.542  15.345 -0.1631 -0.0929 -0.0243
13574TIP3    H162213   1.676   1.553  15.322  0.1872  1.5479 -0.7589
13574TIP3    H262214   1.808   1.499  15.270 -0.4144 -1.2264  0.4846
13575TIP3   OH262215   5.941   5.927   4.254  0.1174  0.6584  0.3582
13575TIP3    H162216   5.991   5.847   4.239 -2.1354 -0.2491 -2.9573
13575TIP3    H262217   5.989   5.994   4.206 -1.3336 -0.0774 -2.2493
13576TIP3   OH262218   2.770   0.390  10.928  0.2218  0.4201 -0.3415
13576TIP3    H162219   2.782   0.474  10.974  1.2270  0.5349 -0.8126
13576TIP3    H262220   2.799   0.408  10.838 -2.2881  0.3554 -1.1873
13577TIP3   OH262221   1.462   3.206   2.777 -0.4396  0.2071 -0.0576
13577TIP3    H162222   1.540   3.208   2.723 -1.2908 -0.4300 -1.3391
13577TIP3    H262223   1.467   3.123   2.824 -1.7193 -1.1754 -2.2678
13578TIP3   OH262224   0.018   2.966   0.430 -0.7722  0.0114  0.1172
13578TIP3    H162225   0.024   3.005   0.342 -0.7626  0.9873  0.5415
13578TIP3    H262226  -0.063   2.914   0.428  0.6410 -2.1889 -1.3262
13579TIP3   OH262227   2.512   5.948  16.475  0.8813 -0.5400 -0.2833
13579TIP3    H162228   2.581   6.012  16.457  2.1017 -1.1375  2.1248
13579TIP3    H262229   2.558   5.864  16.477 -0.0149 -1.0078  0.7930
13580TIP3   OH262230   2.345   6.673  13.606  0.2534 -0.2664  0.0698
13580TIP3    H162231   2.375   6.646  13.520  0.0457  0.4560 -0.2331
13580TIP3    H262232   2.424   6.703  13.651  0.5180 -1.5161  0.4751
13581TIP3   OH262233   6.241   0.215  11.572  0.5332 -0.1407  0.1132
13581TIP3    H162234   6.282   0.128  11.580  1.3356  0.3699  1.7388
13581TIP3    H262235   6.225   0.242  11.662 -1.2444  0.7030 -0.4425
13582TIP3   OH262236   5.339   3.678   2.650 -0.0462  0.4356  0.3435
13582TIP3    H162237   5.249   3.647   2.648 -0.5467  1.9013 -0.4749
13582TIP3    H262238   5.337   3.756   2.706  0.1793  2.0294 -1.7810
13583TIP3   OH262239   4.685   0.269  16.525 -0.4591  0.5076 -0.4711
13583TIP3    H162240   4.664   0.176  16.512 -0.1694  0.0908  1.9288
13583TIP3    H262241   4.612   0.303  16.577  0.1006  1.3081 -0.2090
13584TIP3   OH262242   6.031   0.225   1.384  0.1538 -0.2043 -0.2751
13584TIP3    H162243   6.090   0.231   1.460  0.6623  1.6144 -0.7769
13584TIP3    H262244   6.090   0.209   1.310 -0.2063 -0.5720 -0.4825
13585TIP3   OH262245   2.706   6.548   4.148  0.3210 -0.2363 -0.1437
13585TIP3    H162246   2.701   6.513   4.237 -0.5365 -3.5675 -1.4502
13585TIP3    H262247   2.615   6.551   4.118  0.5283  1.5715 -0.6921
13586TIP3   OH262248   6.639   1.363   0.876 -0.1466  0.0277 -0.1200
13586TIP3    H162249   6.725   1.323   0.882 -1.3140 -2.7277 -0.7224
13586TIP3    H262250   6.645   1.422   0.801  0.9688 -0.8319 -0.7218
13587TIP3   OH262251   5.527   1.855   5.379 -0.1324  0.0965 -0.3222
13587TIP3    H162252   5.545   1.935   5.428 -1.0652 -0.2538  0.6113
13587TIP3    H262253   5.569   1.785   5.428 -1.1465 -0.2694  0.0473
13588TIP3   OH262254   1.733   4.929   4.789 -0.1567 -0.9224  0.1915
13588TIP3    H162255   1.659   4.973   4.831  0.9646 -0.3880  1.6677
13588TIP3    H262256   1.754   4.984   4.713 -0.5776 -0.4859  0.3919
13589TIP3   OH262257   0.045   3.489  14.346 -0.4313  0.4184  0.0509
13589TIP3    H162258   0.012   3.439  14.421  0.2531  0.5419  0.4412
13589TIP3    H262259  -0.027   3.489  14.283 -1.1906  0.7538  0.9192
13590TIP3   OH262260   2.040   5.445  16.925 -0.1353 -0.0060 -0.0802
13590TIP3    H162261   2.092   5.365  16.932  1.2581  0.9908  1.2104
13590TIP3    H262262   2.029   5.474  17.015 -0.6415  1.2733 -0.5475
13591TIP3   OH262263   0.972   4.223   3.981  0.3245  0.2748  0.1264
13591TIP3    H162264   0.977   4.306   4.027  0.1174  0.8842 -0.9263
13591TIP3    H262265   1.006   4.242   3.893 -1.2704 -0.3393 -0.6509
13592TIP3   OH262266   2.322   6.120  12.744  0.2714 -0.3863 -0.3792
13592TIP3    H162267   2.266   6.121  12.821  1.3806 -0.6647  0.4311
13592TIP3    H262268   2.285   6.052  12.688 -2.8112  2.3369 -1.8200
13593TIP3   OH262269   1.575   1.305  15.145 -0.3147  0.1296  0.3153
13593TIP3    H162270   1.539   1.235  15.091  0.0780  0.0904  0.0994
13593TIP3    H262271   1.605   1.371  15.082  2.5061 -1.0588  0.3523
13594TIP3   OH262272   4.188   0.292   1.570  0.3468  0.1830 -0.3367
13594TIP3    H162273   4.236   0.372   1.548 -2.6925  2.7454  1.9098
13594TIP3    H262274   4.108   0.297   1.518  0.0531 -1.3247 -0.0419
13595TIP3   OH262275   4.501   6.813  12.412  0.2402 -0.3525 -0.3497
13595TIP3    H162276   4.409   6.807  12.437 -0.0145 -0.3267 -1.2824
13595TIP3    H262277   4.530   6.723  12.404 -0.2712 -0.3849 -2.1059
13596TIP3   OH262278   6.240   4.891  15.371 -0.0403  0.2631  0.9261
13596TIP3    H162279   6.219   4.798  15.363 -2.0907  0.7123  0.8206
13596TIP3    H262280   6.155   4.935  15.377  0.8219  2.3179 -1.0478
13597TIP3   OH262281   4.721   1.197  11.644  0.6476  0.2924 -0.1588
13597TIP3    H162282   4.786   1.155  11.700 -0.5948 -3.9933 -1.7496
13597TIP3    H262283   4.765   1.210  11.560 -0.1581 -1.7747 -0.9520
13598TIP3   OH262284   2.032   3.973   0.904 -0.2220 -0.2245  0.7788
13598TIP3    H162285   1.951   4.012   0.873  0.0878  0.3555  0.7040
13598TIP3    H262286   2.005   3.917   0.977 -0.9638 -1.6535 -0.5647
13599TIP3   OH262287   6.224   6.779  12.503 -0.6723 -0.3171  0.0835
13599TIP3    H162288   6.273   6.844  12.554 -2.5419  1.5239 -0.4078
13599TIP3    H262289   6.167   6.831  12.447  0.3801 -2.3245 -2.9463
13600TIP3   OH262290   0.810   3.553  13.992  0.1148 -0.3093 -0.7336
13600TIP3    H162291   0.751   3.481  13.969 -0.3317 -0.3217  0.4401
13600TIP3    H262292   0.818   3.604  13.911  0.1917 -1.5063 -1.4845
13601TIP3   OH262293   2.285   5.200   6.034  0.6962  0.3443  0.4778
13601TIP3    H162294   2.204   5.162   6.002  0.3538  1.6215 -0.1862
13601TIP3    H262295   2.309   5.266   5.969  1.2550  1.2880  1.6014
13602TIP3   OH262296   3.434   2.628   2.794  0.6781  0.1800 -0.2171
13602TIP3    H162297   3.467   2.677   2.719  1.4124 -2.6088 -1.7993
13602TIP3    H262298   3.512   2.590   2.835  0.0284 -0.8819  0.0751
13603TIP3   OH262299   6.266   5.074   5.776 -0.2843  0.5154  0.2484
13603TIP3    H162300   6.231   5.044   5.692  0.2506  1.6652 -0.3954
13603TIP3    H262301   6.244   5.004   5.837 -0.3500 -0.5025 -0.9205
13604TIP3   OH262302   0.934   0.300   5.505 -0.5201 -0.3128  0.3302
13604TIP3    H162303   0.951   0.394   5.510 -1.2209 -0.1428 -0.3734
13604TIP3    H262304   0.958   0.276   5.416 -0.6783 -0.7408  0.4024
13605TIP3   OH262305   1.516   5.267   0.192  0.1231 -0.0347  0.0463
13605TIP3    H162306   1.447   5.210   0.227 -0.2453  0.5520  0.2785
13605TIP3    H262307   1.586   5.207   0.167  0.8453 -0.3783  2.7591
13606TIP3   OH262308   4.287   4.195  14.467 -0.4915 -0.0681 -0.1104
13606TIP3    H162309   4.345   4.121  14.449 -0.1762  0.0760  0.3049
13606TIP3    H262310   4.342   4.256  14.516 -0.3900  0.9806 -1.4951
13607TIP3   OH262311   6.312   3.443   5.769 -0.1255  0.0199 -0.0005
13607TIP3    H162312   6.394   3.398   5.788  0.4870  1.8029  1.7400
13607TIP3    H262313   6.260   3.433   5.848 -1.4341 -0.7181 -0.9357
13608TIP3   OH262314   3.205   5.950  15.891 -0.0725 -0.5487  0.6576
13608TIP3    H162315   3.162   5.959  15.806 -2.3371  0.3035  1.8686
13608TIP3    H262316   3.281   6.008  15.885 -0.6493  0.1165 -0.5061
13609TIP3   OH262317   2.679   2.285   3.952  0.4033 -0.1499  0.3091
13609TIP3    H162318   2.631   2.202   3.947 -1.2321  0.8927 -2.3529
13609TIP3    H262319   2.659   2.319   4.039 -2.3936 -0.5611 -0.1256
13610TIP3   OH262320   5.202   2.011  16.830  0.3788 -0.3381 -0.1329
13610TIP3    H162321   5.109   2.025  16.847  0.8979  2.6143  0.5391
13610TIP3    H262322   5.219   1.921  16.859 -1.6795 -0.0009  2.2726
13611TIP3   OH262323   2.464   1.578  16.095  0.2083  0.3527  0.2672
13611TIP3    H162324   2.545   1.599  16.049  0.1763 -0.7371 -0.3157
13611TIP3    H262325   2.488   1.506  16.154 -0.1567  0.5601  0.6740
13612TIP3   OH262326   2.812   4.888  11.446  0.0040 -0.1927 -0.2981
13612TIP3    H162327   2.719   4.877  11.466 -0.3885  3.0363  0.0008
13612TIP3    H262328   2.857   4.862  11.527 -0.7119 -0.8332 -0.1084
13613TIP3   OH262329   4.060   5.008  11.281  0.0325 -0.1741  0.5389
13613TIP3    H162330   4.080   4.924  11.321 -1.1531 -0.2090  1.0808
13613TIP3    H262331   4.048   5.067  11.356  1.3910  0.6066  0.1509
13614TIP3   OH262332   5.797   4.507  15.449 -0.3743 -0.1279 -0.1604
13614TIP3    H162333   5.862   4.522  15.516 -0.0913 -0.9346 -0.2500
13614TIP3    H262334   5.744   4.434  15.482 -1.4314  0.7202  0.0582
13615TIP3   OH262335   3.679   6.258   0.227  0.4494  0.1956  0.3731
13615TIP3    H162336   3.714   6.177   0.190  2.4281  0.0154  2.4957
13615TIP3    H262337   3.611   6.230   0.287  0.7595  0.1393  0.6991
13616TIP3   OH262338   3.723   0.176   0.699  0.3084 -0.1720  0.3635
13616TIP3    H162339   3.790   0.116   0.730  1.6536  1.6026  0.9665
13616TIP3    H262340   3.708   0.236   0.772 -1.6455 -0.2877  0.0897
13617TIP3   OH262341   1.484   5.857   2.971 -0.0294 -0.4274  0.2079
13617TIP3    H162342   1.422   5.917   3.012 -0.3225 -0.1170 -0.6642
13617TIP3    H262343   1.461   5.771   3.005  0.9911  0.0615  2.1774
13618TIP3   OH262344   0.660   5.398   3.320  0.2452 -0.5278 -0.1289
13618TIP3    H162345   0.598   5.472   3.322 -0.3312 -1.0235  0.6023
13618TIP3    H262346   0.740   5.434   3.358  0.9623  0.6016 -2.6119
13619TIP3   OH262347   3.937   5.614  12.246 -0.0196  0.2396  0.4924
13619TIP3    H162348   3.965   5.530  12.281 -0.4436 -0.1802 -0.1585
13619TIP3    H262349   3.926   5.670  12.323  2.1295  0.2914  0.8039
13620TIP3   OH262350   5.875   6.539   6.373  0.2747  0.6294 -0.1327
13620TIP3    H162351   5.823   6.614   6.403 -1.5745 -0.6915  0.0456
13620TIP3    H262352   5.868   6.542   6.278 -1.2110 -0.2778 -0.0639
13621TIP3   OH262353   3.139   3.449   0.070  0.4436 -0.0793  0.1566
13621TIP3    H162354   3.223   3.402   0.077  0.6321  0.1055 -0.9279
13621TIP3    H262355   3.100   3.439   0.157  0.7804 -1.7047  0.1458
13622TIP3   OH262356   3.518   5.463   5.793  0.0020 -0.5097 -0.0529
13622TIP3    H162357   3.551   5.477   5.882 -0.0143  1.2624 -0.3028
13622TIP3    H262358   3.594   5.478   5.736 -0.4056  0.1614 -0.4312
13623TIP3   OH262359   3.173   4.288  14.440  0.2238 -0.1752 -0.0632
13623TIP3    H162360   3.203   4.376  14.462 -2.8727  0.3565  2.2903
13623TIP3    H262361   3.177   4.240  14.523  0.2103 -1.7571 -0.9592
13624TIP3   OH262362   6.178   4.536   0.033  0.3854  0.3131 -0.2673
13624TIP3    H162363   6.136   4.564   0.114 -0.1802  1.0397 -0.7996
13624TIP3    H262364   6.106   4.505  -0.022  0.9019 -1.2804 -0.0613
13625TIP3   OH262365   4.317   3.119  11.110  0.3036  0.0593 -0.3385
13625TIP3    H162366   4.232   3.138  11.073  0.1634  1.4222  0.6343
13625TIP3    H262367   4.380   3.140  11.041 -0.0465  1.0195 -0.3723
13626TIP3   OH262368   4.931   4.274  14.071  0.1760 -0.2678 -0.2633
13626TIP3    H162369   4.929   4.248  13.979  0.0700  1.9841 -0.9323
13626TIP3    H262370   4.840   4.273  14.098  0.2087 -0.9410 -0.1771
13627TIP3   OH262371   4.246   5.255   1.472 -0.2307  0.0251 -0.2438
13627TIP3    H162372   4.318   5.316   1.488  0.5684 -1.1116  0.6187
13627TIP3    H262373   4.288   5.169   1.463 -1.4561 -0.6357  0.1389
13628TIP3   OH262374   3.504   5.979   4.810 -0.3971 -0.0841  0.5990
13628TIP3    H162375   3.571   6.040   4.840 -0.8613  1.0127 -0.5330
13628TIP3    H262376   3.422   6.015   4.844 -0.7728  0.4317 -0.8379
13629TIP3   OH262377   1.765   0.770   1.410 -0.2271  0.3142 -0.0952
13629TIP3    H162378   1.859   0.768   1.425 -0.3256 -0.4885  0.4566
13629TIP3    H262379   1.743   0.863   1.403  0.4149  0.5490  0.9677
13630TIP3   OH262380   6.392   0.852  13.037  0.5921  0.6639  0.2642
13630TIP3    H162381   6.301   0.877  13.022  1.3242  3.0129 -0.5235
13630TIP3    H262382   6.390   0.757  13.045 -1.6510  0.5098 -1.6932
13631TIP3   OH262383   2.383   4.268   0.809  0.4362  0.0510 -0.0886
13631TIP3    H162384   2.408   4.261   0.717  1.3454 -0.9530  0.2313
13631TIP3    H262385   2.316   4.337   0.810 -1.3891 -1.6053 -1.8778
13632TIP3   OH262386   6.206   4.126  11.453  0.3573 -0.2360 -0.2415
13632TIP3    H162387   6.279   4.188  11.453  0.3598 -0.2420  0.4478
13632TIP3    H262388   6.247   4.040  11.443  0.4862 -0.2867  0.6937
13633TIP3   OH262389   2.433   5.583  17.217 -0.1217 -0.0690 -0.0017
13633TIP3    H162390   2.524   5.555  17.232 -0.0088 -0.2414 -0.9623
13633TIP3    H262391   2.408   5.539  17.136 -1.9027 -2.0214  1.5201
13634TIP3   OH262392   0.557   5.277  16.298  0.4866  0.4653  0.3068
13634TIP3    H162393   0.502   5.249  16.372  0.1460  3.1875  1.1421
13634TIP3    H262394   0.619   5.205  16.286 -1.3216 -1.3084  1.3328
13635TIP3   OH262395   4.735   1.325   0.240 -0.2765  0.2832  0.7622
13635TIP3    H162396   4.766   1.399   0.188  1.0260  0.9133  2.3935
13635TIP3    H262397   4.650   1.302   0.201  0.6982  0.6561 -1.6921
13636TIP3   OH262398   5.934   6.218   0.801  0.5863 -0.4970 -0.0714
13636TIP3    H162399   5.958   6.131   0.767  1.5801  0.2761 -1.4149
13636TIP3    H262400   5.898   6.201   0.888  1.6148 -2.1828  0.0462
13637TIP3   OH262401   3.074   3.119  13.260 -0.4862 -0.3160  0.0494
13637TIP3    H162402   2.987   3.154  13.243 -0.0903 -0.0180 -1.3987
13637TIP3    H262403   3.128   3.153  13.189  0.6395 -1.1703  0.4835
13638TIP3   OH262404   4.189   5.365  12.118  0.3084  0.2273 -0.1437
13638TIP3    H162405   4.197   5.351  12.024  1.3210 -1.1359  0.1400
13638TIP3    H262406   4.118   5.307  12.145 -0.2120  0.8671 -0.1059
13639TIP3   OH262407   0.604   1.074  12.716  0.0195  0.3251 -0.0212
13639TIP3    H162408   0.689   1.055  12.757 -0.8066 -1.7235  0.7906
13639TIP3    H262409   0.539   1.036  12.775 -1.3454 -0.2858 -1.8703
13640TIP3   OH262410   0.106   1.277  16.505 -0.7492  0.2650  0.8269
13640TIP3    H162411   0.099   1.236  16.591 -3.1308 -1.5304 -0.1845
13640TIP3    H262412   0.062   1.361  16.515 -0.8231  0.1552  1.4405
13641TIP3   OH262413   5.231   2.807  15.523  0.4548 -0.1415 -0.2534
13641TIP3    H162414   5.317   2.768  15.508  0.2833  0.3945 -2.8116
13641TIP3    H262415   5.250   2.888  15.570  1.1915 -0.8516  0.6973
13642TIP3   OH262416   2.500   4.226  16.239 -0.1194  0.9461  0.0879
13642TIP3    H162417   2.523   4.154  16.297  0.4701  2.0837  1.3015
13642TIP3    H262418   2.576   4.285  16.242 -1.2170  2.3862  0.3653
13643TIP3   OH262419   4.357   0.975   2.227  0.2582 -0.5282  0.5292
13643TIP3    H162420   4.317   1.055   2.194  0.5735 -0.6497 -0.1482
13643TIP3    H262421   4.428   1.005   2.285  2.6931 -0.2762 -2.4614
13644TIP3   OH262422   3.790   5.097   6.337 -0.1285  0.0922 -0.1433
13644TIP3    H162423   3.839   5.146   6.270  0.1843  0.0593  0.0626
13644TIP3    H262424   3.855   5.077   6.405 -0.1882 -0.8233 -0.3400
13645TIP3   OH262425   5.418   5.842  16.651  0.0679 -0.7301 -0.8832
13645TIP3    H162426   5.381   5.918  16.694  0.6280  0.5119 -2.5632
13645TIP3    H262427   5.513   5.853  16.660  0.2075 -0.1711 -2.8897
13646TIP3   OH262428   3.877   3.146   3.110  0.3046 -0.0428  0.0587
13646TIP3    H162429   3.946   3.131   3.175  0.6515 -1.1723 -0.5592
13646TIP3    H262430   3.883   3.071   3.051  0.6643  1.4583 -1.8756
13647TIP3   OH262431   4.979   6.058  14.520  0.6988  0.1782 -0.0707
13647TIP3    H162432   4.892   6.020  14.507  0.9702 -1.5896  2.7755
13647TIP3    H262433   4.973   6.146  14.482 -2.6569  0.4803  0.9853
13648TIP3   OH262434   1.550   1.875   4.309 -0.2627  0.4477 -0.1147
13648TIP3    H162435   1.559   1.808   4.241  1.7714 -0.1014  0.6334
13648TIP3    H262436   1.509   1.829   4.382  0.5401  0.1651  0.1678
13649TIP3   OH262437   0.894   0.623   4.694  0.0887  0.7427 -0.0186
13649TIP3    H162438   0.943   0.600   4.772 -2.0700  0.0990  1.2016
13649TIP3    H262439   0.870   0.715   4.706  1.1988  1.1302 -0.7323
13650TIP3   OH262440   0.198   6.267  14.677 -0.4763  0.1178  0.8141
13650TIP3    H162441   0.270   6.266  14.740  0.6029  1.3280 -0.3638
13650TIP3    H262442   0.240   6.275  14.592 -1.9232 -1.4700 -0.0833
13651TIP3   OH262443   4.918   6.379  13.806 -0.1815  0.1950  0.2320
13651TIP3    H162444   4.982   6.446  13.786 -1.4439  1.0678 -0.9383
13651TIP3    H262445   4.890   6.345  13.721 -1.7475  0.2979  0.6777
13652TIP3   OH262446   5.640   4.973   5.147 -0.1648  0.2599  0.0711
13652TIP3    H162447   5.606   4.897   5.194  0.8904  0.5638  1.3638
13652TIP3    H262448   5.703   4.936   5.084 -0.5145 -0.0250 -0.1140
13653TIP3   OH262449   3.120   4.721   1.448  0.0581 -0.3917  0.2723
13653TIP3    H162450   3.107   4.627   1.464  0.9942 -0.6892 -0.6487
13653TIP3    H262451   3.199   4.742   1.497  1.7083 -0.8276 -2.1249
13654TIP3   OH262452   1.854   4.795   0.241  0.1636  0.1572 -0.2384
13654TIP3    H162453   1.936   4.759   0.277 -0.6091 -2.2289 -0.7549
13654TIP3    H262454   1.867   4.793   0.146 -0.8119 -1.0972 -0.3627
13655TIP3   OH262455   2.754   3.911  13.466 -0.7585 -0.2121  0.5715
13655TIP3    H162456   2.809   3.976  13.422 -1.6408  0.3906  0.3322
13655TIP3    H262457   2.694   3.881  13.397 -2.1616  0.7424  1.3411
13656TIP3   OH262458   6.747   6.048   4.770  0.1121  0.0947 -0.5585
13656TIP3    H162459   6.820   6.078   4.716 -0.8808  3.2603 -0.2789
13656TIP3    H262460   6.769   6.078   4.858 -0.3905 -1.1047 -0.0148
13657TIP3   OH262461   0.509   5.737   2.951 -0.7581  0.1597  0.2123
13657TIP3    H162462   0.537   5.649   2.927 -1.0424 -0.4583  2.0603
13657TIP3    H262463   0.551   5.754   3.036 -1.5497  1.3888  0.3782
13658TIP3   OH262464   0.901   2.959  12.969 -0.2202 -0.0474 -0.3520
13658TIP3    H162465   0.831   3.011  13.007  1.4798 -0.7317  4.0812
13658TIP3    H262466   0.864   2.872  12.958 -0.4664 -0.1130  0.8769
13659TIP3   OH262467   2.203   0.534  11.237  0.3215  0.5222 -1.0945
13659TIP3    H162468   2.160   0.475  11.174 -0.7506  1.5442 -1.3259
13659TIP3    H262469   2.281   0.565  11.192  1.1224 -1.0052 -0.8308
13660TIP3   OH262470   4.019   5.098   3.622 -0.4468 -0.2171  0.2372
13660TIP3    H162471   3.931   5.068   3.600  0.1266 -2.4335  0.8136
13660TIP3    H262472   4.019   5.105   3.718 -0.4123  1.1367  0.1389
13661TIP3   OH262473   5.906   1.075   5.288 -0.3666  0.2871  0.2326
13661TIP3    H162474   5.993   1.044   5.265  0.0403 -1.4925  3.8017
13661TIP3    H262475   5.846   1.012   5.247  0.1898 -0.6477  0.8354
13662TIP3   OH262476   4.886   3.620  12.878  0.3156 -0.3190 -0.5993
13662TIP3    H162477   4.979   3.612  12.859  0.4604 -0.5845  0.1857
13662TIP3    H262478   4.864   3.709  12.854  0.2711 -0.9264 -2.8678
13663TIP3   OH262479   2.050   0.983  10.745  0.3664  0.4819  0.3515
13663TIP3    H162480   2.106   0.959  10.672  1.5507  0.3072  1.3109
13663TIP3    H262481   2.060   0.912  10.808  2.2200  2.3596  2.2775
13664TIP3   OH262482   4.140   3.299   3.575 -0.2910 -0.3446  0.0372
13664TIP3    H162483   4.190   3.377   3.600 -0.7316 -0.5157  1.5186
13664TIP3    H262484   4.072   3.332   3.516 -0.2484  0.3387  0.3638
13665TIP3   OH262485   2.787   1.253  14.502 -0.3461 -0.0763  0.4661
13665TIP3    H162486   2.850   1.243  14.574 -0.0155 -0.8487  0.0797
13665TIP3    H262487   2.768   1.346  14.499 -0.4349 -0.0500  1.6217
13666TIP3   OH262488   6.223   4.320   3.858 -0.0673  0.1637  0.1548
13666TIP3    H162489   6.218   4.326   3.762  0.8600 -3.9639 -0.2281
13666TIP3    H262490   6.135   4.294   3.885  0.0016  0.0895  0.3059
13667TIP3   OH262491   0.751   5.923   1.645  0.3365 -0.1024 -0.0690
13667TIP3    H162492   0.762   5.978   1.722 -0.5651  0.7702 -0.5520
13667TIP3    H262493   0.752   5.833   1.679  0.8984  0.2386  0.8309
13668TIP3   OH262494   5.229   0.067  15.367 -0.0595 -0.0518 -0.2757
13668TIP3    H162495   5.229   0.107  15.454  1.2089 -1.6801  0.5039
13668TIP3    H262496   5.233   0.141  15.307 -2.8042  1.1846  0.9731
13669TIP3   OH262497   4.260   2.080   0.116  0.3098 -0.0451  0.1006
13669TIP3    H162498   4.270   2.009   0.052  1.1457 -1.1255  1.4227
13669TIP3    H262499   4.167   2.078   0.140  0.0602  0.1505 -0.8063
13670TIP3   OH262500   4.184   3.836  15.886 -0.2231  0.2567 -0.6131
13670TIP3    H162501   4.217   3.901  15.825 -0.1877  0.7606 -0.0643
13670TIP3    H262502   4.213   3.867  15.972  0.4626 -0.8893 -0.4173
13671TIP3   OH262503   2.920   2.847   3.211  0.3452 -0.1699 -0.5111
13671TIP3    H162504   2.938   2.919   3.271 -1.4065 -0.2302  0.0978
13671TIP3    H262505   2.833   2.816   3.234 -1.0606  0.8241 -4.0522
13672TIP3   OH262506   6.573   5.889   5.405 -0.0852 -0.1682 -0.7963
13672TIP3    H162507   6.667   5.893   5.424 -0.4338  1.1746  0.7231
13672TIP3    H262508   6.532   5.930   5.481 -1.8247  0.5870 -2.1391
13673TIP3   OH262509   2.965   4.100   3.419 -0.1960 -0.1165 -0.5064
13673TIP3    H162510   3.056   4.071   3.428 -0.8490 -1.8391  0.6803
13673TIP3    H262511   2.932   4.051   3.344 -1.0569 -1.9107  1.0008
13674TIP3   OH262512   3.882   6.243   1.323 -0.4667 -0.0803  0.3463
13674TIP3    H162513   3.895   6.149   1.335 -1.2408 -0.3142 -0.5829
13674TIP3    H262514   3.965   6.282   1.349  0.4016 -1.1464 -0.7473
13675TIP3   OH262515   3.256   5.481  10.425 -0.2871  0.1744  0.4052
13675TIP3    H162516   3.226   5.572  10.427 -1.4116 -0.2059  1.4798
13675TIP3    H262517   3.196   5.437  10.364  1.0160  0.4069 -1.0590
13676TIP3   OH262518   5.210   4.661  14.341 -0.1925 -0.2939  0.9215
13676TIP3    H162519   5.125   4.670  14.299  1.4614 -0.6106 -2.7039
13676TIP3    H262520   5.243   4.750  14.350  0.4380 -0.3426 -0.7085
13677TIP3   OH262521   3.479   3.984  11.209  0.2280 -0.1646 -0.1595
13677TIP3    H162522   3.414   3.969  11.141  0.2114 -0.6938 -0.0250
13677TIP3    H262523   3.499   3.897  11.244 -1.2686  0.2620  1.9090
13678TIP3   OH262524   0.619   3.862  14.040 -0.1384 -0.2687  0.1704
13678TIP3    H162525   0.635   3.862  14.134  3.3429  0.5291 -0.3297
13678TIP3    H262526   0.699   3.825  14.002 -1.2254 -0.0240 -2.5127
13679TIP3   OH262527   0.297   5.775  13.069 -0.1004 -0.6675 -0.3121
13679TIP3    H162528   0.253   5.858  13.083 -0.3178 -0.5094 -1.8349
13679TIP3    H262529   0.226   5.713  13.050  0.1969 -0.7995 -0.9989
13680TIP3   OH262530   4.941   6.667   4.618  0.1644 -0.0171  0.1799
13680TIP3    H162531   4.926   6.575   4.596 -0.7058  0.3073 -0.6189
13680TIP3    H262532   4.864   6.692   4.668  0.7592  0.0717  1.0540
13681TIP3   OH262533   2.379   0.090   2.517  0.0154  0.1184  0.0595
13681TIP3    H162534   2.301   0.143   2.532  0.8730  1.6021 -0.5601
13681TIP3    H262535   2.450   0.154   2.508  0.6590 -0.9457 -3.4643
13682TIP3   OH262536   4.011   2.978  13.662 -0.1013 -0.4003 -0.4786
13682TIP3    H162537   4.096   3.023  13.666 -0.5589  0.3594  0.8432
13682TIP3    H262538   4.021   2.903  13.722 -0.8389  0.5288  0.8351
13683TIP3   OH262539   1.081   2.184   3.354  0.1779 -0.5425 -0.0165
13683TIP3    H162540   1.086   2.274   3.323  0.9523 -1.0064 -1.2794
13683TIP3    H262541   0.989   2.171   3.376 -0.8429 -0.7911 -4.0524
13684TIP3   OH262542   5.577   4.976   1.279 -0.3305  0.5758  0.1633
13684TIP3    H162543   5.592   4.898   1.225 -2.1559  0.8495 -0.7861
13684TIP3    H262544   5.662   4.994   1.319  0.3251 -1.3947 -0.2742
13685TIP3   OH262545   2.278   5.839   3.510 -0.1040  0.8784  0.4524
13685TIP3    H162546   2.238   5.914   3.465  1.5199  0.7448 -1.2769
13685TIP3    H262547   2.319   5.877   3.588  2.6312  2.2389 -1.5530
13686TIP3   OH262548   3.160   4.312   0.720 -0.0049 -0.1541  0.4775
13686TIP3    H162549   3.100   4.351   0.657 -0.3664 -0.7001  0.4821
13686TIP3    H262550   3.246   4.347   0.696 -0.0838 -0.6493 -0.5593
13687TIP3   OH262551   0.619   5.744  14.027  0.2980  0.3511  0.1995
13687TIP3    H162552   0.567   5.766  14.104 -1.2970  0.0129 -0.7625
13687TIP3    H262553   0.710   5.756  14.055 -0.3250  2.1267  1.5405
13688TIP3   OH262554   6.197   2.233   0.879  0.5619  0.0765  0.3843
13688TIP3    H162555   6.174   2.318   0.916  2.1430 -0.3729  2.5077
13688TIP3    H262556   6.115   2.201   0.841 -0.6851  1.4197  1.8229
13689TIP3   OH262557   3.894   4.567   5.682  0.3875 -0.1986  0.4478
13689TIP3    H162558   3.916   4.516   5.760  2.3649 -0.5151 -0.2675
13689TIP3    H262559   3.974   4.565   5.629 -1.5290 -1.8049 -2.5804
13690TIP3   OH262560   6.115   0.164  12.380  0.1701 -0.2242  0.0497
13690TIP3    H162561   6.054   0.202  12.443  0.3806  0.3277 -0.0764
13690TIP3    H262562   6.083   0.192  12.295  0.9248  0.5530  0.0134
13691TIP3   OH262563   0.478   2.560   3.097 -0.0918 -0.3480  0.3482
13691TIP3    H162564   0.473   2.655   3.104 -0.6523 -0.4282  1.1267
13691TIP3    H262565   0.547   2.544   3.032  2.0259  0.5170  2.3197
13692TIP3   OH262566   2.205   6.706  11.100 -0.0985  0.0833  0.2712
13692TIP3    H162567   2.243   6.637  11.045 -0.4488 -0.2153  0.4020
13692TIP3    H262568   2.280   6.746  11.144  0.1819  0.2975 -0.3941
13693TIP3   OH262569   5.291   3.346   2.572 -0.1011  0.4927  0.0462
13693TIP3    H162570   5.281   3.373   2.663 -0.1479 -2.2039  0.8896
13693TIP3    H262571   5.367   3.395   2.540  1.3478 -0.2639  2.2476
13694TIP3   OH262572   5.690   3.635  11.131 -0.0393  0.1988 -0.5668
13694TIP3    H162573   5.683   3.629  11.036  1.9749  0.5023 -0.7572
13694TIP3    H262574   5.649   3.718  11.154  0.9696  0.9209 -1.3565
13695TIP3   OH262575   0.900   3.038  13.494 -0.4623 -0.1478  0.4614
13695TIP3    H162576   0.860   3.014  13.410 -0.5410 -0.9844  0.7404
13695TIP3    H262577   0.909   3.133  13.489 -1.1807 -0.1063 -0.1840
13696TIP3   OH262578   4.029   4.523   4.919 -0.3757 -0.1320 -0.4341
13696TIP3    H162579   3.951   4.501   4.970 -0.4800 -0.2208 -0.6328
13696TIP3    H262580   4.101   4.513   4.981 -0.6294  1.1355  0.0798
13697TIP3   OH262581   6.577   6.794  16.742 -0.5887 -0.4820 -0.1901
13697TIP3    H162582   6.560   6.834  16.828  0.2273 -0.9255  0.1934
13697TIP3    H262583   6.493   6.797  16.697 -0.1749  3.3348 -0.8816
13698TIP3   OH262584   0.619   5.478  13.929 -0.0404  0.3641  0.8616
13698TIP3    H162585   0.662   5.423  13.995 -0.7544 -0.3565  0.7278
13698TIP3    H262586   0.630   5.567  13.961  1.0649  0.1510  1.1214
13699TIP3   OH262587   6.670   0.877   2.613 -0.2711  0.4279 -0.3908
13699TIP3    H162588   6.667   0.926   2.696 -2.1892  0.7262 -0.6050
13699TIP3    H262589   6.705   0.791   2.637 -1.2205  0.3592  0.8223
13700TIP3   OH262590   2.517   0.563   0.138 -0.2582  0.4392  0.1900
13700TIP3    H162591   2.471   0.646   0.139 -1.5310 -0.2500  0.0007
13700TIP3    H262592   2.473   0.512   0.070 -0.2342 -0.7959  1.0753
13701TIP3   OH262593   0.520   5.503   0.983  0.6350 -0.1631 -0.1675
13701TIP3    H162594   0.553   5.592   1.001  1.9181 -0.2453 -1.9423
13701TIP3    H262595   0.469   5.513   0.903 -0.1714 -0.8377  0.2564
13702TIP3   OH262596   6.675   5.725   2.203 -0.4501  0.7195  0.0470
13702TIP3    H162597   6.685   5.751   2.294 -0.2684  1.1189 -0.0846
13702TIP3    H262598   6.613   5.652   2.205  1.0321 -0.5391  0.6944
13703TIP3   OH262599   3.369   2.351  12.783  0.1155  0.0624 -0.0416
13703TIP3    H162600   3.275   2.335  12.792  0.4912 -0.8799  2.6514
13703TIP3    H262601   3.393   2.397  12.863  2.1129 -0.4720 -0.3082
13704TIP3   OH262602   5.891   1.784   2.875 -0.0485  0.2683 -0.4742
13704TIP3    H162603   5.880   1.878   2.862 -3.1610 -0.1838 -1.4410
13704TIP3    H262604   5.866   1.770   2.967 -3.1661 -0.0687 -1.3232
13705TIP3   OH262605   1.479   3.701   0.616  0.4226 -0.0404  0.7011
13705TIP3    H162606   1.516   3.717   0.702  1.5768  0.8475  0.0485
13705TIP3    H262607   1.492   3.783   0.568 -1.3522 -0.0886  0.0872
13706TIP3   OH262608   4.615   1.454   1.041  0.3364 -0.1852 -0.3113
13706TIP3    H162609   4.651   1.450   0.952 -1.5685 -0.8157 -1.0798
13706TIP3    H262610   4.617   1.363   1.071 -0.0842 -0.1378 -0.1440
13707TIP3   OH262611   4.519   1.033  13.527 -0.1071  0.4422  0.4386
13707TIP3    H162612   4.599   1.085  13.517  0.2905  0.2289  2.4554
13707TIP3    H262613   4.538   0.951  13.482  0.5248  0.6766  0.2637
13708TIP3   OH262614   5.674   4.369   2.064  0.6357 -0.5969 -0.1124
13708TIP3    H162615   5.713   4.283   2.079 -3.6833 -2.2668  2.5373
13708TIP3    H262616   5.658   4.403   2.152 -0.0263  1.8495 -1.1520
13709TIP3   OH262617   3.471   3.093   5.387  0.6915  0.5676 -0.5513
13709TIP3    H162618   3.473   3.177   5.432 -0.7955  0.9115 -1.1043
13709TIP3    H262619   3.383   3.088   5.349  0.3533 -1.7669  0.4627
13710TIP3   OH262620   5.894   1.649  10.832  0.2660  0.3753 -0.3324
13710TIP3    H162621   5.958   1.611  10.772 -0.4840 -0.7861 -0.4120
13710TIP3    H262622   5.809   1.636  10.789 -0.1409  0.8652  0.2983
13711TIP3   OH262623   0.755   0.126  13.791 -0.6413 -0.0432 -0.4309
13711TIP3    H162624   0.679   0.167  13.831  0.4657  1.4413  0.1921
13711TIP3    H262625   0.820   0.120  13.861 -0.0132 -0.8525 -1.0631
13712TIP3   OH262626   0.380   4.357   3.410  0.3045 -0.3547 -0.1169
13712TIP3    H162627   0.388   4.261   3.412  0.5406 -0.3178  0.6718
13712TIP3    H262628   0.421   4.382   3.327  0.8044 -0.8873 -0.0372
13713TIP3   OH262629   1.565   4.986  14.625  0.0876  0.0321 -0.1163
13713TIP3    H162630   1.516   4.979  14.707 -2.2679  1.2486 -1.3588
13713TIP3    H262631   1.599   5.076  14.625 -1.2104  0.5422 -1.1337
13714TIP3   OH262632   5.317   6.483  15.927  0.2573  0.0873  0.0952
13714TIP3    H162633   5.325   6.442  15.841 -1.4350  1.4729 -0.7479
13714TIP3    H262634   5.286   6.412  15.984  1.5614 -0.8797 -0.3768
13715TIP3   OH262635   2.270   6.410   0.286  0.8248 -0.4667  0.7167
13715TIP3    H162636   2.231   6.323   0.276  0.0146 -0.0576  0.3369
13715TIP3    H262637   2.276   6.423   0.381  0.1751 -0.5956  0.7797
13716TIP3   OH262638   4.627   0.126  15.697  0.0731  0.4311 -0.6974
13716TIP3    H162639   4.673   0.058  15.648 -0.0713  0.2103 -0.5291
13716TIP3    H262640   4.694   0.163  15.754 -0.6488 -2.1041  1.9258
13717TIP3   OH262641   3.529   6.292  15.494 -0.4163  0.1534  0.3737
13717TIP3    H162642   3.560   6.225  15.554  0.2370 -0.0240 -0.1532
13717TIP3    H262643   3.569   6.373  15.524 -1.1329  0.2956  0.9554
13718TIP3   OH262644   3.452   0.313   3.957 -0.6022 -0.0599  0.2566
13718TIP3    H162645   3.364   0.298   3.991  0.0460 -0.4102  1.8065
13718TIP3    H262646   3.495   0.367   4.023  0.4307 -0.0942 -0.3707
13719TIP3   OH262647   4.809   2.390  11.560 -0.4047 -0.4445 -0.9434
13719TIP3    H162648   4.895   2.353  11.577 -0.1745 -0.1471 -1.4536
13719TIP3    H262649   4.764   2.388  11.645  0.7055  0.9955 -0.3197
13720TIP3   OH262650   3.494   0.273  14.155  0.5671 -0.3004  0.0851
13720TIP3    H162651   3.521   0.181  14.148 -1.0337 -0.6946 -1.3153
13720TIP3    H262652   3.400   0.271  14.139  0.3542  1.4838  1.0420
13721TIP3   OH262653   5.091   2.412  13.303  0.2103  0.1148  0.4104
13721TIP3    H162654   5.046   2.332  13.332 -1.1964  0.2257 -1.3154
13721TIP3    H262655   5.043   2.483  13.346  1.7826  0.0423  2.3517
13722TIP3   OH262656   1.368   2.210  13.097 -0.3505  0.4639 -0.1996
13722TIP3    H162657   1.343   2.284  13.042 -0.7771  0.9787  0.6807
13722TIP3    H262658   1.288   2.158  13.106 -0.5381  0.8911  0.7114
13723TIP3   OH262659   1.587   5.724   5.599  0.4315 -0.4218  0.2556
13723TIP3    H162660   1.544   5.648   5.639 -2.7972  0.7875 -0.6864
13723TIP3    H262661   1.679   5.717   5.624  0.1743 -4.5635  0.2676
13724TIP3   OH262662   0.701   4.246   0.711 -0.8266 -0.4451 -0.0428
13724TIP3    H162663   0.655   4.262   0.794 -1.4465  1.0226 -0.6473
13724TIP3    H262664   0.727   4.154   0.715 -1.5819 -0.6085  1.4220
13725TIP3   OH262665   0.474   0.040   2.314 -0.0356  0.4697 -0.0387
13725TIP3    H162666   0.538  -0.002   2.372  0.0149  0.6363  0.0250
13725TIP3    H262667   0.408  -0.028   2.299  0.4509  0.1045 -0.5684
13726TIP3   OH262668   1.089   5.566  16.119  0.1505 -0.7104 -0.2528
13726TIP3    H162669   1.004   5.591  16.155  1.4854  0.5698  2.1244
13726TIP3    H262670   1.088   5.601  16.030 -0.4955  2.3250  0.8868
13727TIP3   OH262671   0.527   4.178  11.391 -0.2047  0.6640  0.3124
13727TIP3    H162672   0.489   4.244  11.334 -1.6138 -0.7808 -0.4656
13727TIP3    H262673   0.463   4.167  11.461  1.2154  1.9581  1.8492
13728TIP3   OH262674   0.791   1.434  12.443 -0.1231  0.0331 -0.4895
13728TIP3    H162675   0.829   1.347  12.454  1.3195  0.6489 -0.4126
13728TIP3    H262676   0.830   1.467  12.362  0.2037  1.0269  0.0645
13729TIP3   OH262677   3.251   3.216   2.326  0.3161 -0.0354 -0.1284
13729TIP3    H162678   3.318   3.153   2.299 -0.0230 -0.0470 -0.9292
13729TIP3    H262679   3.278   3.298   2.286  1.6870  0.7427  2.2846
13730TIP3   OH262680   0.534   4.739  14.020 -0.4438  0.5544 -0.5778
13730TIP3    H162681   0.445   4.772  14.018 -0.6822 -0.1488 -1.8600
13730TIP3    H262682   0.589   4.816  14.006 -0.7906  1.1364  1.1360
13731TIP3   OH262683   4.964   1.679  16.990  0.3748  0.3181 -0.2248
13731TIP3    H162684   5.042   1.637  17.026  0.4406 -1.2277 -2.0779
13731TIP3    H262685   4.892   1.641  17.040  0.5777 -0.6825 -0.6731
13732TIP3   OH262686   3.692   0.696  14.752 -0.1075 -0.3206 -0.4922
13732TIP3    H162687   3.707   0.602  14.741  1.3958 -0.0430 -0.9905
13732TIP3    H262688   3.753   0.737  14.691  0.0825  1.0047  0.5632
13733TIP3   OH262689   3.614   1.352   1.759 -0.1084 -0.1505 -0.0509
13733TIP3    H162690   3.648   1.308   1.837 -1.7972 -1.8778 -0.2333
13733TIP3    H262691   3.668   1.317   1.687 -0.1206 -0.3877  0.0530
13734TIP3   OH262692   2.639   3.090   1.682  0.2104  0.4441 -0.2230
13734TIP3    H162693   2.634   3.044   1.766 -1.2065 -0.6869 -0.9060
13734TIP3    H262694   2.589   3.171   1.696 -0.6784 -0.1050 -0.1965
13735TIP3   OH262695   4.300   6.563   3.193 -0.0517 -0.8084 -0.0084
13735TIP3    H162696   4.312   6.514   3.112  0.2976 -0.1575 -0.3638
13735TIP3    H262697   4.305   6.498   3.262  0.5745 -1.2561 -0.4646
13736TIP3   OH262698   3.044   5.215  13.410  0.2661  0.0766  0.4108
13736TIP3    H162699   3.078   5.210  13.499  1.3965  0.8080  0.0442
13736TIP3    H262700   3.091   5.146  13.363 -0.2942 -0.2790  0.3705
13737TIP3   OH262701   1.793   6.501  10.580 -0.0921  0.3928 -0.3556
13737TIP3    H162702   1.700   6.516  10.595 -0.2296 -0.2540 -0.5349
13737TIP3    H262703   1.835   6.582  10.607 -0.9215  1.5613 -2.4182
13738TIP3   OH262704   1.083   4.959   1.497 -0.0372 -0.3140 -0.0293
13738TIP3    H162705   1.132   4.900   1.439 -1.1421 -2.2922  0.9758
13738TIP3    H262706   1.151   5.004   1.547  0.9258  1.3753 -2.7446
13739TIP3   OH262707   0.104   0.725   2.843  0.5092 -0.2453  0.4250
13739TIP3    H162708   0.106   0.801   2.785 -1.6148 -2.4652 -2.6764
13739TIP3    H262709   0.066   0.759   2.924 -0.8254  1.9118 -1.0441
13740TIP3   OH262710   6.263   5.209  11.769  0.1963 -0.0259  0.4013
13740TIP3    H162711   6.287   5.301  11.765  0.6905 -0.1281  0.9646
13740TIP3    H262712   6.195   5.205  11.836 -1.2804  0.2319 -1.0480
13741TIP3   OH262713   0.657   1.900  14.151  0.2793 -0.0781 -0.3395
13741TIP3    H162714   0.673   1.843  14.075 -0.8288 -2.2896  1.0181
13741TIP3    H262715   0.697   1.853  14.225 -1.9037  0.1820  1.0553
13742TIP3   OH262716   3.709   1.959   1.443 -0.5151  0.8103 -0.4868
13742TIP3    H162717   3.617   1.987   1.435 -0.8672 -0.3125 -0.4746
13742TIP3    H262718   3.713   1.877   1.393  0.5879  1.0753 -0.8399
13743TIP3   OH262719   0.970   5.355   3.348  0.1139  0.2246 -0.2745
13743TIP3    H162720   1.007   5.434   3.310 -0.1513  1.3318  1.6517
13743TIP3    H262721   0.974   5.370   3.443  0.7411 -2.3911  0.1534
13744TIP3   OH262722   5.987   0.704   1.008 -0.3074 -0.1170 -0.0133
13744TIP3    H162723   6.015   0.692   0.918 -1.3795  1.3005 -0.5428
13744TIP3    H262724   6.029   0.632   1.056 -0.1865 -1.2091 -1.7289
13745TIP3   OH262725   5.882   3.984  14.185  0.3633  0.4901  0.1666
13745TIP3    H162726   5.889   4.043  14.109  1.1426  0.4552  0.2023
13745TIP3    H262727   5.959   4.006  14.238 -1.3917  2.1351  2.1026
13746TIP3   OH262728   3.864   5.297   5.570 -0.4316  0.6127  0.4326
13746TIP3    H162729   3.934   5.360   5.587 -0.3338  0.5237  0.3587
13746TIP3    H262730   3.909   5.218   5.541 -0.5259  0.3739  0.9221
13747TIP3   OH262731   6.685   5.316   2.683 -0.6516  0.1006  0.3318
13747TIP3    H162732   6.658   5.385   2.622  0.5557 -0.2057 -0.5721
13747TIP3    H262733   6.614   5.253   2.682 -0.2197 -0.3941 -1.5329
13748TIP3   OH262734   5.506   6.662   0.378  0.8193 -0.1548 -0.0493
13748TIP3    H162735   5.515   6.637   0.286  0.8329  2.0274 -0.6601
13748TIP3    H262736   5.456   6.743   0.376  1.9646  0.6171  1.7858
13749TIP3   OH262737   5.747   2.666   2.458 -0.1079  0.2436  0.1466
13749TIP3    H162738   5.809   2.738   2.473  0.5287 -0.4164  0.6967
13749TIP3    H262739   5.801   2.594   2.424 -0.0540 -1.3599  3.4950
13750TIP3   OH262740   0.913   1.995   0.568 -0.7606  0.1048 -0.2010
13750TIP3    H162741   0.865   2.075   0.585 -0.0465  0.7089 -0.9853
13750TIP3    H262742   0.904   1.980   0.474 -0.4450 -0.4386 -0.1517
13751TIP3   OH262743   3.960   5.758  17.028 -0.3351  0.1740  0.0411
13751TIP3    H162744   4.013   5.713  17.094  0.5944 -0.0259 -0.8375
13751TIP3    H262745   3.952   5.848  17.061  2.7123  0.8858 -1.0652
13752TIP3   OH262746   5.728   4.916   0.138 -0.1787 -0.0464 -0.1037
13752TIP3    H162747   5.641   4.908   0.177  0.6123  0.5500  1.8227
13752TIP3    H262748   5.748   4.828   0.107 -0.7074 -0.6107  1.1232
13753TIP3   OH262749   2.507   3.123   2.082 -0.5631  0.2403  0.4779
13753TIP3    H162750   2.502   3.145   2.175 -1.2651 -0.3357  0.5832
13753TIP3    H262751   2.589   3.163   2.052 -1.0460  1.6282  1.0147
13754TIP3   OH262752   2.123   5.777   5.515  0.4919 -0.6924 -0.0651
13754TIP3    H162753   2.064   5.852   5.526  0.6090 -0.3930 -1.3680
13754TIP3    H262754   2.188   5.787   5.585 -0.8814 -0.9220  1.2520
13755TIP3   OH262755   5.998   4.176  16.540  0.2356 -0.3527  0.3318
13755TIP3    H162756   6.016   4.140  16.626 -2.7265  1.4025  1.7717
13755TIP3    H262757   6.022   4.269  16.547 -1.9810  0.2813 -0.0340
13756TIP3   OH262758   2.613   4.719   1.485  0.1360  0.2813  0.5270
13756TIP3    H162759   2.544   4.654   1.475  2.9408 -2.9207  0.8403
13756TIP3    H262760   2.618   4.761   1.399 -0.4784 -1.2733 -0.3018
13757TIP3   OH262761   3.498   1.773  11.679  0.2793 -0.8894 -0.0485
13757TIP3    H162762   3.440   1.703  11.649  1.1319 -1.6824  0.1303
13757TIP3    H262763   3.556   1.790  11.605  0.0507 -0.3366 -0.1066
13758TIP3   OH262764   5.090   2.753   1.767  0.2372 -0.2815 -0.1910
13758TIP3    H162765   5.152   2.714   1.705 -0.9595 -1.9550 -0.3881
13758TIP3    H262766   5.105   2.705   1.849 -1.6677 -1.6677 -0.6022
13759TIP3   OH262767   0.483   6.530  15.849  0.6442  0.1497  0.2635
13759TIP3    H162768   0.504   6.535  15.943  0.3911 -0.0815  0.3342
13759TIP3    H262769   0.568   6.537  15.805  0.5620  2.7677  0.4176
13760TIP3   OH262770   5.239   0.047   1.444  0.2826  0.3660 -0.0324
13760TIP3    H162771   5.306   0.085   1.501  1.7431 -0.8969 -0.8759
13760TIP3    H262772   5.168   0.022   1.504  1.8654 -1.1196  1.2598
13761TIP3   OH262773   4.309   3.866   1.716 -0.0969  0.2248 -0.6669
13761TIP3    H162774   4.327   3.773   1.727  2.0123  0.3583 -2.4656
13761TIP3    H262775   4.237   3.869   1.652 -1.0410 -0.1753  0.3630
13762TIP3   OH262776   3.961   2.133  16.926  0.0349  0.1167  0.5021
13762TIP3    H162777   3.881   2.125  16.977 -1.1715  0.2902 -1.3201
13762TIP3    H262778   3.933   2.124  16.835  2.1177 -0.0865 -0.1561
13763TIP3   OH262779   3.732   0.518  12.157  0.5941 -0.3075 -0.0790
13763TIP3    H162780   3.825   0.513  12.177  0.0280  0.5014  3.0750
13763TIP3    H262781   3.689   0.503  12.241 -2.1148 -0.1141 -1.3750
13764TIP3   OH262782   4.803   5.342   4.406 -0.3430 -0.0741  0.1542
13764TIP3    H162783   4.805   5.368   4.314 -0.6254  1.2943  0.5140
13764TIP3    H262784   4.819   5.423   4.454 -0.7696 -0.6638  1.3237
13765TIP3   OH262785   4.802   4.335   4.300  0.3430 -0.4533  0.4937
13765TIP3    H162786   4.795   4.409   4.361  1.3246  0.2176 -0.1989
13765TIP3    H262787   4.808   4.258   4.357 -1.9168 -0.1376  1.2103
13766TIP3   OH262788   0.174   4.523  16.999 -0.5166  0.0318 -0.2604
13766TIP3    H162789   0.221   4.491  17.076 -1.4147  2.2244  1.2304
13766TIP3    H262790   0.126   4.446  16.967  0.8960 -1.2209  0.5774
13767TIP3   OH262791   6.325   0.288   4.708 -0.2637  0.2668 -0.7691
13767TIP3    H162792   6.420   0.279   4.716 -0.0003 -1.0081 -4.4145
13767TIP3    H262793   6.307   0.377   4.738  1.9771  0.3484  0.4997
13768TIP3   OH262794   5.124   1.867  13.997  0.5302  0.1269  0.1458
13768TIP3    H162795   5.168   1.868  13.912  1.3008 -0.1175  0.5315
13768TIP3    H262796   5.082   1.953  14.003 -1.8011 -0.8545 -1.6289
13769TIP3   OH262797   3.699   3.677  12.101 -0.0554 -0.0161  0.3408
13769TIP3    H162798   3.764   3.725  12.152  1.3000 -0.1209 -1.2653
13769TIP3    H262799   3.643   3.745  12.064 -0.0945  0.1478  0.7008
13770TIP3   OH262800   2.517   3.096  15.007 -0.2116  0.0669 -0.8444
13770TIP3    H162801   2.584   3.136  15.063 -0.7699  0.3073 -0.3387
13770TIP3    H262802   2.436   3.142  15.031 -1.2228 -2.6346  1.0716
13771TIP3   OH262803   2.214   6.421  12.850  0.3435  0.5178  0.3300
13771TIP3    H162804   2.292   6.407  12.797  0.3561 -1.8169  0.9388
13771TIP3    H262805   2.245   6.424  12.940 -0.2141 -0.1375  0.5513
13772TIP3   OH262806   0.234   6.577  11.223  0.2424 -0.3031 -0.2452
13772TIP3    H162807   0.183   6.503  11.190  0.3537 -0.3940 -0.2126
13772TIP3    H262808   0.323   6.559  11.196  0.3373 -0.3836  0.1112
13773TIP3   OH262809   1.935   6.103  14.674 -0.5097  0.5328 -0.1339
13773TIP3    H162810   1.997   6.133  14.740  0.3079  0.1350 -0.7142
13773TIP3    H262811   1.897   6.184  14.639  0.7891  0.8570 -0.8349
13774TIP3   OH262812   5.166   6.025  14.725  0.0020  0.2603  0.2552
13774TIP3    H162813   5.092   6.031  14.665 -0.9913 -1.6165  1.2727
13774TIP3    H262814   5.139   6.075  14.802 -0.0790 -0.1744  0.5079
13775TIP3   OH262815   3.237   6.789   0.184  0.9864  0.2444 -0.2716
13775TIP3    H162816   3.314   6.759   0.233  1.4036  1.4325 -0.1808
13775TIP3    H262817   3.271   6.855   0.124  0.0324  0.7981 -0.2168
13776TIP3   OH262818   1.943   5.439   5.017 -0.1996 -0.4256  0.3995
13776TIP3    H162819   1.983   5.395   4.942 -0.2084 -2.0364  1.3241
13776TIP3    H262820   1.922   5.527   4.985 -1.5406 -1.5475 -1.9184
13777TIP3   OH262821   6.304   0.569  11.185 -0.1967  0.0539 -0.5440
13777TIP3    H162822   6.392   0.592  11.158 -0.2050  0.9385  0.1780
13777TIP3    H262823   6.307   0.474  11.200  0.0762 -0.2809 -2.5673
13778TIP3   OH262824   0.095   5.412   4.246 -0.6007 -0.1620  1.4287
13778TIP3    H162825   0.129   5.344   4.188  3.6628  1.5972  1.6576
13778TIP3    H262826   0.043   5.365   4.310 -1.2942 -2.6924 -0.8754
13779TIP3   OH262827   2.215   3.466  11.562 -0.0822  0.2416 -0.0454
13779TIP3    H162828   2.192   3.382  11.522 -1.3168  0.7388 -0.4221
13779TIP3    H262829   2.162   3.530  11.515 -1.3419  0.8866  2.1674
13780TIP3   OH262830   3.338   1.425   6.159  0.2876  0.2067 -0.3115
13780TIP3    H162831   3.246   1.447   6.142 -0.3827 -1.9313  0.3889
13780TIP3    H262832   3.377   1.417   6.072 -0.0630  1.5538 -0.6090
13781TIP3   OH262833   3.192   0.368  13.138  0.7069 -0.2441 -0.0419
13781TIP3    H162834   3.262   0.386  13.201  1.6298  1.3823 -1.4766
13781TIP3    H262835   3.112   0.398  13.181  1.3452  0.9733  0.3164
13782TIP3   OH262836   4.091   4.975  11.010 -0.5158 -0.3120 -0.6279
13782TIP3    H162837   4.097   4.926  11.092 -1.1176 -0.6262 -0.7714
13782TIP3    H262838   4.097   5.067  11.036 -0.2562 -0.4272 -0.2762
13783TIP3   OH262839   4.036   5.665  10.540  0.1184  0.5906  0.0764
13783TIP3    H162840   4.061   5.707  10.458  0.6022 -0.8690 -0.5381
13783TIP3    H262841   4.025   5.573  10.518  0.9177  0.0584  1.7754
13784TIP3   OH262842   3.619   5.868  16.003  0.2286 -0.3313  0.0682
13784TIP3    H162843   3.660   5.950  16.031  0.4956 -0.1238 -0.9240
13784TIP3    H262844   3.604   5.820  16.085  3.1458 -0.7502  0.4039
13785TIP3   OH262845   1.253   5.362  14.985  0.1497  0.0921  0.0886
13785TIP3    H162846   1.162   5.367  15.016 -0.4465 -1.2348 -1.3664
13785TIP3    H262847   1.293   5.296  15.042  0.0392  0.2213  0.3212
13786TIP3   OH262848   2.954   6.672  10.976  0.2569 -0.2768  0.1994
13786TIP3    H162849   3.018   6.734  11.009  0.5302  0.1134 -1.0324
13786TIP3    H262850   2.908   6.641  11.054 -1.1790  2.8737  0.7166
13787TIP3   OH262851   5.641   4.747   3.533  0.0027 -0.1361 -0.5150
13787TIP3    H162852   5.698   4.816   3.499  0.1150  0.8012  1.5198
13787TIP3    H262853   5.570   4.741   3.469  0.6155  1.0380 -1.3227
13788TIP3   OH262854   1.572   1.441   1.779 -0.1381 -0.2713  0.0397
13788TIP3    H162855   1.628   1.513   1.809  1.1179 -0.7557 -1.1018
13788TIP3    H262856   1.559   1.457   1.686 -2.7582  0.3780  0.4798
13789TIP3   OH262857   5.704   3.558  13.562 -0.1893  0.3608  0.0120
13789TIP3    H162858   5.748   3.516  13.487 -1.6409 -1.0920 -0.0587
13789TIP3    H262859   5.670   3.640  13.526 -1.1522 -0.4748 -1.0238
13790TIP3   OH262860   5.852   0.534   6.077 -0.1555  0.7129 -0.5890
13790TIP3    H162861   5.920   0.504   6.018 -0.0547  2.1378 -1.2218
13790TIP3    H262862   5.844   0.628   6.058 -0.7585  0.9972  1.0021
13791TIP3   OH262863   0.206   0.018  15.554  0.1818 -0.8564  0.7202
13791TIP3    H162864   0.205  -0.063  15.502 -0.1206 -0.9261  0.8328
13791TIP3    H262865   0.145   0.076  15.508 -0.3977 -1.0640  1.2304
13792TIP3   OH262866   2.760   2.487   3.803 -0.3060  0.2652 -0.4800
13792TIP3    H162867   2.813   2.461   3.729  0.7967  1.0435  0.0276
13792TIP3    H262868   2.733   2.405   3.844  1.4770 -0.1320 -0.0600
13793TIP3   OH262869   2.468   1.330   4.585 -0.2579 -0.1234 -0.3562
13793TIP3    H162870   2.381   1.301   4.558  0.2142 -0.4961 -1.4951
13793TIP3    H262871   2.502   1.378   4.510  0.6572 -0.2777 -0.0489
13794TIP3   OH262872   1.131   5.273  13.909  0.2744  0.4915  0.5247
13794TIP3    H162873   1.192   5.200  13.922 -1.4118 -0.8678  1.0073
13794TIP3    H262874   1.143   5.327  13.987  0.0276 -0.3873  1.1799
13795TIP3   OH262875   6.577   2.799   2.505  0.2093  0.1477  0.0076
13795TIP3    H162876   6.504   2.858   2.523 -0.1967  0.5985 -2.8653
13795TIP3    H262877   6.565   2.727   2.568 -2.4364  0.4666 -0.0522
13796TIP3   OH262878   6.598   0.290  14.841 -0.0782  0.4882 -0.6899
13796TIP3    H162879   6.603   0.216  14.902 -0.0912 -1.5574 -3.0663
13796TIP3    H262880   6.505   0.299  14.822 -0.1955  1.9031  0.4606
13797TIP3   OH262881   0.375   0.083  11.941 -0.5372  0.1043 -0.4021
13797TIP3    H162882   0.357   0.132  12.021 -1.0300  0.2781 -0.6223
13797TIP3    H262883   0.408   0.149  11.879  0.1175 -0.0771 -0.2554
13798TIP3   OH262884   0.062   0.117   5.573 -0.0524 -0.0470 -0.3049
13798TIP3    H162885   0.109   0.036   5.594 -0.3404 -0.3818 -0.9524
13798TIP3    H262886  -0.021   0.088   5.537  0.1755  0.5238 -1.3171
13799TIP3   OH262887   1.182   2.340   3.777  0.2074 -0.2630 -0.0267
13799TIP3    H162888   1.151   2.396   3.706  2.7974  1.6824  0.3064
13799TIP3    H262889   1.240   2.277   3.735 -1.6342 -1.9018 -0.2000
13800TIP3   OH262890   2.785   4.665   0.205  0.2592  0.4589 -0.2210
13800TIP3    H162891   2.768   4.571   0.196 -1.6683  0.7221  0.5187
13800TIP3    H262892   2.764   4.702   0.119  0.0157  0.3566 -0.2057
13801TIP3   OH262893   6.179   2.724   0.905  0.2490  0.2341  0.1902
13801TIP3    H162894   6.104   2.772   0.870 -0.9250 -0.0955  2.1844
13801TIP3    H262895   6.242   2.793   0.929  0.8840  0.4853 -2.0533
13802TIP3   OH262896   2.287   3.066   5.346  0.4493 -0.4176  0.0686
13802TIP3    H162897   2.240   3.148   5.330  0.9383 -0.2672 -0.6177
13802TIP3    H262898   2.303   3.066   5.441 -1.1259 -0.5782  0.3476
13803TIP3   OH262899   4.300   1.823   2.625  0.3468  0.3097 -0.5610
13803TIP3    H162900   4.309   1.902   2.679 -1.4388 -0.4513  0.8734
13803TIP3    H262901   4.385   1.815   2.581  1.3584  1.7020  1.0753
13804TIP3   OH262902   5.563   4.436  16.809 -0.5476 -0.0959  0.1351
13804TIP3    H162903   5.625   4.381  16.858  1.6204  1.4804 -0.7394
13804TIP3    H262904   5.501   4.467  16.875  0.5041 -0.4603  1.3244
13805TIP3   OH262905   1.493   5.851  17.243 -0.2840 -0.2114  0.3460
13805TIP3    H162906   1.493   5.940  17.278 -0.1020  0.1463 -0.5440
13805TIP3    H262907   1.582   5.820  17.256 -0.3989 -0.3362  0.8344
13806TIP3   OH262908   1.134   2.056  13.644 -0.7268  0.5001 -0.0079
13806TIP3    H162909   1.145   2.021  13.555 -0.7493  0.7283 -0.0993
13806TIP3    H262910   1.137   2.151  13.633  1.1742  0.5185  0.4762
13807TIP3   OH262911   3.918   2.026  11.077 -0.4642 -0.5820 -0.8643
13807TIP3    H162912   3.944   2.078  11.153  1.5065  0.3002 -2.0985
13807TIP3    H262913   3.894   1.941  11.114 -0.8935  0.2533  0.8755
13808TIP3   OH262914   0.132   2.370   0.574  0.0907 -0.1268  0.2882
13808TIP3    H162915   0.143   2.465   0.581  0.8325 -0.0461 -1.6541
13808TIP3    H262916   0.041   2.354   0.600  0.5851  0.8332  2.7927
13809TIP3   OH262917   1.592   5.981   2.638 -0.2651 -0.2714  0.4568
13809TIP3    H162918   1.590   5.885   2.638  0.5823 -0.2955  1.4497
13809TIP3    H262919   1.649   6.004   2.712  1.2262  0.9499 -1.0398
13810TIP3   OH262920   6.461   6.420   4.796 -0.2864  0.7037  0.0649
13810TIP3    H162921   6.516   6.414   4.874 -1.7107 -2.0074  0.9282
13810TIP3    H262922   6.461   6.331   4.760 -2.5352  1.1089 -1.0004
13811TIP3   OH262923   1.020   2.704  12.038  0.2761 -0.4024  0.1593
13811TIP3    H162924   0.929   2.685  12.013 -0.2069 -0.8707  2.1300
13811TIP3    H262925   1.043   2.782  11.989 -1.0926 -0.4642 -0.6028
13812TIP3   OH262926   1.497   5.335  11.438  0.0343 -0.5481  0.0748
13812TIP3    H162927   1.497   5.424  11.404  0.3899  0.6429  3.0169
13812TIP3    H262928   1.405   5.315  11.453 -0.0389 -0.6192 -0.4832
13813TIP3   OH262929   6.461   4.764  14.436 -0.2764  0.3153  0.0834
13813TIP3    H162930   6.461   4.813  14.518 -1.4169 -1.6268  1.2944
13813TIP3    H262931   6.424   4.825  14.372 -0.6723  1.3979  1.3168
13814TIP3   OH262932   5.250   6.411   6.427  0.2217  0.5873  0.1552
13814TIP3    H162933   5.192   6.364   6.366  0.1623  0.1667  0.5359
13814TIP3    H262934   5.332   6.363   6.424 -0.0252  0.1141  0.9881
13815TIP3   OH262935   1.032   0.434  15.915 -0.5992  0.1628 -1.1076
13815TIP3    H162936   1.080   0.444  15.833  0.4465  2.6633 -0.2505
13815TIP3    H262937   1.100   0.417  15.980 -1.0290  1.8978 -0.1763
13816TIP3   OH262938   4.007   3.675   3.539 -0.3234  0.4279  0.2457
13816TIP3    H162939   3.993   3.635   3.453  1.0236 -0.3451  0.3725
13816TIP3    H262940   4.061   3.612   3.587  1.6018  2.2312  0.5508
13817TIP3   OH262941   3.341   2.816  11.513  0.3263  0.1839 -0.5770
13817TIP3    H162942   3.349   2.902  11.554 -0.7575 -0.1573  0.3654
13817TIP3    H262943   3.272   2.826  11.448  0.4596  0.1290 -0.7263
13818TIP3   OH262944   5.856   1.176  13.217  0.5069 -0.2679  0.5085
13818TIP3    H162945   5.774   1.129  13.229 -0.7377  1.7954  0.1872
13818TIP3    H262946   5.912   1.146  13.289 -1.2067 -0.2066  1.8921
13819TIP3   OH262947   6.543   5.535   3.684 -0.6128 -0.1380 -0.4132
13819TIP3    H162948   6.504   5.479   3.751  0.1342  0.1327  0.2439
13819TIP3    H262949   6.492   5.515   3.605 -1.2194 -0.7650  0.1218
13820TIP3   OH262950   3.620   1.187  15.342  0.6667  0.5611 -0.3872
13820TIP3    H162951   3.691   1.126  15.321  0.5162  0.9192 -1.9495
13820TIP3    H262952   3.658   1.274  15.332 -0.2837  0.7753 -2.3408
13821TIP3   OH262953   6.757   5.651   5.059 -0.3823 -0.6521  0.3188
13821TIP3    H162954   6.731   5.730   5.010 -0.5877 -0.8983  0.0288
13821TIP3    H262955   6.852   5.659   5.067 -0.6108  0.6383  2.0464
13822TIP3   OH262956   3.420   2.478   1.171 -0.1693 -0.1348  0.0616
13822TIP3    H162957   3.371   2.554   1.141 -0.7823 -0.3864  0.4290
13822TIP3    H262958   3.425   2.488   1.266 -1.9193 -1.5405  0.3131
13823TIP3   OH262959   0.691   6.523   1.535  0.2230  0.4306  0.2942
13823TIP3    H162960   0.603   6.484   1.542 -0.3980  1.7240 -0.0765
13823TIP3    H262961   0.692   6.562   1.447  0.9671  0.8798  0.5005
13824TIP3   OH262962   2.000   0.797  11.471 -0.4660  0.3894  0.1620
13824TIP3    H162963   1.925   0.840  11.514 -0.0047  1.4150 -0.0378
13824TIP3    H262964   1.968   0.710  11.447 -2.1064  1.3978 -1.3845
13825TIP3   OH262965   6.184   1.441   3.996  0.5217  0.0335 -0.4287
13825TIP3    H162966   6.148   1.370   3.944  2.3020  0.8377 -2.8766
13825TIP3    H262967   6.270   1.410   4.023  0.5966  0.5735 -0.0383
13826TIP3   OH262968   6.625   5.559  14.288 -0.4224  0.2391  0.6190
13826TIP3    H162969   6.547   5.581  14.338 -1.1177 -2.5558  0.8824
13826TIP3    H262970   6.591   5.519  14.208  0.7263  1.5716 -0.5585
13827TIP3   OH262971   0.304   5.652   4.055  1.0421  0.2321 -0.0980
13827TIP3    H162972   0.359   5.672   4.131  1.7103 -0.2876 -0.4402
13827TIP3    H262973   0.323   5.561   4.035  0.7473  0.3228 -0.7999
13828TIP3   OH262974   0.628   3.761  15.283 -0.1039  0.4942 -0.1533
13828TIP3    H162975   0.715   3.736  15.251  0.0765 -0.1489  0.8073
13828TIP3    H262976   0.642   3.842  15.332  0.0540  0.1343  0.4134
13829TIP3   OH262977   4.478   6.534   4.774 -0.6173  0.6467 -0.0638
13829TIP3    H162978   4.468   6.566   4.864 -2.2608 -0.0110  0.0020
13829TIP3    H262979   4.539   6.596   4.733 -0.3143  1.2812  1.3345
13830TIP3   OH262980   4.413   1.858  15.676  0.4131 -0.6567  0.1759
13830TIP3    H162981   4.459   1.882  15.756  0.2517 -1.1720  0.4234
13830TIP3    H262982   4.377   1.771  15.694 -1.6664  0.2281  0.4074
13831TIP3   OH262983   4.819   1.105  16.243  0.1656 -0.3050 -0.1453
13831TIP3    H162984   4.846   1.083  16.154 -0.2224 -0.9985 -0.0961
13831TIP3    H262985   4.753   1.174  16.231 -1.3583 -1.7789 -0.5231
13832TIP3   OH262986   0.875   3.868   6.342 -0.2115 -0.2935 -0.0410
13832TIP3    H162987   0.950   3.854   6.399  0.6070  1.5633 -0.6400
13832TIP3    H262988   0.812   3.915   6.396  0.6901  1.7517 -0.7026
13833TIP3   OH262989   6.678   0.937   1.654 -0.2890  0.2865 -0.1724
13833TIP3    H162990   6.731   0.900   1.583 -0.6454 -1.3875  0.3964
13833TIP3    H262991   6.735   0.936   1.730 -0.9139 -1.0064  0.3108
13834TIP3   OH262992   4.160   6.708  13.872  0.0442 -0.0989  0.0649
13834TIP3    H162993   4.222   6.714  13.800  2.3715 -1.3990  1.8720
13834TIP3    H262994   4.139   6.615  13.880 -0.8009  0.1235  0.5520
13835TIP3   OH262995   2.889   3.944   0.637  0.2561  0.0996  0.3880
13835TIP3    H162996   2.964   3.894   0.605  0.4953  1.7817 -1.7970
13835TIP3    H262997   2.928   4.011   0.693  0.1612 -0.5707  1.2581
13836TIP3   OH262998   4.592   1.110   3.179 -0.1945 -0.1092  0.0268
13836TIP3    H162999   4.646   1.055   3.235 -1.4458  1.1587  2.5661
13836TIP3    H263000   4.512   1.059   3.166 -1.0129  0.7256  1.6856
13837TIP3   OH263001   4.347   4.077   5.655 -0.1329 -0.5638  0.1417
13837TIP3    H163002   4.442   4.089   5.658 -0.1893 -0.2754  0.9237
13837TIP3    H263003   4.330   4.002   5.713 -0.5358  0.3912  1.2740
13838TIP3   OH263004   0.526   0.569   2.316  0.3837  0.1072 -0.1242
13838TIP3    H163005   0.565   0.482   2.314 -0.7013 -0.3920  0.0557
13838TIP3    H263006   0.535   0.597   2.407 -1.9710 -1.0917  0.5306
13839TIP3   OH263007   0.075   1.637  15.258  0.0641  0.6217 -0.3012
13839TIP3    H163008   0.054   1.617  15.349  2.2817  1.5757  0.4523
13839TIP3    H263009   0.005   1.696  15.230 -0.5367  0.4647  0.8354
13840TIP3   OH263010   0.405   2.425  15.166  0.0666  0.4124 -0.4387
13840TIP3    H163011   0.425   2.421  15.259  1.4738 -0.1959 -0.7546
13840TIP3    H263012   0.383   2.335  15.142  0.7073  0.3662 -0.8870
13841TIP3   OH263013   4.997   6.037   3.902  0.1075 -0.7672  0.4013
13841TIP3    H163014   4.915   6.073   3.870 -0.0947 -0.3615  1.3389
13841TIP3    H263015   4.991   6.045   3.997  0.1766 -3.0393  0.6136
13842TIP3   OH263016   5.776   5.175   3.198 -0.1164  0.0350 -0.5016
13842TIP3    H163017   5.826   5.256   3.203 -2.1320  1.2936 -0.3798
13842TIP3    H263018   5.694   5.194   3.243 -1.2354 -1.5893 -1.8007
13843TIP3   OH263019   1.059   4.015  17.176 -0.0308  0.4823  0.0970
13843TIP3    H163020   0.997   4.031  17.247  1.2466  1.5145  1.0129
13843TIP3    H263021   1.031   4.075  17.106 -1.1591 -0.3826 -0.2129
13844TIP3   OH263022   1.976   6.745  10.584 -0.3135 -0.4409  0.3794
13844TIP3    H163023   2.010   6.834  10.580 -0.7388 -0.2511  0.8827
13844TIP3    H263024   1.889   6.755  10.622 -0.8817 -0.9294 -0.7779
13845TIP3   OH263025   0.087   1.470   6.365 -0.3504 -0.2414 -0.4566
13845TIP3    H163026   0.172   1.479   6.322 -0.5082  0.0236 -0.7179
13845TIP3    H263027   0.057   1.560   6.378  0.4210 -0.2833  1.6823
13846TIP3   OH263028   3.232   1.884   2.455  0.2291 -0.7786  0.2366
13846TIP3    H163029   3.302   1.936   2.494 -1.7868  1.6736  0.7485
13846TIP3    H263030   3.274   1.838   2.382  1.9857  2.1081 -0.6689
13847TIP3   OH263031   2.052   1.792  15.227 -0.0011 -0.6549 -0.1168
13847TIP3    H163032   2.140   1.807  15.262 -0.4076 -1.8237  1.4605
13847TIP3    H263033   2.027   1.875  15.188 -0.4775  1.5139  4.4805
13848TIP3   OH263034   3.375   3.068   4.882 -0.1232  0.5975  0.7929
13848TIP3    H163035   3.467   3.043   4.873 -0.2365  0.9176 -1.6002
13848TIP3    H263036   3.368   3.152   4.837 -2.1080 -0.6973 -1.4510
13849TIP3   OH263037   0.752   3.082  14.384  0.1450 -0.2192  0.2170
13849TIP3    H163038   0.729   3.016  14.449  1.0809  0.3432  1.1263
13849TIP3    H263039   0.669   3.105  14.342 -0.2762 -1.5115  0.3174
13850TIP3   OH263040   0.484   0.902  15.710 -0.0158  0.3626  0.5804
13850TIP3    H163041   0.507   0.910  15.802 -0.6246 -1.4922  0.9226
13850TIP3    H263042   0.534   0.826  15.679 -1.7207 -0.5828  0.0537
13851TIP3   OH263043   0.048   2.585  13.804  0.8011 -0.0198  0.7709
13851TIP3    H163044   0.143   2.574  13.798  0.6743 -0.1817 -1.2486
13851TIP3    H263045   0.036   2.663  13.859  2.2291  2.1013 -1.7830
13852TIP3   OH263046   4.250   6.335  15.072 -0.0557  0.3103 -0.0700
13852TIP3    H163047   4.193   6.412  15.072  0.2088  0.5044  0.4823
13852TIP3    H263048   4.296   6.339  15.155 -1.4052 -1.4640  0.8017
13853TIP3   OH263049   3.313   4.511  14.521  0.7054 -0.9832 -0.1444
13853TIP3    H163050   3.306   4.563  14.601 -1.8723  0.5211 -1.2999
13853TIP3    H263051   3.388   4.548  14.475  0.4466  0.0218  0.2362
13854TIP3   OH263052   2.259   4.005   1.542  0.3999  0.2960 -0.0826
13854TIP3    H163053   2.167   3.981   1.534  0.1004  0.5198  2.2381
13854TIP3    H263054   2.304   3.922   1.556  0.0573  0.4654  2.3632
13855TIP3   OH263055   5.133   2.161  11.816 -0.5039  0.2850  0.5058
13855TIP3    H163056   5.094   2.080  11.849  1.5116 -0.3289  1.4339
13855TIP3    H263057   5.072   2.190  11.748 -1.1062 -2.1807 -0.0841
13856TIP3   OH263058   3.655   5.766  16.667  0.4059  0.8285 -0.0214
13856TIP3    H163059   3.641   5.809  16.751  0.2408  1.2874 -0.2758
13856TIP3    H263060   3.750   5.762  16.656  0.4240  0.9245  0.1069
13857TIP3   OH263061   1.972   5.911   1.154 -0.2620  0.0343 -0.0548
13857TIP3    H163062   1.950   5.957   1.073 -0.2369 -0.0789 -0.1256
13857TIP3    H263063   2.067   5.914   1.159 -0.3494  1.9991  1.1089
13858TIP3   OH263064   3.612   5.412  17.115 -0.0147 -0.5119 -0.3798
13858TIP3    H163065   3.630   5.505  17.101  1.3716 -0.5925  0.7192
13858TIP3    H263066   3.545   5.412  17.183 -2.1488 -0.2776 -2.4173
13859TIP3   OH263067   3.493   5.522  15.684  1.0090  0.3409  0.6585
13859TIP3    H163068   3.458   5.453  15.627  1.6077  0.6037 -0.0329
13859TIP3    H263069   3.579   5.489  15.712  0.5182  0.0067  1.7922
13860TIP3   OH263070   5.992   1.626   3.457  0.0280 -0.8457  1.2306
13860TIP3    H163071   5.965   1.710   3.420  1.2400 -0.2631  1.6532
13860TIP3    H263072   6.013   1.571   3.381  1.0772 -0.1428  1.0148
13861TIP3   OH263073   2.802   0.539  14.574  0.0258  0.1595  0.3626
13861TIP3    H163074   2.777   0.447  14.563 -0.1102  0.2328  0.0541
13861TIP3    H263075   2.887   0.535  14.619  1.7439 -0.2371 -2.6899
13862TIP3   OH263076   5.983   1.419   0.068  0.3963 -0.0503 -0.3380
13862TIP3    H163077   6.020   1.507   0.061  0.5714 -0.1981 -1.4760
13862TIP3    H263078   5.975   1.403   0.162 -0.2682  1.4325 -0.1297
13863TIP3   OH263079   6.483   5.710   1.559  0.0924 -0.3960 -0.1519
13863TIP3    H163080   6.562   5.676   1.602 -0.0419 -2.1741 -1.2240
13863TIP3    H263081   6.457   5.640   1.499 -0.5981  1.3911 -1.9967
13864TIP3   OH263082   4.398   5.939   4.697  0.6560 -0.1418 -0.6477
13864TIP3    H163083   4.347   6.014   4.666 -1.7942 -0.0472  3.2584
13864TIP3    H263084   4.388   5.873   4.628 -3.0000  0.6712 -1.0312
13865TIP3   OH263085   6.206   0.843  16.499  0.0874  0.5832  0.3108
13865TIP3    H163086   6.236   0.753  16.516 -0.5077  0.3586  0.1718
13865TIP3    H263087   6.206   0.851  16.404 -0.8962  0.3827  0.2986
13866TIP3   OH263088   3.879   2.761  11.836  0.0047  0.0597  0.3761
13866TIP3    H163089   3.912   2.845  11.869 -0.0171 -0.1620  0.9544
13866TIP3    H263090   3.806   2.740  11.893  0.4315 -0.6894  0.6458
13867TIP3   OH263091   6.155   2.225  16.024  0.3773 -0.1308  0.5023
13867TIP3    H163092   6.140   2.131  16.018 -0.2391  0.0018 -0.1637
13867TIP3    H263093   6.067   2.263  16.016  1.0397  0.7234 -3.9882
13868TIP3   OH263094   2.867   6.128  12.281  0.6437 -0.0892  0.4036
13868TIP3    H163095   2.822   6.043  12.285 -1.9389  0.9235 -3.7567
13868TIP3    H263096   2.960   6.105  12.275  0.1572 -2.5441  1.4310
13869TIP3   OH263097   5.744   1.466   5.660  0.9805  0.2313  0.2571
13869TIP3    H163098   5.761   1.419   5.579 -2.7358  0.7450 -0.9467
13869TIP3    H263099   5.674   1.416   5.702 -0.7374  2.7694  0.5697
13870TIP3   OH263100   5.807   2.005  16.116  0.2338  0.7972 -0.1557
13870TIP3    H163101   5.893   2.010  16.074  0.7503  0.9824  0.8867
13870TIP3    H263102   5.827   1.980  16.207 -1.0170 -2.1508 -0.6416
13871TIP3   OH263103   3.270   0.179  14.589 -0.5175 -0.2506  0.7736
13871TIP3    H163104   3.335   0.147  14.527 -0.0184  0.8698  0.7051
13871TIP3    H263105   3.214   0.103  14.607  0.2213 -0.9626  0.0923
13872TIP3   OH263106   5.134   2.086   0.502 -0.2996  0.5120  0.6545
13872TIP3    H163107   5.118   2.077   0.408 -1.1094 -1.4578  0.9581
13872TIP3    H263108   5.138   2.181   0.517 -0.2573  0.8475 -1.3369
13873TIP3   OH263109   0.523   5.065   5.670 -0.3192  0.0620 -0.0602
13873TIP3    H163110   0.594   5.075   5.733 -0.2493 -1.0983  0.0652
13873TIP3    H263111   0.487   5.153   5.660  0.1277  0.3836  1.0544
13874TIP3   OH263112   0.801   6.127   1.065  0.1445  0.5653  0.0600
13874TIP3    H163113   0.838   6.046   1.030 -0.2034  0.2807  0.3606
13874TIP3    H263114   0.869   6.161   1.123  0.6218  0.9084 -0.6929
13875TIP3   OH263115   1.847   2.150  14.315  0.1194 -0.6722  0.2076
13875TIP3    H163116   1.905   2.226  14.323 -1.3102  0.5919 -0.9712
13875TIP3    H263117   1.787   2.157  14.389  1.0392 -1.6078  1.0510
13876TIP3   OH263118   6.208   2.731  15.166 -0.2102 -0.4552 -0.4260
13876TIP3    H163119   6.122   2.771  15.152 -0.6620 -0.3156  2.5842
13876TIP3    H263120   6.258   2.755  15.088 -2.4649  0.6186 -1.5846
13877TIP3   OH263121   1.009   3.830  11.568 -0.5367  0.5573 -0.3115
13877TIP3    H163122   0.941   3.895  11.549 -0.9979  0.3720  0.6629
13877TIP3    H263123   1.085   3.881  11.595  0.3550  0.8702 -3.1830
13878TIP3   OH263124   4.024   3.557   5.648  0.2805  0.2686  0.2431
13878TIP3    H163125   4.032   3.462   5.645  1.5182  0.3775 -0.2682
13878TIP3    H263126   4.050   3.581   5.737 -2.5457 -0.0689  1.2042
13879TIP3   OH263127   0.707   0.873  16.915  0.3056 -0.2346  0.4655
13879TIP3    H163128   0.697   0.853  16.821  0.9833  1.4857  0.0085
13879TIP3    H263129   0.800   0.894  16.925  0.2916 -0.7167  1.5835
13880TIP3   OH263130   2.887   3.657   6.050 -0.4394 -0.2475  0.3443
13880TIP3    H163131   2.827   3.582   6.049  0.0819 -0.6634 -0.9626
13880TIP3    H263132   2.929   3.653   6.136 -1.6560 -0.4550  0.9400
13881TIP3   OH263133   4.787   3.614  14.527 -0.6899 -0.0146 -0.2192
13881TIP3    H163134   4.779   3.632  14.620 -1.8509 -3.5276  0.4219
13881TIP3    H263135   4.881   3.599  14.513 -0.4405  1.0578  0.2453
13882TIP3   OH263136   1.616   6.235  16.239 -0.3298  0.8752  0.5277
13882TIP3    H163137   1.660   6.274  16.164 -1.1344 -2.0504 -1.5168
13882TIP3    H263138   1.523   6.244  16.219 -0.5629  0.6549  1.4947
13883TIP3   OH263139   0.031   4.311  13.349 -0.0502 -0.3302 -0.1056
13883TIP3    H163140   0.095   4.260  13.399  0.2892  0.0408 -0.1600
13883TIP3    H263141  -0.004   4.250  13.285 -0.5864 -0.8511  0.6722
13884TIP3   OH263142   5.059   4.768   3.748 -0.1579 -0.7494  0.8019
13884TIP3    H163143   5.115   4.831   3.703  0.4714 -2.5464 -0.9793
13884TIP3    H263144   4.999   4.822   3.800 -2.0726  1.5059 -3.5023
13885TIP3   OH263145   0.190   0.298   1.305  0.2349  0.0072  0.1586
13885TIP3    H163146   0.196   0.207   1.276 -1.0542  0.5889 -2.0678
13885TIP3    H263147   0.281   0.327   1.310  0.6448 -1.2915  0.5618
13886TIP3   OH263148   1.870   5.198   6.195 -0.0853 -0.2061 -0.5106
13886TIP3    H163149   1.947   5.154   6.230 -1.3894 -0.3888  2.3252
13886TIP3    H263150   1.868   5.282   6.240 -2.4885 -0.9272  0.8269
13887TIP3   OH263151   0.319   4.507  14.824  0.7344 -0.0689 -0.2651
13887TIP3    H163152   0.362   4.471  14.747 -0.6777 -1.9063 -0.2587
13887TIP3    H263153   0.241   4.551  14.790  0.3363 -0.5101  0.0685
13888TIP3   OH263154   2.323   6.416   2.263  0.1485 -0.1790  0.4788
13888TIP3    H163155   2.244   6.385   2.219  0.0798 -0.6188  0.9070
13888TIP3    H263156   2.393   6.403   2.199  0.0174 -0.6170  0.4272
13889TIP3   OH263157   1.272   1.354   3.098 -0.9068  0.0713 -0.3806
13889TIP3    H163158   1.245   1.263   3.111  0.2544 -0.3784 -1.0448
13889TIP3    H263159   1.198   1.394   3.054 -0.1834 -1.3875 -3.0370
13890TIP3   OH263160   1.685   3.891  14.790 -0.7009  0.6725  0.6608
13890TIP3    H163161   1.652   3.809  14.755  2.3321 -0.7952  1.0074
13890TIP3    H263162   1.687   3.877  14.885  2.6347 -0.0510  0.5392
13891TIP3   OH263163   1.893   2.882   4.621 -0.3003  0.1296 -0.4967
13891TIP3    H163164   1.952   2.855   4.692  0.6359  0.2783 -1.2135
13891TIP3    H263165   1.907   2.976   4.612 -3.2131  0.8707  1.6750
13892TIP3   OH263166   1.717   0.353  16.474  0.3565  0.1336 -0.5406
13892TIP3    H163167   1.699   0.444  16.454  0.8359  0.1820 -0.7727
13892TIP3    H263168   1.731   0.351  16.569 -2.6517 -0.2273 -0.0771
13893TIP3   OH263169   5.435   4.086   2.788  0.2415  0.6365 -0.1558
13893TIP3    H163170   5.375   4.128   2.727  0.2985 -1.7625 -1.9340
13893TIP3    H263171   5.475   4.158   2.837 -3.1793  2.3394  0.2325
13894TIP3   OH263172   5.745   0.587   1.294  0.1978  0.1399  0.3113
13894TIP3    H163173   5.781   0.515   1.346  1.7400  1.0284  0.5235
13894TIP3    H263174   5.656   0.560   1.274  0.5249 -1.5140  0.9762
13895TIP3   OH263175   3.444   2.959  15.936 -0.0339  0.0567  0.6194
13895TIP3    H163176   3.385   3.031  15.915 -2.4235 -1.6659  1.1921
13895TIP3    H263177   3.405   2.918  16.014  1.6537 -1.4194  0.7180
13896TIP3   OH263178   0.603   4.850   0.633  0.0743  0.0358 -0.2623
13896TIP3    H163179   0.693   4.878   0.651  0.0960 -0.2258  0.0325
13896TIP3    H263180   0.549   4.924   0.662  0.3275  1.3169 -2.8823
13897TIP3   OH263181   2.172   2.545  12.619 -0.7992 -0.0500  0.2169
13897TIP3    H163182   2.232   2.473  12.600  0.9373  1.5680 -0.5982
13897TIP3    H263183   2.086   2.512  12.593  0.0093 -1.7198 -0.3986
13898TIP3   OH263184   0.323   1.403  11.736 -0.4209 -0.3468  0.3829
13898TIP3    H163185   0.418   1.417  11.735 -0.1382 -2.1892 -0.1047
13898TIP3    H263186   0.298   1.405  11.644 -0.7422 -0.6247  0.4664
13899TIP3   OH263187   0.003   5.468   6.258 -0.3180  0.1928 -0.1949
13899TIP3    H163188  -0.082   5.484   6.300  0.3299  1.9870  0.4737
13899TIP3    H263189   0.041   5.555   6.247  0.6627 -0.4490 -2.1501
13900TIP3   OH263190   4.444   6.162  12.246 -0.2276  0.3069  0.2911
13900TIP3    H163191   4.438   6.219  12.170  0.5526  0.5729  0.4223
13900TIP3    H263192   4.372   6.189  12.303 -1.5098 -0.6482 -0.8413
13901TIP3   OH263193   1.786   5.581  15.458  0.2604  0.0164  0.1791
13901TIP3    H163194   1.835   5.501  15.479  2.9518  0.7153 -2.9198
13901TIP3    H263195   1.700   5.550  15.429  0.7159 -1.6529  0.5580
13902TIP3   OH263196   3.254   0.674   4.772  0.0867 -0.1861  0.6218
13902TIP3    H163197   3.200   0.737   4.820  0.7464 -0.7157  2.0961
13902TIP3    H263198   3.297   0.726   4.704 -1.7811  0.3545 -0.1852
13903TIP3   OH263199   1.215   1.413   2.592  0.2291  0.2664  0.3824
13903TIP3    H163200   1.236   1.369   2.674 -3.1763 -0.9158  0.7008
13903TIP3    H263201   1.170   1.346   2.540  0.3922  1.6345 -1.5505
13904TIP3   OH263202   1.031   0.696  16.885 -0.4337  0.3458 -0.3805
13904TIP3    H163203   1.117   0.658  16.904 -0.4597  0.3928 -0.1726
13904TIP3    H263204   1.003   0.736  16.967 -1.4781 -1.2764  0.0837
13905TIP3   OH263205   2.761   3.143  13.225  0.5941  0.5419 -0.2861
13905TIP3    H163206   2.757   3.149  13.320 -0.3066 -0.8798 -0.2184
13905TIP3    H263207   2.678   3.103  13.199  1.6848 -1.0486 -1.4849
13906TIP3   OH263208   5.668   1.909  13.379  0.4720  0.6039  0.4826
13906TIP3    H163209   5.699   1.971  13.444  2.0261 -0.6083  0.9332
13906TIP3    H263210   5.659   1.826  13.427  0.8127 -0.1001 -0.6542
13907TIP3   OH263211   1.253   2.406   0.531 -0.7038 -0.2274 -0.4467
13907TIP3    H163212   1.203   2.373   0.456  0.4859 -0.1322 -1.2964
13907TIP3    H263213   1.241   2.340   0.599 -0.8285 -0.9005 -1.1124
13908TIP3   OH263214   0.679   2.023  15.050  0.3949  0.3947  0.3746
13908TIP3    H163215   0.769   2.033  15.081  0.4087  0.7605  0.2131
13908TIP3    H263216   0.673   2.081  14.974  0.3496 -0.4524 -0.2791
13909TIP3   OH263217   4.582   5.101   2.813  0.0546  0.3898  0.2654
13909TIP3    H163218   4.503   5.064   2.773 -0.2164  3.4645 -2.2573
13909TIP3    H263219   4.559   5.110   2.906 -0.4688 -3.8942  0.6620
13910TIP3   OH263220   5.997   4.014  16.037 -0.0283  0.2880 -0.0235
13910TIP3    H163221   6.087   3.996  16.064 -0.2921 -0.8103  0.1533
13910TIP3    H263222   5.964   4.076  16.103  0.7146  1.0032 -0.3152
13911TIP3   OH263223   0.104   6.457   3.008  0.5612  0.2964  0.1762
13911TIP3    H163224   0.078   6.366   2.995 -1.6188  1.1074 -1.3570
13911TIP3    H263225   0.093   6.472   3.102 -1.2305 -0.4014  0.0867
13912TIP3   OH263226   3.933   2.764   3.946 -0.2477 -0.3159 -0.2781
13912TIP3    H163227   3.877   2.840   3.928  2.3805  2.1195  1.4669
13912TIP3    H263228   4.013   2.781   3.896 -0.0692 -2.5886 -0.8264
13913TIP3   OH263229   2.870   2.510  14.687 -0.2701  0.7150  0.0613
13913TIP3    H163230   2.869   2.457  14.766 -1.0824  0.4317 -0.1283
13913TIP3    H263231   2.917   2.589  14.711  1.4095 -0.3012  0.2144
13914TIP3   OH263232   0.617   2.812   1.739 -0.0703 -0.4844  0.3193
13914TIP3    H163233   0.698   2.766   1.759 -0.8084 -0.9287  2.3464
13914TIP3    H263234   0.557   2.744   1.709  0.3685 -0.1102 -1.5089
13915TIP3   OH263235   3.152   2.113  14.913 -0.4874 -0.1368  0.0056
13915TIP3    H163236   3.067   2.090  14.951 -1.1062  0.5471 -0.9348
13915TIP3    H263237   3.163   2.050  14.841 -0.2752 -0.1217  0.0267
13916TIP3   OH263238   0.885   5.020  11.596  0.0730  0.1683  0.3034
13916TIP3    H163239   0.969   5.065  11.601  1.3930 -2.2621  0.6481
13916TIP3    H263240   0.878   4.991  11.505 -1.3769  2.1499 -0.2456
13917TIP3   OH263241   1.091   0.018  17.029  0.1171 -0.1133 -0.6365
13917TIP3    H163242   1.087   0.003  17.124  3.2323  0.0307 -0.4402
13917TIP3    H263243   1.167  -0.032  17.000 -0.4867  0.2871 -2.9948
13918TIP3   OH263244   0.158   5.682   3.792 -0.1463  0.0136 -0.3200
13918TIP3    H163245   0.192   5.745   3.856  1.5998 -1.1352 -0.0885
13918TIP3    H263246   0.198   5.599   3.816  1.1962 -0.2966 -3.3613
13919TIP3   OH263247   0.860   1.848   4.483 -0.2390 -0.0889 -0.0466
13919TIP3    H163248   0.851   1.906   4.559  0.1919  1.6833 -1.3176
13919TIP3    H263249   0.799   1.776   4.500 -1.8543  1.4649  0.8920
13920TIP3   OH263250   1.425   4.272   4.279  0.2740  0.6966  0.4280
13920TIP3    H163251   1.419   4.236   4.367  0.2398 -0.2401  0.0488
13920TIP3    H263252   1.485   4.214   4.233 -0.3841  0.6644 -0.4135
13921TIP3   OH263253   4.255   4.390   4.449 -0.0398 -0.3675 -0.0300
13921TIP3    H163254   4.310   4.445   4.504 -0.9834 -0.2266  0.7837
13921TIP3    H263255   4.189   4.449   4.414  0.2865 -0.5454 -0.9594
13922TIP3   OH263256   1.995   6.144   5.800 -0.7845  0.8269  0.0013
13922TIP3    H163257   1.974   6.106   5.715 -1.0866  2.2731 -0.5927
13922TIP3    H263258   2.079   6.105   5.824 -0.2998  1.0017 -1.3438
13923TIP3   OH263259   0.613   4.681   0.346 -0.6372 -0.6184 -0.3723
13923TIP3    H163260   0.582   4.600   0.306 -0.7230  0.0624 -1.6994
13923TIP3    H263261   0.545   4.746   0.325 -0.8310 -0.3047  1.1253
13924TIP3   OH263262   2.510   6.754  14.098  0.1625 -0.1822 -0.6043
13924TIP3    H163263   2.425   6.721  14.127  0.4226  0.2016  0.6172
13924TIP3    H263264   2.515   6.842  14.134  1.0705 -0.1942 -0.6904
13925TIP3   OH263265   6.520   0.393   0.244 -0.4865  0.2528 -0.0966
13925TIP3    H163266   6.487   0.307   0.271 -0.5244 -0.1383 -1.3704
13925TIP3    H263267   6.513   0.446   0.323 -0.0026 -1.0424  0.8450
13926TIP3   OH263268   2.441   2.871  15.687  0.2288 -0.3495  1.0760
13926TIP3    H163269   2.409   2.939  15.747  0.8938  0.5160  0.4530
13926TIP3    H263270   2.386   2.795  15.706  0.0044  0.1122  2.3408
13927TIP3   OH263271   0.201   5.544  14.909 -0.1849 -0.1601  0.5266
13927TIP3    H163272   0.157   5.628  14.907 -0.0960 -0.1316 -0.8283
13927TIP3    H263273   0.294   5.566  14.912 -0.1598 -0.1958  0.1246
13928TIP3   OH263274   4.450   4.331  14.743  0.4036 -0.4037 -0.6996
13928TIP3    H163275   4.386   4.403  14.741 -0.5731 -1.2393  0.0484
13928TIP3    H263276   4.464   4.315  14.836  1.1890 -0.6931 -0.8688
13929TIP3   OH263277   4.250   1.559   6.096  0.3828  0.3733  0.3297
13929TIP3    H163278   4.209   1.475   6.080  0.4784  0.0356  1.8438
13929TIP3    H263279   4.181   1.612   6.137  0.3048  1.0521 -0.6650
13930TIP3   OH263280   0.994   5.907   3.684  0.0323  0.0071 -0.3848
13930TIP3    H163281   0.941   5.863   3.617  0.4908 -0.0145 -0.7406
13930TIP3    H263282   0.945   5.894   3.765 -0.8314  0.5560 -0.8108
13931TIP3   OH263283   6.733   1.453  15.090 -0.2023  0.2425  0.3600
13931TIP3    H163284   6.806   1.453  15.152  0.8260  0.1881 -0.8359
13931TIP3    H263285   6.721   1.545  15.067 -1.8022  0.4730  2.0371
13932TIP3   OH263286   3.506   4.867   5.965  0.1840  0.4550 -0.4466
13932TIP3    H163287   3.426   4.901   6.005 -0.3157  1.3709 -2.1759
13932TIP3    H263288   3.577   4.909   6.014 -0.2611 -2.7214  3.1821
13933TIP3   OH263289   3.255   3.039   3.106 -0.0134 -0.1181  0.1621
13933TIP3    H163290   3.230   3.131   3.117  0.9450  0.3408 -1.3458
13933TIP3    H263291   3.172   2.992   3.097 -0.4437  1.0612 -2.4861
13934TIP3   OH263292   3.183   5.501  16.430 -0.5767 -0.1598  0.1674
13934TIP3    H163293   3.227   5.577  16.468 -1.3408 -0.0154  0.7696
13934TIP3    H263294   3.222   5.491  16.343  1.1320 -0.4227  0.9301
13935TIP3   OH263295   4.133   4.301   3.043 -0.2517  0.3845  0.2586
13935TIP3    H163296   4.138   4.262   2.956  0.2503  1.1887 -0.0699
13935TIP3    H263297   4.223   4.295   3.077 -0.0755  1.6873  0.0233
13936TIP3   OH263298   4.992   4.594   0.492 -0.3743 -0.2950  0.1498
13936TIP3    H163299   5.055   4.666   0.484 -3.7307  3.1046  2.7956
13936TIP3    H263300   4.919   4.619   0.435 -1.4323 -1.8362  0.7932
13937TIP3   OH263301   4.101   0.540  14.818  0.0026  0.0734  0.2980
13937TIP3    H163302   4.047   0.617  14.801  0.5049  0.0476 -1.5598
13937TIP3    H263303   4.189   0.566  14.790  0.4304 -0.7456  0.8551
13938TIP3   OH263304   4.173   3.549   1.205  0.3554 -0.6448  0.0638
13938TIP3    H163305   4.116   3.474   1.225  1.2286 -1.4711 -0.5049
13938TIP3    H263306   4.261   3.512   1.201  0.9857  0.6788  1.2669
13939TIP3   OH263307   3.407   5.284  15.578  0.3689  0.3088 -0.5729
13939TIP3    H163308   3.463   5.254  15.507  1.3643 -0.1756  0.4117
13939TIP3    H263309   3.383   5.204  15.625 -1.5842  0.4384 -1.2851
13940TIP3   OH263310   6.787   2.452  15.179 -0.2346  0.3405  0.0044
13940TIP3    H163311   6.855   2.495  15.231 -1.0798  2.0431 -0.2524
13940TIP3    H263312   6.819   2.455  15.089 -0.1791  0.1977  0.0198
13941TIP3   OH263313   2.623   3.765   3.026  0.3904 -0.1316  0.1381
13941TIP3    H163314   2.622   3.854   3.059 -0.1076  0.1467 -0.6196
13941TIP3    H263315   2.531   3.738   3.027  0.4344 -0.3085 -0.5091
13942TIP3   OH263316   4.988   3.617  11.660  0.5806  0.0799  0.1623
13942TIP3    H163317   4.959   3.535  11.699  1.4271  1.0617  2.9658
13942TIP3    H263318   4.908   3.662  11.635  0.0557 -0.8600  0.1407
13943TIP3   OH263319   4.739   1.711   1.954  0.2406  0.4226 -0.0218
13943TIP3    H163320   4.723   1.626   1.995 -1.1629  0.2482 -0.9134
13943TIP3    H263321   4.711   1.774   2.019  2.3334  0.2659  1.1014
13944TIP3   OH263322   5.129   5.163   1.502  0.2938 -0.2902  0.6502
13944TIP3    H163323   5.058   5.168   1.438  0.9353  0.9226  0.0341
13944TIP3    H263324   5.101   5.220   1.573  0.8297  0.4978  0.2316
13945TIP3   OH263325   6.002   6.467  15.047  0.4945 -0.7390  0.4325
13945TIP3    H163326   5.917   6.427  15.068 -0.0631 -1.0173 -2.1074
13945TIP3    H263327   6.010   6.541  15.108 -2.0536 -0.1149  0.0720
13946TIP3   OH263328   4.303   2.765  15.759 -0.1995  0.3585 -0.2950
13946TIP3    H163329   4.393   2.736  15.744  0.3599  0.8278  2.0778
13946TIP3    H263330   4.258   2.686  15.791  0.0397  0.7761  1.0978
13947TIP3   OH263331   0.303   3.566  14.579 -0.4127 -0.5670  0.8864
13947TIP3    H163332   0.355   3.619  14.519  0.4807 -0.3546  1.8462
13947TIP3    H263333   0.357   3.489  14.598 -1.5153 -1.6256 -0.1374
13948TIP3   OH263334   1.681   4.868   0.462 -0.3507 -0.0534  0.1484
13948TIP3    H163335   1.730   4.947   0.441  0.4044 -0.1096  1.6593
13948TIP3    H263336   1.724   4.798   0.414 -2.1209  0.7107 -2.6507
13949TIP3   OH263337   5.865   5.025  11.181 -0.3717  0.2559 -0.0392
13949TIP3    H163338   5.896   5.108  11.146  0.5151  0.1740  0.5418
13949TIP3    H263339   5.882   5.030  11.275 -1.5437 -0.0493  0.1968
13950TIP3   OH263340   0.147   3.800  15.109  0.4416  0.1485 -0.4599
13950TIP3    H163341   0.241   3.790  15.096  0.8964  1.6726  1.3831
13950TIP3    H263342   0.124   3.878  15.060  0.5041  0.8338  0.5823
13951TIP3   OH263343   2.592   6.431  12.237  0.1334 -0.2853 -0.0257
13951TIP3    H163344   2.657   6.493  12.203  0.6565 -0.3810  0.7969
13951TIP3    H263345   2.517   6.485  12.262  0.3951 -0.0358  0.2230
13952TIP3   OH263346   1.234   2.544   5.728  0.0853 -0.8157  0.2571
13952TIP3    H163347   1.218   2.633   5.696  1.4810 -0.4163  0.6503
13952TIP3    H263348   1.158   2.494   5.697 -0.2669  0.3050 -0.7496
13953TIP3   OH263349   6.110   5.149  12.708  0.3034 -0.0050 -0.3281
13953TIP3    H163350   6.137   5.151  12.616 -0.0758 -0.0273 -0.4403
13953TIP3    H263351   6.134   5.235  12.741  1.3028 -0.3221 -0.1968
13954TIP3   OH263352   6.290   4.173   2.133  0.4156 -0.5893 -0.4840
13954TIP3    H163353   6.228   4.220   2.188  0.4682  1.2126 -1.9057
13954TIP3    H263354   6.250   4.172   2.046  1.6879 -0.7397 -1.0912
13955TIP3   OH263355   5.066   3.346   0.407 -0.4331  0.5737  0.3216
13955TIP3    H163356   5.056   3.338   0.502  4.4300 -0.6929  0.8994
13955TIP3    H263357   5.121   3.423   0.396  2.3218 -1.4967 -1.1054
13956TIP3   OH263358   0.530   5.869  13.812  0.0748  0.1533  0.1888
13956TIP3    H163359   0.568   5.816  13.882  0.0244  0.0885  0.1664
13956TIP3    H263360   0.509   5.953  13.854  0.7911  0.4017  0.0639
13957TIP3   OH263361   4.714   1.732   2.670  0.0072 -0.1009  0.0170
13957TIP3    H163362   4.709   1.661   2.735  0.3329 -1.4556 -1.4195
13957TIP3    H263363   4.806   1.759   2.672 -0.0554  0.0871  0.3625
13958TIP3   OH263364   2.920   2.074  12.322  0.1551  0.0376 -0.1330
13958TIP3    H163365   2.947   1.993  12.365  4.1743  1.4459  0.2472
13958TIP3    H263366   2.882   2.127  12.392  2.2453  0.4350  0.7407
13959TIP3   OH263367   1.973   3.695  14.215  0.1833 -0.6714  0.2113
13959TIP3    H163368   2.042   3.760  14.227  0.7130 -1.0097 -0.9020
13959TIP3    H263369   1.935   3.683  14.302  0.7224  0.4094  0.5990
13960TIP3   OH263370   2.004   2.755  11.999  0.3321  0.0640  0.1580
13960TIP3    H163371   2.057   2.746  11.919 -0.2044 -0.0169 -0.1918
13960TIP3    H263372   1.932   2.694  11.987  0.9933 -0.9551  1.3228
13961TIP3   OH263373   0.234   6.249  12.673  0.2373  0.0775 -0.3623
13961TIP3    H163374   0.246   6.156  12.691  2.9634  0.5091  0.4486
13961TIP3    H263375   0.142   6.266  12.693 -0.1087 -2.2719  0.2400
13962TIP3   OH263376   3.176   6.192   5.547  0.0682  0.6773  0.4104
13962TIP3    H163377   3.105   6.230   5.495 -1.8513 -1.3854  1.4517
13962TIP3    H263378   3.248   6.181   5.485 -1.9480 -1.1316 -1.6995
13963TIP3   OH263379   0.581   6.536   2.158  0.0575 -0.0268 -0.2138
13963TIP3    H163380   0.507   6.582   2.197  0.6153 -0.5269  1.5010
13963TIP3    H263381   0.568   6.444   2.184  1.0007 -0.1951 -0.3090
13964TIP3   OH263382   0.105   0.697  16.025 -0.3267 -0.3099  0.9139
13964TIP3    H163383   0.030   0.748  16.055 -0.5991 -0.8256  1.1168
13964TIP3    H263384   0.082   0.671  15.936 -0.1571 -0.0206  0.7880
13965TIP3   OH263385   1.204   4.021  14.955  0.3386  0.5505  0.0020
13965TIP3    H163386   1.144   4.070  15.012 -0.4237 -0.7474  0.3381
13965TIP3    H263387   1.254   4.088  14.909 -0.6780  1.6420  0.4697
13966TIP3   OH263388   0.448   3.966   2.898  0.6273 -0.8342  0.1115
13966TIP3    H163389   0.396   3.924   2.967 -0.2333 -0.3707 -0.2562
13966TIP3    H263390   0.494   3.893   2.856 -0.1114 -1.3089  0.1105
13967TIP3   OH263391   4.581   4.411  12.111  0.0010  0.0106 -0.6281
13967TIP3    H163392   4.662   4.403  12.162 -0.3573  3.2444  0.5371
13967TIP3    H263393   4.611   4.406  12.020  1.2794 -0.5195 -0.1997
13968TIP3   OH263394   6.818   0.243   2.917  0.2482 -0.4661 -0.1133
13968TIP3    H163395   6.871   0.230   2.839 -0.4325 -2.0563 -0.3172
13968TIP3    H263396   6.823   0.160   2.965 -0.7688 -0.1018  0.6532
13969TIP3   OH263397   5.795   0.401  13.599  0.6668 -0.4901 -0.8255
13969TIP3    H163398   5.795   0.318  13.646  0.5510  1.5384  2.9571
13969TIP3    H263399   5.886   0.413  13.572  0.8943 -1.3828 -0.4722
13970TIP3   OH263400   5.881   2.273   1.336 -0.0982 -0.1415 -0.5937
13970TIP3    H163401   5.933   2.345   1.372 -1.0430  0.7828 -1.0574
13970TIP3    H263402   5.820   2.315   1.276 -0.7645 -1.3188 -0.7550
13971TIP3   OH263403   3.656   2.288  13.203 -0.0504 -0.0352  0.2976
13971TIP3    H163404   3.704   2.371  13.212  1.2495 -0.5987 -1.2394
13971TIP3    H263405   3.637   2.282  13.110 -1.6628 -0.6537  0.6533
13972TIP3   OH263406   3.407   4.546   0.697  0.0057  0.4415 -0.1439
13972TIP3    H163407   3.419   4.617   0.634 -0.8907  0.1018 -0.7192
13972TIP3    H263408   3.490   4.499   0.697  0.0756  0.5649 -0.9265
13973TIP3   OH263409   3.775   4.970  11.263  0.1083  0.5816 -0.3040
13973TIP3    H163410   3.865   5.000  11.256  0.2133  0.1169 -1.0116
13973TIP3    H263411   3.782   4.876  11.282 -0.2184  0.8359  1.1689
13974TIP3   OH263412   5.241   0.355  11.353  0.0439  0.5856 -0.3041
13974TIP3    H163413   5.306   0.288  11.331 -0.3133  0.2608 -0.3707
13974TIP3    H263414   5.177   0.350  11.282  0.7235  1.9282 -1.0286
13975TIP3   OH263415   4.793   2.611  16.456  0.4409 -0.1027 -0.1402
13975TIP3    H163416   4.699   2.630  16.452  0.2795 -0.9838 -0.7345
13975TIP3    H263417   4.815   2.581  16.368  1.7209  2.0510 -0.5739
13976TIP3   OH263418   4.680   3.028   1.069 -0.3337  0.4876  0.2289
13976TIP3    H163419   4.598   3.068   1.041 -1.7804 -1.5445  1.4741
13976TIP3    H263420   4.718   2.992   0.989 -1.6303 -0.2845 -0.0431
13977TIP3   OH263421   0.664   5.988  11.388 -0.5262 -0.1153  0.4191
13977TIP3    H163422   0.665   5.913  11.447 -0.3210 -1.4239 -1.1999
13977TIP3    H263423   0.580   5.982  11.342 -0.2853  0.3453 -0.0944
13978TIP3   OH263424   1.677   2.119   4.364 -0.0423  0.3238  0.3952
13978TIP3    H163425   1.728   2.160   4.295  0.1890 -0.5408  0.0435
13978TIP3    H263426   1.628   2.049   4.321  1.4578 -1.3854  1.3648
13979TIP3   OH263427   5.825   1.328   2.743  0.0444 -0.4573  0.2081
13979TIP3    H163428   5.750   1.361   2.693 -0.2894  0.3964  1.2831
13979TIP3    H263429   5.893   1.314   2.677 -0.0782  1.5692 -0.3791
13980TIP3   OH263430   2.006   2.037  16.999 -0.0572  0.1871  0.4044
13980TIP3    H163431   2.032   2.009  16.911 -1.4082  2.2680 -0.6840
13980TIP3    H263432   2.082   2.085  17.032  0.4827 -0.6633  0.4143
13981TIP3   OH263433   1.357   3.871   5.343 -0.3229 -0.1027 -0.5895
13981TIP3    H163434   1.262   3.883   5.341 -0.5375 -0.9064  2.4061
13981TIP3    H263435   1.370   3.777   5.345  0.2938 -0.0509  3.1890
13982TIP3   OH263436   5.575   4.989  15.784 -0.5775  0.3051 -0.2295
13982TIP3    H163437   5.648   5.042  15.816 -0.6139  0.4936 -0.4546
13982TIP3    H263438   5.497   5.038  15.810 -0.5809  1.9378 -3.0520
13983TIP3   OH263439   1.918   1.520   2.656 -0.3451 -0.1374  0.0296
13983TIP3    H163440   1.904   1.494   2.565 -0.3500  1.4245 -0.4139
13983TIP3    H263441   2.003   1.483   2.679 -1.4478 -2.6831  0.1917
13984TIP3   OH263442   2.568   2.268   6.698 -0.1004 -0.3396  0.2052
13984TIP3    H163443   2.643   2.283   6.640  0.1175 -1.0155  0.3176
13984TIP3    H263444   2.498   2.321   6.660  0.5280  0.5784  0.3018
13985TIP3   OH263445   1.824   3.923   3.273  0.0379 -0.3339  0.2684
13985TIP3    H163446   1.749   3.873   3.307 -0.5509 -0.7645 -1.6094
13985TIP3    H263447   1.900   3.873   3.300 -0.2741  0.5721  2.9773
13986TIP3   OH263448   4.627   6.818   4.093  0.2489 -0.2030 -0.0824
13986TIP3    H163449   4.580   6.888   4.138  0.2238 -0.2950  0.0366
13986TIP3    H263450   4.598   6.738   4.138 -0.0895 -0.3346 -0.5239
13987TIP3   OH263451   6.507   3.236  11.266  0.1522  0.0831 -0.7167
13987TIP3    H163452   6.453   3.217  11.343 -0.4890  0.2765 -1.1181
13987TIP3    H263453   6.490   3.164  11.206 -0.8620  0.9307 -1.4805
13988TIP3   OH263454   3.011   3.742  14.344  0.3579 -0.2692 -0.2343
13988TIP3    H163455   2.994   3.810  14.410 -0.8245 -0.3441 -0.4542
13988TIP3    H263456   3.053   3.671  14.394 -0.8720 -0.4791  0.5164
13989TIP3   OH263457   5.353   3.187  12.370  0.3859 -0.1296 -0.8354
13989TIP3    H163458   5.413   3.147  12.308  1.0678  1.8783 -1.5220
13989TIP3    H263459   5.396   3.176  12.455  2.3161  2.2053 -1.4345
13990TIP3   OH263460   1.053   6.530  12.534 -0.5107  0.2611  0.0253
13990TIP3    H163461   0.987   6.577  12.585  0.7419  1.5611  0.4932
13990TIP3    H263462   1.023   6.536  12.444 -0.8282  1.2027  0.1886
13991TIP3   OH263463   5.579   6.693   0.111  0.3762 -0.6674  0.1875
13991TIP3    H163464   5.552   6.779   0.079  1.0426 -0.5067  0.0714
13991TIP3    H263465   5.670   6.703   0.135  0.0783 -0.9797  1.4714
13992TIP3   OH263466   3.793   5.196   0.466 -0.3403  0.2024  0.1563
13992TIP3    H163467   3.816   5.152   0.384  2.7799 -1.4677  1.8287
13992TIP3    H263468   3.839   5.280   0.462  0.6426 -0.3100  0.6229
13993TIP3   OH263469   4.874   3.391   2.376 -0.2690  0.3105 -0.3187
13993TIP3    H163470   4.944   3.456   2.377  2.6706 -2.7005  2.5443
13993TIP3    H263471   4.875   3.356   2.287 -0.7357  2.9136 -1.3820
13994TIP3   OH263472   3.816   4.146  12.213 -0.8046  0.6160 -0.4655
13994TIP3    H163473   3.805   4.081  12.144  2.9302 -0.4988 -0.0986
13994TIP3    H263474   3.803   4.230  12.169 -1.3565 -0.1931 -1.8772
13995TIP3   OH263475   4.141   2.728   1.996 -0.3675  0.0884  0.1484
13995TIP3    H163476   4.174   2.656   2.050  0.7515 -0.6390 -1.4318
13995TIP3    H263477   4.206   2.798   2.007  0.7843 -0.6761 -1.5285
13996TIP3   OH263478   1.862   6.300   1.174  0.0275 -0.6237  0.0042
13996TIP3    H163479   1.866   6.390   1.208 -1.6523 -0.9831  1.1969
13996TIP3    H263480   1.954   6.272   1.170  0.8432  2.1165 -3.0642
13997TIP3   OH263481   0.197   0.490   5.797  0.1641 -0.2120 -0.1032
13997TIP3    H163482   0.184   0.532   5.882  0.1064 -0.0277 -0.2027
13997TIP3    H263483   0.290   0.467   5.796 -0.0114 -0.9388  0.3382
13998TIP3   OH263484   0.539   6.582   2.542 -0.6999  0.3214 -0.1515
13998TIP3    H163485   0.469   6.517   2.543 -1.2750  0.9395  0.2986
13998TIP3    H263486   0.618   6.532   2.522 -1.3324 -0.3195 -1.1429
13999TIP3   OH263487   2.379   2.116  16.237 -0.1891 -0.1852  0.6123
13999TIP3    H163488   2.363   2.034  16.191 -0.9757  0.4569 -0.2632
13999TIP3    H263489   2.302   2.170  16.220 -0.2378  0.2890  2.2017
14000TIP3   OH263490   3.730   1.558   0.336  0.0798 -0.2340  0.1804
14000TIP3    H163491   3.791   1.630   0.321  0.8803 -0.7846  0.7669
14000TIP3    H263492   3.652   1.599   0.373 -0.4879  0.6660 -1.9414
14001TIP3   OH263493   4.274   0.617  11.632  0.0029 -0.0132  0.5498
14001TIP3    H163494   4.297   0.574  11.550  0.2290  0.3644  0.4169
14001TIP3    H263495   4.358   0.643  11.670  0.1856 -3.0760  2.4810
14002TIP3   OH263496   1.177   0.273   5.956 -0.5276 -0.0594 -0.3241
14002TIP3    H163497   1.116   0.199   5.949  0.5695 -1.0242  0.0345
14002TIP3    H263498   1.264   0.232   5.952  0.0916  1.1993  0.1114
14003TIP3   OH263499   0.323   3.066   3.047  0.3772  0.4052  0.5314
14003TIP3    H163500   0.259   3.117   2.999  0.2686 -1.7481 -1.7002
14003TIP3    H263501   0.406   3.110   3.032  0.4121 -0.4951 -2.0444
14004TIP3   OH263502   4.676   0.358  12.812  0.4016  0.1746  0.4772
14004TIP3    H163503   4.735   0.341  12.738 -2.2135 -0.5554 -1.5145
14004TIP3    H263504   4.732   0.353  12.889  2.7376 -1.5713 -1.2659
14005TIP3   OH263505   4.322   4.971   3.147  0.6653 -0.1941 -0.5555
14005TIP3    H163506   4.228   4.957   3.133  0.6202 -0.7747  0.3153
14005TIP3    H263507   4.328   5.008   3.235  0.9841  3.0744 -1.8995
14006TIP3   OH263508   0.438   3.653   4.441  0.0659 -0.2287 -0.2437
14006TIP3    H163509   0.423   3.744   4.417 -0.4162 -0.4298 -0.7113
14006TIP3    H263510   0.409   3.603   4.365  0.8958 -0.7416 -0.2257
14007TIP3   OH263511   0.105   3.933  11.716  0.1956  0.1113 -0.0842
14007TIP3    H163512   0.127   4.026  11.720 -0.1995  0.2110 -0.2015
14007TIP3    H263513   0.054   3.917  11.796  1.6423 -0.3726  0.7788
14008TIP3   OH263514   3.192   1.480   0.744 -0.7849 -0.0570  0.2225
14008TIP3    H163515   3.262   1.443   0.690  0.5497  2.2279  0.2994
14008TIP3    H263516   3.159   1.554   0.694 -1.4661  0.3674  1.2780
14009TIP3   OH263517   5.661   2.717   3.867  0.5478  0.3388 -0.1767
14009TIP3    H163518   5.597   2.786   3.851  1.1195  1.1039  0.7432
14009TIP3    H263519   5.738   2.763   3.899  1.1055 -0.6884 -0.0176
14010TIP3   OH263520   1.695   1.668   0.870 -0.0255  0.0516 -0.0218
14010TIP3    H163521   1.721   1.650   0.960 -0.5301  1.0115  0.3226
14010TIP3    H263522   1.763   1.627   0.817 -0.4401 -1.7006  0.7514
14011TIP3   OH263523   6.560   4.814  12.462  0.0697  0.1896 -0.5347
14011TIP3    H163524   6.603   4.871  12.526 -1.8512 -0.3866  1.3472
14011TIP3    H263525   6.493   4.769  12.512  0.2119 -2.2341 -2.4507
14012TIP3   OH263526   3.978   3.731   2.255  0.1527 -0.6551 -0.1752
14012TIP3    H163527   3.945   3.678   2.182 -0.3151 -1.4995  0.6392
14012TIP3    H263528   3.912   3.720   2.324  0.4328  0.3901  0.2609
14013TIP3   OH263529   3.128   4.108  12.320 -0.3330 -0.4821  0.0168
14013TIP3    H163530   3.157   4.028  12.277  3.1467  0.0799  1.1216
14013TIP3    H263531   3.161   4.178  12.264 -1.4157  0.1882  0.2168
14014TIP3   OH263532   4.663   0.101  11.496 -0.1583  0.2794  0.2970
14014TIP3    H163533   4.682   0.007  11.494  1.3134  0.5355  1.7476
14014TIP3    H263534   4.595   0.110  11.563 -1.5245  0.0668 -1.0208
14015TIP3   OH263535   2.575   5.349  14.925 -0.3376 -0.2028  0.5406
14015TIP3    H163536   2.623   5.365  15.005 -0.2796  2.5928 -0.0089
14015TIP3    H263537   2.616   5.406  14.860 -0.8701 -1.8420 -1.3047
14016TIP3   OH263538   6.471   1.545  14.995  0.3676 -0.0765 -0.2102
14016TIP3    H163539   6.552   1.496  14.983  0.4569  0.1954 -0.7128
14016TIP3    H263540   6.407   1.500  14.940  0.0865 -0.5004  0.4541
14017TIP3   OH263541   2.526   6.446  13.160 -0.5084  0.2733 -0.4125
14017TIP3    H163542   2.616   6.476  13.147 -0.2789  0.0685  0.6198
14017TIP3    H263543   2.511   6.382  13.090  0.3820 -0.1915 -0.1796
14018TIP3   OH263544   4.587   5.933  13.618 -0.4927 -0.1064  0.0120
14018TIP3    H163545   4.643   5.890  13.553 -0.6096 -1.9007  1.0699
14018TIP3    H263546   4.644   5.997  13.660 -0.2451  0.6313 -1.3944
14019TIP3   OH263547   4.452   1.982  14.005  0.0843 -0.1979 -1.1077
14019TIP3    H163548   4.372   2.025  14.037  0.4493  0.4405 -1.0514
14019TIP3    H263549   4.523   2.029  14.048  0.4255 -2.2106  0.6124
14020TIP3   OH263550   0.399   5.656   5.367  0.0421  0.2339  0.9186
14020TIP3    H163551   0.310   5.629   5.342  0.0405  1.1259 -0.0588
14020TIP3    H263552   0.451   5.646   5.288  0.5758  0.7643  1.1971
14021TIP3   OH263553   6.596   2.175  10.904 -0.4577 -0.3460  0.3052
14021TIP3    H163554   6.578   2.264  10.874 -1.4897  0.3179  2.7585
14021TIP3    H263555   6.574   2.120  10.830  0.0780  1.4285 -1.2149
14022TIP3   OH263556   2.648   2.889   2.155  0.6518 -0.1041 -0.8618
14022TIP3    H163557   2.598   2.870   2.234  3.0839  0.8804  0.9989
14022TIP3    H263558   2.596   2.956   2.109 -0.6052 -0.4034  0.0933
14023TIP3   OH263559   4.394   1.641   4.320 -0.3842  0.4868  0.4354
14023TIP3    H163560   4.469   1.700   4.331 -1.5493  2.0194  0.2600
14023TIP3    H263561   4.362   1.627   4.409 -0.0200  0.0090  0.4895
14024TIP3   OH263562   0.044   4.157   0.293 -0.5468 -0.3785  0.3531
14024TIP3    H163563  -0.019   4.088   0.311 -1.2773  0.3725  0.6799
14024TIP3    H263564   0.037   4.216   0.368  1.1346 -0.7193  0.8106
14025TIP3   OH263565   1.029   0.586   4.441 -0.0233 -0.1793 -0.2203
14025TIP3    H163566   0.954   0.534   4.412  1.2809 -1.8703 -0.6354
14025TIP3    H263567   1.008   0.611   4.531 -1.3493 -0.1083 -0.5381
14026TIP3   OH263568   2.947   1.660   1.469  0.4128 -0.4752  0.5543
14026TIP3    H163569   2.987   1.625   1.390  0.3144 -0.7017  0.6058
14026TIP3    H263570   2.871   1.710   1.438  0.5767 -0.2725  0.4790
14027TIP3   OH263571   3.149   6.624   6.206 -0.4454  0.3370 -0.5529
14027TIP3    H163572   3.239   6.608   6.175 -0.6306  0.9374 -1.4269
14027TIP3    H263573   3.118   6.538   6.235  0.4836  0.1622 -0.0572
14028TIP3   OH263574   2.373   3.628  15.569  0.3249 -0.1504  0.3900
14028TIP3    H163575   2.382   3.648  15.663 -2.1201 -1.2060  0.9083
14028TIP3    H263576   2.398   3.536  15.562  0.5015 -0.0739  0.0021
14029TIP3   OH263577   2.695   0.788   5.725 -0.6939  0.4656  0.3160
14029TIP3    H163578   2.753   0.853   5.766 -0.8882  0.2083  1.0137
14029TIP3    H263579   2.754   0.731   5.677 -0.2721 -0.2774  1.6874
14030TIP3   OH263580   1.333   6.051  13.456 -0.2636  0.0247  0.6663
14030TIP3    H163581   1.345   6.114  13.528  2.4418 -0.1710  0.4436
14030TIP3    H263582   1.366   6.097  13.379 -2.0933 -0.1923 -0.2781
14031TIP3   OH263583   5.923   2.983  11.268 -0.4389 -0.2953  0.2437
14031TIP3    H163584   6.003   3.026  11.237  0.0647 -0.4956  1.2350
14031TIP3    H263585   5.853   3.019  11.213  0.1771  0.7237  0.1200
14032TIP3   OH263586   4.621   0.821   4.868 -0.2766  0.0953  0.7774
14032TIP3    H163587   4.657   0.748   4.818 -1.2347 -1.3250  2.1247
14032TIP3    H263588   4.651   0.899   4.822  0.6141 -1.1516 -0.7799
14033TIP3   OH263589   3.687   4.270  13.352  0.2947  0.1361 -0.4065
14033TIP3    H163590   3.640   4.308  13.427 -0.3379 -1.4470  0.0247
14033TIP3    H263591   3.646   4.184  13.340  1.1945 -0.0961 -1.8306
14034TIP3   OH263592   2.508   1.825   6.307  0.2898 -0.0579 -0.3931
14034TIP3    H163593   2.587   1.786   6.343  0.9652  1.9915  0.3649
14034TIP3    H263594   2.442   1.815   6.376  0.6158  0.6340  0.0222
14035TIP3   OH263595   4.392   2.407  11.624 -0.4417  0.0551 -0.5853
14035TIP3    H163596   4.386   2.488  11.574 -0.0495  0.6893  0.3840
14035TIP3    H263597   4.457   2.354  11.576 -0.0753  0.6456 -0.7484
14036TIP3   OH263598   0.468   4.948   2.904  0.0377 -0.1204 -0.0493
14036TIP3    H163599   0.450   4.944   2.998 -0.5121  1.4324 -0.0821
14036TIP3    H263600   0.533   5.018   2.894  0.3290 -0.4846 -0.7948
14037TIP3   OH263601   6.352   4.349  13.583  0.2063 -0.0058  0.1951
14037TIP3    H163602   6.433   4.300  13.579  0.0807 -0.3384  1.4987
14037TIP3    H263603   6.368   4.417  13.649 -0.2244  0.5933 -0.3000
14038TIP3   OH263604   2.841   1.063   0.946 -0.5747  0.1443 -0.0399
14038TIP3    H163605   2.837   0.972   0.976 -0.6304 -0.1967 -1.0642
14038TIP3    H263606   2.863   1.057   0.853 -1.4033  1.1509 -0.3149
14039TIP3   OH263607   0.133   0.165  11.703  0.3166  0.2884  0.0433
14039TIP3    H163608   0.220   0.127  11.694 -0.1176 -0.3992 -1.4204
14039TIP3    H263609   0.073   0.094  11.679 -0.6633  0.6898  1.2237
14040TIP3   OH263610   4.505   4.145  16.754  0.2526  0.3468  0.1186
14040TIP3    H163611   4.447   4.135  16.830 -0.6953  2.0907 -0.3349
14040TIP3    H263612   4.589   4.172  16.792  0.3632 -0.7360  0.6751
14041TIP3   OH263613   3.007   4.926  10.960 -0.2345  0.3177 -0.3633
14041TIP3    H163614   2.983   4.941  11.051  0.8640  0.1755 -0.0425
14041TIP3    H263615   3.078   4.862  10.964 -2.0142 -1.7893 -1.4827
14042TIP3   OH263616   3.953   4.703   1.342  0.4520 -0.4126 -0.1722
14042TIP3    H163617   3.885   4.710   1.275 -0.4306 -3.6296  0.3286
14042TIP3    H263618   4.032   4.681   1.293  0.5075  0.3284 -0.4340
14043TIP3   OH263619   5.950   0.275   5.789 -0.3294  0.1321 -0.8602
14043TIP3    H163620   5.907   0.227   5.860 -0.3164 -1.2016 -1.7298
14043TIP3    H263621   5.878   0.299   5.730 -0.1145 -0.4673 -1.3724
14044TIP3   OH263622   2.504   4.528  13.094 -0.0557  0.0461  0.0803
14044TIP3    H163623   2.417   4.568  13.094  0.9064  2.2218 -1.2545
14044TIP3    H263624   2.563   4.599  13.119  1.5308 -0.9489 -0.7824
14045TIP3   OH263625   4.570   1.892  13.774 -0.7504  0.0109  0.4168
14045TIP3    H163626   4.584   1.964  13.713 -0.2539 -0.1092  0.3899
14045TIP3    H263627   4.542   1.934  13.855 -2.4336  0.1150 -0.1853
14046TIP3   OH263628   2.871   6.610   0.639  0.3903 -0.2158 -0.6403
14046TIP3    H163629   2.932   6.616   0.566  2.5018 -0.6477  1.0264
14046TIP3    H263630   2.807   6.679   0.623  1.7635  0.7628 -2.0444
14047TIP3   OH263631   3.905   0.462  15.902  0.1441 -0.3306 -0.8237
14047TIP3    H163632   3.890   0.432  15.812  0.1525 -0.5882 -0.7392
14047TIP3    H263633   3.994   0.497  15.900 -0.9574  2.5650 -1.6881
14048TIP3   OH263634   5.914   2.171   3.981  0.3667  0.3447 -0.5903
14048TIP3    H163635   5.962   2.153   3.900  0.6929  1.1891 -0.5856
14048TIP3    H263636   5.878   2.085   4.007  0.4210  0.0353 -1.5151
14049TIP3   OH263637   0.501   5.801  10.712 -0.3731  0.1068 -0.2252
14049TIP3    H163638   0.594   5.794  10.692 -0.7519 -2.7237 -1.2089
14049TIP3    H263639   0.483   5.895  10.712  1.9436  0.5940 -2.5202
14050TIP3   OH263640   2.000   4.773  14.992  0.4764  0.0752 -0.0062
14050TIP3    H163641   2.012   4.864  15.019 -1.6911  0.9721 -1.9001
14050TIP3    H263642   1.917   4.748  15.033  1.1988 -1.1595  0.7311
14051TIP3   OH263643   0.784   5.286  12.358  0.5741  0.2331  0.3119
14051TIP3    H163644   0.737   5.270  12.440  2.8827 -1.9350  1.2954
14051TIP3    H263645   0.816   5.375  12.365 -0.4126  0.5286  1.1663
14052TIP3   OH263646   0.044   3.600  13.457  0.4369 -0.1288  0.4146
14052TIP3    H163647  -0.016   3.633  13.390  0.3556  0.5122  0.7897
14052TIP3    H263648   0.057   3.508  13.435  0.2577  0.0273 -0.3657
14053TIP3   OH263649   1.017   5.564  14.280 -0.1440 -0.0174  0.3528
14053TIP3    H163650   1.099   5.613  14.283  0.9474 -1.7213 -0.5164
14053TIP3    H263651   1.026   5.499  14.350 -0.4228 -0.6858 -0.2241
14054TIP3   OH263652   4.846   4.571   6.551 -0.4014  0.1492 -0.5124
14054TIP3    H163653   4.908   4.605   6.486 -0.4600 -0.6190 -0.9680
14054TIP3    H263654   4.886   4.490   6.582 -0.2979  0.5959  0.5312
14055TIP3   OH263655   5.480   1.119   5.457 -0.0982 -0.6504 -0.1026
14055TIP3    H163656   5.431   1.124   5.539  0.1288  0.2161 -0.0124
14055TIP3    H263657   5.416   1.140   5.389  0.2058  0.7459  0.0376
14056TIP3   OH263658   6.754   2.526  12.719 -0.0899  0.1124  0.2759
14056TIP3    H163659   6.838   2.560  12.690  0.1915 -1.1622 -0.4216
14056TIP3    H263660   6.690   2.591  12.688  0.6962  1.5355  1.5769
14057TIP3   OH263661   3.627   5.339   4.505  0.0353  0.0183 -0.2974
14057TIP3    H163662   3.550   5.397   4.501 -0.9596 -1.0301  2.1000
14057TIP3    H263663   3.596   5.263   4.556  2.7688 -0.2345  1.0557
14058TIP3   OH263664   0.054   5.331  14.723  0.7205  0.3812 -0.0149
14058TIP3    H163665   0.145   5.319  14.699  1.0372 -0.2009  1.4106
14058TIP3    H263666   0.025   5.245  14.753 -0.3649  0.5089 -0.6512
14059TIP3   OH263667   1.653   1.048   0.485 -0.5484 -0.5816 -0.2617
14059TIP3    H163668   1.666   1.033   0.391 -0.0698  0.9318 -0.4561
14059TIP3    H263669   1.710   0.984   0.527 -0.3752 -0.9342 -1.0170
14060TIP3   OH263670   5.611   4.938  15.266  0.0273 -0.3623  0.4146
14060TIP3    H163671   5.682   4.891  15.308 -0.0942 -0.1527  0.8521
14060TIP3    H263672   5.531   4.902  15.305 -0.1567 -1.4556 -0.9483
14061TIP3   OH263673   0.651   4.959  16.863  0.1296 -0.1027  0.1745
14061TIP3    H163674   0.689   5.045  16.880  0.7679 -0.3349 -0.0878
14061TIP3    H263675   0.713   4.897  16.900  1.7089 -0.6505 -3.1491
14062TIP3   OH263676   6.746   5.004   3.507 -0.1230 -0.2016 -0.5929
14062TIP3    H163677   6.774   4.988   3.417  1.5782  0.2568 -0.1466
14062TIP3    H263678   6.768   4.923   3.554 -0.3943 -0.1838 -0.4290
14063TIP3   OH263679   6.011   6.051  11.126 -0.4009 -0.5805 -0.5278
14063TIP3    H163680   5.998   5.980  11.063  2.2556  0.2117 -2.0487
14063TIP3    H263681   5.954   6.122  11.096 -0.4935 -0.8586 -0.9983
14064TIP3   OH263682   4.202   4.211  13.528 -0.3775 -0.0685 -0.4128
14064TIP3    H163683   4.171   4.165  13.450  1.8047 -0.8625 -0.8334
14064TIP3    H263684   4.289   4.243  13.505 -0.0466  0.4080  1.4100
14065TIP3   OH263685   2.092   0.553   2.345 -0.1862 -0.5625  0.0530
14065TIP3    H163686   2.017   0.499   2.372  0.7687 -2.4007 -0.9238
14065TIP3    H263687   2.167   0.514   2.389  0.5337 -0.0961 -0.7425
14066TIP3   OH263688   3.271   4.185  13.084  0.3792 -0.0965  0.0626
14066TIP3    H163689   3.351   4.233  13.064  1.3758 -1.3720  0.9468
14066TIP3    H263690   3.292   4.093  13.067 -1.2502 -0.3394 -0.7867
14067TIP3   OH263691   3.402   6.698  15.516 -0.2152  0.3880 -0.3888
14067TIP3    H163692   3.426   6.631  15.452  0.3179  0.2994 -0.0948
14067TIP3    H263693   3.389   6.777  15.463 -0.6248  0.1077 -0.7086
14068TIP3   OH263694   1.298   2.960  14.670  0.8724  0.3406 -0.2180
14068TIP3    H163695   1.285   3.030  14.606 -0.1035  1.0241  0.7187
14068TIP3    H263696   1.213   2.918  14.677  0.1804  2.1218  2.7848
14069TIP3   OH263697   3.891   4.368  11.842 -0.2133  0.0116  0.8395
14069TIP3    H163698   3.919   4.450  11.803  1.6317 -0.4983  1.0801
14069TIP3    H263699   3.797   4.364  11.824 -0.2746  2.0444  0.6129
14070TIP3   OH263700   6.702   0.991   0.763  0.1630 -0.1630 -0.4451
14070TIP3    H163701   6.699   1.048   0.839 -1.4081  0.5093 -0.9975
14070TIP3    H263702   6.637   1.027   0.703  1.5297 -0.5406 -2.2102
14071TIP3   OH263703   5.250   0.867   2.168 -0.2592  0.3281  0.1958
14071TIP3    H163704   5.320   0.875   2.103  0.0894  0.5536  0.5941
14071TIP3    H263705   5.234   0.773   2.176  0.4794  0.2391  0.6144
14072TIP3   OH263706   6.602   2.747  12.591 -0.2920 -0.0623  0.2775
14072TIP3    H163707   6.519   2.790  12.613 -0.4520 -0.3648  0.2820
14072TIP3    H263708   6.626   2.784  12.506  0.7475  1.6959  1.3238
14073TIP3   OH263709   1.951   6.671   3.268  0.4318 -0.3988  0.0481
14073TIP3    H163710   2.023   6.687   3.329  0.6392  2.3342 -0.8167
14073TIP3    H263711   1.913   6.758   3.254 -1.0889 -1.3519 -1.9013
14074TIP3   OH263712   2.493   1.254   0.703  0.0746 -0.5174 -1.0660
14074TIP3    H163713   2.409   1.247   0.657 -1.0687 -1.3932  1.0997
14074TIP3    H263714   2.522   1.163   0.712 -0.3459 -0.4667  1.0454
14075TIP3   OH263715   0.240   1.185  14.197  0.2789  0.0822  0.0125
14075TIP3    H163716   0.174   1.153  14.135  0.4444 -0.9393  0.3461
14075TIP3    H263717   0.246   1.278  14.180 -0.6510  0.0397 -0.5977
14076TIP3   OH263718   2.069   4.989   4.424  0.3956  0.5912  0.9363
14076TIP3    H163719   2.000   4.923   4.434 -0.3625  1.0891 -0.9801
14076TIP3    H263720   2.103   5.000   4.513 -1.7226  0.0594  1.8466
14077TIP3   OH263721   5.495   2.244  12.510  0.1595  0.5291  0.3364
14077TIP3    H163722   5.463   2.168  12.558  0.5043 -0.0246 -0.2884
14077TIP3    H263723   5.416   2.286  12.476  0.0560 -0.7119 -1.0262
14078TIP3   OH263724   2.249   6.389   6.118  0.0889  0.6223  0.1243
14078TIP3    H163725   2.314   6.442   6.163 -0.8332  2.3324 -0.5002
14078TIP3    H263726   2.166   6.436   6.132 -0.6122 -0.1973 -1.1813
14079TIP3   OH263727   4.642   3.513  16.097 -0.4584 -0.2574  0.5179
14079TIP3    H163728   4.695   3.452  16.046  0.4506  1.9754 -1.2808
14079TIP3    H263729   4.566   3.530  16.042 -0.6010  0.3867  0.9176
14080TIP3   OH263730   6.134   2.690   4.568  0.7488 -0.3305 -0.6381
14080TIP3    H163731   6.151   2.597   4.581 -1.0892 -0.4758  0.9655
14080TIP3    H263732   6.089   2.718   4.648  1.0664  1.8898 -1.1848
14081TIP3   OH263733   4.761   3.568  10.949 -0.1532  0.0975  0.2847
14081TIP3    H163734   4.759   3.528  10.861  0.5259 -0.9771  0.7518
14081TIP3    H263735   4.805   3.652  10.936  1.0793 -0.6096 -0.1955
14082TIP3   OH263736   1.652   4.870  14.385  0.2577 -0.0032 -0.4181
14082TIP3    H163737   1.624   4.880  14.476 -1.5615 -0.7035 -0.8752
14082TIP3    H263738   1.706   4.947  14.367 -0.8591  1.0533  0.7126
14083TIP3   OH263739   6.561   4.172   4.968  0.3121  0.2862  0.0662
14083TIP3    H163740   6.547   4.092   4.918 -0.1988  0.6563 -0.4055
14083TIP3    H263741   6.472   4.205   4.984  0.5651  1.7951 -1.4756
14084TIP3   OH263742   0.296   4.404   5.624  0.5056 -0.0519 -0.1201
14084TIP3    H163743   0.328   4.491   5.647  0.2265 -0.3757  1.6010
14084TIP3    H263744   0.323   4.349   5.698 -2.6181 -0.6473  0.6190
14085TIP3   OH263745   4.384   2.057   5.459  0.1055 -0.5927 -0.5669
14085TIP3    H163746   4.348   2.126   5.403  1.1096 -0.8562 -1.5538
14085TIP3    H263747   4.412   1.989   5.398  1.5789 -0.7146  0.2229
14086TIP3   OH263748   2.379   3.081   1.834 -0.3898  0.1382  0.1249
14086TIP3    H163749   2.287   3.056   1.837  0.1205 -1.8038  0.6980
14086TIP3    H263750   2.403   3.095   1.926  0.2038 -0.6259  0.0904
14087TIP3   OH263751   4.966   2.225  17.095  0.1377 -0.9349 -0.2399
14087TIP3    H163752   4.910   2.270  17.032  0.2847  0.0460  0.3252
14087TIP3    H263753   4.966   2.134  17.067 -2.3868 -1.0990  0.2117
14088TIP3   OH263754   1.281   0.089   6.232 -0.3322 -0.9191  0.5164
14088TIP3    H163755   1.336   0.107   6.308  1.4552 -1.1223 -0.6738
14088TIP3    H263756   1.244   0.002   6.249 -0.8329 -0.4918  1.6415
14089TIP3   OH263757   3.446   6.373   3.599 -0.3284  0.4794  0.3487
14089TIP3    H163758   3.528   6.330   3.626 -0.5437  0.8697  1.6539
14089TIP3    H263759   3.461   6.466   3.617  0.0397  0.9445 -2.2411
14090TIP3   OH263760   1.246   2.918  11.088  0.6131  0.2903  0.0728
14090TIP3    H163761   1.258   2.829  11.055 -0.5431  0.5549 -1.1006
14090TIP3    H263762   1.334   2.947  11.112  0.9885 -1.1850  0.5236
14091TIP3   OH263763   6.159   6.428   4.633  0.5976  0.8390  0.4982
14091TIP3    H163764   6.169   6.480   4.712 -0.2166  1.1163  0.4262
14091TIP3    H263765   6.066   6.434   4.613  0.4071 -1.0354  0.7583
14092TIP3   OH263766   1.571   0.635  15.645 -0.2631 -0.2070  0.7042
14092TIP3    H163767   1.510   0.622  15.717  0.1850  0.9483  1.3090
14092TIP3    H263768   1.647   0.676  15.685 -1.1947  3.2954 -0.8728
14093TIP3   OH263769   6.688   6.356   5.959  0.5863 -0.6392 -0.0424
14093TIP3    H163770   6.725   6.350   6.047 -0.8735  0.9981  0.6915
14093TIP3    H263771   6.595   6.338   5.971  0.1402  0.9433 -1.0547
14094TIP3   OH263772   0.779   2.384   3.514  0.1719  0.6648  0.4858
14094TIP3    H163773   0.865   2.406   3.549  0.8650  0.5562 -1.1051
14094TIP3    H263774   0.775   2.431   3.430 -1.0725  0.1822  0.2669
14095TIP3   OH263775   1.387   0.229  13.736  0.1286  0.2487 -0.1195
14095TIP3    H163776   1.311   0.172  13.743  2.0345 -2.2428  0.8373
14095TIP3    H263777   1.386   0.281  13.817  1.1997 -2.0655  1.4310
14096TIP3   OH263778   6.815   0.026   3.855  0.2428  0.3470  0.0881
14096TIP3    H163779   6.856  -0.018   3.930 -0.8011 -0.2852  0.3000
14096TIP3    H263780   6.833   0.119   3.870  0.8914  0.1428  0.6104
14097TIP3   OH263781   2.451   3.829   3.613  0.0219 -0.0600  0.0340
14097TIP3    H163782   2.507   3.863   3.543  0.9644  2.6170  1.9855
14097TIP3    H263783   2.510   3.818   3.687 -1.0423 -2.4705  0.5413
14098TIP3   OH263784   0.646   2.374  12.301 -0.1679  0.8101 -0.4505
14098TIP3    H163785   0.611   2.295  12.343 -0.9136  1.7097  0.6734
14098TIP3    H263786   0.568   2.426  12.279  0.3474  1.8122  0.0221
14099TIP3   OH263787   3.411   5.191  15.211 -0.1409  0.3560 -0.3352
14099TIP3    H163788   3.405   5.284  15.231  0.4183  0.0101  1.5449
14099TIP3    H263789   3.503   5.177  15.188 -0.3109  0.3349 -1.0191
14100TIP3   OH263790   4.493   0.408   3.461  0.5826 -0.0213 -0.0784
14100TIP3    H163791   4.577   0.453   3.472 -1.1291  3.4030 -0.4273
14100TIP3    H263792   4.471   0.377   3.549  0.7775  1.7652  0.6212
14101TIP3   OH263793   2.693   4.668   0.955 -0.0645 -0.2588 -0.4079
14101TIP3    H163794   2.697   4.573   0.947 -2.5865 -0.4189 -0.2608
14101TIP3    H263795   2.765   4.700   0.901  2.0048 -2.2873  1.0826
14102TIP3   OH263796   6.642   2.157  11.806  0.2822 -0.0200  0.3794
14102TIP3    H163797   6.619   2.223  11.872 -0.5284 -0.4216  0.5122
14102TIP3    H263798   6.648   2.075  11.855 -0.0350 -0.2671  0.0066
14103TIP3   OH263799   3.181   5.670   3.249  0.2397  0.5319  0.6797
14103TIP3    H163800   3.219   5.601   3.303 -0.0074  1.6548  2.3494
14103TIP3    H263801   3.254   5.729   3.232  0.1290  0.6214  0.5189
14104TIP3   OH263802   5.328   4.465  15.128  0.2074 -0.2322 -0.1052
14104TIP3    H163803   5.305   4.420  15.047 -0.1785 -0.7331  0.2729
14104TIP3    H263804   5.364   4.396  15.184 -0.7072 -0.1415  0.6108
14105TIP3   OH263805   5.184   5.993  11.190  0.2905 -0.5015 -0.0089
14105TIP3    H163806   5.126   6.068  11.198 -1.2197 -1.6607  0.2200
14105TIP3    H263807   5.208   5.991  11.097  0.0634  0.0782 -0.0781
14106TIP3   OH263808   6.626   1.842   2.920  0.0434 -0.0630  0.3461
14106TIP3    H163809   6.557   1.866   2.982  0.9293  0.5916  1.0975
14106TIP3    H263810   6.667   1.764   2.959 -0.0097 -0.2099  0.1081
14107TIP3   OH263811   6.248   1.790   0.614 -0.0858  0.1990  0.1673
14107TIP3    H163812   6.211   1.806   0.700 -0.1269  0.1444  0.1604
14107TIP3    H263813   6.201   1.712   0.582 -0.1723  0.3046  0.0360
14108TIP3   OH263814   5.363   2.541   3.946  0.3895  0.2774  0.1187
14108TIP3    H163815   5.340   2.457   3.985  1.0411  0.3797  0.7222
14108TIP3    H263816   5.443   2.568   3.991  1.5028  0.0980 -1.6993
14109TIP3   OH263817   4.706   2.639   4.060  0.4600 -0.4835  0.3730
14109TIP3    H163818   4.644   2.640   3.986  1.9315  0.1766 -0.8768
14109TIP3    H263819   4.707   2.547   4.089  1.7835 -1.3098 -2.1071
14110TIP3   OH263820   4.462   2.662   2.075  0.4346 -0.0093 -0.0367
14110TIP3    H163821   4.432   2.751   2.089 -0.1981 -0.2258 -0.0142
14110TIP3    H263822   4.403   2.608   2.128  0.2216 -0.5287 -0.7995
14111TIP3   OH263823   5.903   4.547   0.224  0.7734 -0.3376 -0.0430
14111TIP3    H163824   5.834   4.483   0.241  1.1112 -0.5879  0.4300
14111TIP3    H263825   5.870   4.600   0.152  0.1098 -0.4800  0.1516
14112TIP3   OH263826   5.362   6.774  12.634 -0.6338 -0.5190 -0.1883
14112TIP3    H163827   5.286   6.755  12.579 -0.1548  0.6580 -1.2893
14112TIP3    H263828   5.434   6.783  12.571 -0.4807  2.9623  0.4276
14113TIP3   OH263829   5.634   1.656   4.370  0.5625 -0.5046 -0.3642
14113TIP3    H163830   5.546   1.620   4.380 -0.1058  0.3100 -2.8305
14113TIP3    H263831   5.654   1.695   4.455 -1.6721 -0.2724  0.0939
14114TIP3   OH263832   0.227   2.274  13.845  0.3782  0.0558  0.4909
14114TIP3    H163833   0.241   2.180  13.851  0.3295  0.0643  0.7663
14114TIP3    H263834   0.132   2.284  13.839  0.5085 -0.0514 -2.3833
14115TIP3   OH263835   2.864   6.337   2.083 -0.4826 -0.1620 -0.4419
14115TIP3    H163836   2.950   6.364   2.051 -0.0718 -1.2572 -0.2791
14115TIP3    H263837   2.802   6.390   2.032  0.1410 -1.9292 -3.1554
14116TIP3   OH263838   4.174   6.187  14.078 -0.0905  0.2270  0.8033
14116TIP3    H163839   4.146   6.103  14.042 -0.3903  0.7964 -0.3272
14116TIP3    H263840   4.204   6.167  14.167  1.8242 -1.3947 -0.1796
14117TIP3   OH263841   4.521   5.259   1.180  0.1294 -0.0013 -0.1502
14117TIP3    H163842   4.577   5.332   1.206  0.0182 -0.0826  0.3223
14117TIP3    H263843   4.561   5.227   1.099  0.8236 -0.1192  0.2284
14118TIP3   OH263844   4.609   0.567   0.287  0.0322 -0.4610 -0.0417
14118TIP3    H163845   4.628   0.620   0.365 -0.0780  0.4799 -0.6510
14118TIP3    H263846   4.514   0.555   0.290 -0.3523  1.9907 -1.5585
14119TIP3   OH263847   2.879   5.419   1.320 -0.1053 -0.0948  0.2585
14119TIP3    H163848   2.832   5.362   1.260 -1.4972  1.6957 -0.4069
14119TIP3    H263849   2.949   5.457   1.267 -0.6754  0.6560  0.0244
14120TIP3   OH263850   3.119   2.281  11.626  0.0324 -0.4050 -0.1473
14120TIP3    H163851   3.107   2.249  11.716  0.5830 -0.5006 -0.1080
14120TIP3    H263852   3.085   2.370  11.629 -1.8164 -1.0753 -0.3389
14121TIP3   OH263853   3.008   1.136  15.814  0.0412  0.0646 -0.1251
14121TIP3    H163854   2.974   1.048  15.799 -0.6719  0.2422  0.4439
14121TIP3    H263855   3.066   1.127  15.890 -1.0408  0.3256  0.7476
14122TIP3   OH263856   4.845   4.953  11.971  0.1397 -1.0933  0.1670
14122TIP3    H163857   4.804   5.036  11.995 -0.2897 -1.9770  2.6101
14122TIP3    H263858   4.845   4.953  11.875 -1.7869  0.7735  0.1341
14123TIP3   OH263859   5.849   0.090  10.724  0.5604  0.1529  0.1463
14123TIP3    H163860   5.886   0.025  10.664  0.8249  1.5447 -1.2317
14123TIP3    H263861   5.926   0.136  10.759  0.2846  1.4076 -0.8458
14124TIP3   OH263862   0.976   2.391   5.080  0.0478  0.5384  0.0990
14124TIP3    H163863   1.045   2.334   5.114  0.4708  0.9086 -0.1381
14124TIP3    H263864   0.941   2.344   5.004  1.4474  1.2964 -1.0340
14125TIP3   OH263865   1.425   0.145   6.453 -0.3091  0.0965  0.6746
14125TIP3    H163866   1.450   0.237   6.465 -0.1614  0.1101  0.2670
14125TIP3    H263867   1.463   0.100   6.529 -0.2141  0.3389  0.7723
14126TIP3   OH263868   4.627   3.822  11.998 -0.6520 -0.4833  0.1033
14126TIP3    H163869   4.699   3.877  12.029 -1.1003 -1.1592  2.3812
14126TIP3    H263870   4.586   3.874  11.929  1.3873  0.3374 -0.5337
14127TIP3   OH263871   6.029   4.854   6.159 -0.2886 -0.2450  0.4290
14127TIP3    H163872   6.034   4.770   6.206 -0.8792 -0.8724 -0.6242
14127TIP3    H263873   5.941   4.857   6.123 -0.1604  0.6822  0.1743
14128TIP3   OH263874   5.365   4.529  15.937  0.0928 -0.0992  0.5531
14128TIP3    H163875   5.431   4.473  15.896 -0.5235 -0.2822 -0.1941
14128TIP3    H263876   5.360   4.499  16.028 -1.0960 -2.0553 -0.1290
14129TIP3   OH263877   3.039   3.806  12.006  0.3456 -0.3045  0.3910
14129TIP3    H163878   2.972   3.872  11.989  0.3533 -0.1534  0.9685
14129TIP3    H263879   3.029   3.744  11.934  0.0322  0.0776  0.1023
14130TIP3   OH263880   4.509   3.107  15.488 -0.2641 -0.3050 -0.0242
14130TIP3    H163881   4.554   3.189  15.506 -2.6364  1.2438 -0.9780
14130TIP3    H263882   4.475   3.079  15.573 -1.8730  1.2050 -0.1389
14131TIP3   OH263883   1.785   6.739   2.317 -0.3350 -0.1600 -0.5094
14131TIP3    H163884   1.773   6.663   2.375 -2.0645 -0.1820 -0.8744
14131TIP3    H263885   1.846   6.796   2.365 -1.4449 -0.3555  1.1779
14132TIP3   OH263886   1.527   1.914   2.084  0.0105  0.2491  0.2079
14132TIP3    H163887   1.532   1.839   2.142 -1.0844 -1.3662 -1.7257
14132TIP3    H263888   1.615   1.952   2.085  0.6859 -1.3112  0.8710
14133TIP3   OH263889   1.860   1.319  13.752  0.5165 -0.2777  0.4951
14133TIP3    H163890   1.850   1.237  13.800  0.8893  0.4902  1.8948
14133TIP3    H263891   1.834   1.387  13.814 -0.6949  0.6202 -0.9582
14134TIP3   OH263892   0.842   5.191  13.577 -0.0487 -0.4669  0.1579
14134TIP3    H163893   0.855   5.245  13.500  0.0380 -2.4934 -1.2983
14134TIP3    H263894   0.928   5.182  13.616  0.2355 -0.9679 -0.5780
14135TIP3   OH263895   5.938   6.624  17.008 -0.0880 -0.2651  0.2937
14135TIP3    H163896   6.008   6.653  16.950  0.0720  1.8459  1.4926
14135TIP3    H263897   5.863   6.611  16.949  0.2874  1.0733 -0.5287
14136TIP3   OH263898   1.788   3.744  14.427  0.0202 -0.3849  0.0050
14136TIP3    H163899   1.727   3.717  14.496  0.7414 -0.9398  0.4339
14136TIP3    H263900   1.841   3.812  14.468  1.7180 -2.0371  0.6387
14137TIP3   OH263901   3.959   2.010  11.792 -0.3561  0.1735 -0.5203
14137TIP3    H163902   3.936   2.017  11.884 -2.1736 -2.5472 -0.7194
14137TIP3    H263903   3.913   2.083  11.750  0.1912  1.2023  0.6302
14138TIP3   OH263904   1.068   2.744   3.202 -0.1112  0.0491  0.0293
14138TIP3    H163905   1.025   2.752   3.117 -1.2015  0.4696  0.6129
14138TIP3    H263906   1.157   2.715   3.181  0.2644  2.1263 -1.3790
14139TIP3   OH263907   3.159   3.694   2.016 -0.4482  0.3082  0.6604
14139TIP3    H163908   3.187   3.639   1.942 -1.0308 -0.0929  0.7270
14139TIP3    H263909   3.209   3.775   2.007  1.1927 -0.6190  1.1417
14140TIP3   OH263910   3.112   4.198   5.190  0.4901  0.1760  0.1622
14140TIP3    H163911   3.023   4.173   5.214  0.6586 -0.3247  0.2705
14140TIP3    H263912   3.139   4.132   5.126  1.3244 -0.5555  1.2529
14141TIP3   OH263913   3.008   5.686  13.809 -0.2921  0.0887 -0.1690
14141TIP3    H163914   3.024   5.676  13.902 -0.2868  0.4292 -0.1337
14141TIP3    H263915   3.094   5.702  13.771  0.0821 -2.6631 -0.5838
14142TIP3   OH263916   6.411   2.900  14.690 -0.8879 -0.0577  0.4324
14142TIP3    H163917   6.388   2.960  14.619  0.1224  0.6466  0.6942
14142TIP3    H263918   6.456   2.955  14.754 -0.1026 -1.0721  0.7571
14143TIP3   OH263919   3.439   4.611   1.189  0.1172  0.1924  0.2825
14143TIP3    H163920   3.454   4.530   1.238  1.5270  0.6911  0.7080
14143TIP3    H263921   3.482   4.596   1.104  0.8475  0.6767  0.5575
14144TIP3   OH263922   5.971   4.524   2.184 -0.2384  0.3663  0.1572
14144TIP3    H163923   6.015   4.606   2.207  0.2827  0.3118 -0.6653
14144TIP3    H263924   5.878   4.546   2.187 -0.1191  0.8541  0.4310
14145TIP3   OH263925   6.059   3.570   1.765 -0.0473  0.4060  0.4286
14145TIP3    H163926   6.038   3.663   1.767  0.2262  0.4739  0.1436
14145TIP3    H263927   6.132   3.560   1.827 -0.3852  0.3012  0.8158
14146TIP3   OH263928   0.215   3.181   5.661  0.1792  0.1474 -0.7554
14146TIP3    H163929   0.225   3.253   5.599 -1.8925  0.8283 -0.3707
14146TIP3    H263930   0.136   3.204   5.711  2.1764  0.0033  2.6331
14147TIP3   OH263931   6.363   0.690   0.068  0.0086 -0.0623 -0.1525
14147TIP3    H163932   6.425   0.626   0.103 -0.4065 -1.1911 -1.4386
14147TIP3    H263933   6.407   0.727  -0.008  0.0237  0.7937  0.2686
14148TIP3   OH263934   2.318   4.644   1.692  0.1561  0.0312 -0.8436
14148TIP3    H163935   2.367   4.593   1.627  1.3986  0.3584 -0.1744
14148TIP3    H263936   2.353   4.616   1.777 -0.3229  0.7879 -0.3832
14149TIP3   OH263937   1.115   3.007  13.655  0.1302  0.7541 -0.2155
14149TIP3    H163938   1.028   2.996  13.618 -0.0679 -0.0827  0.4849
14149TIP3    H263939   1.110   3.089  13.705 -0.3216  0.5901  0.0070
14150TIP3   OH263940   5.459   1.867   0.387  0.0439  0.0624  0.0404
14150TIP3    H163941   5.481   1.881   0.479  0.7080 -1.0913  0.0651
14150TIP3    H263942   5.439   1.774   0.381 -1.3211  0.3851 -0.7221
14151TIP3   OH263943   3.688   6.142  17.027  0.2596 -0.2382 -0.4312
14151TIP3    H163944   3.649   6.228  17.041  1.2517  0.2409 -0.5463
14151TIP3    H263945   3.777   6.150  17.063 -0.3582 -1.8667  1.5449
14152TIP3   OH263946   3.927   1.184   3.856  0.3178  0.2625 -0.1140
14152TIP3    H163947   3.906   1.258   3.799  2.5074  0.1664 -1.1179
14152TIP3    H263948   3.984   1.220   3.923  3.2414 -0.8446 -1.8809
14153TIP3   OH263949   1.420   6.786   0.494 -0.0140 -0.3997  0.4472
14153TIP3    H163950   1.356   6.758   0.560  1.6918 -1.0064  1.8973
14153TIP3    H263951   1.474   6.850   0.540  2.4828 -2.3413  0.2914
14154TIP3   OH263952   4.676   3.664  13.656 -0.2175  0.4331  0.9343
14154TIP3    H163953   4.686   3.758  13.669 -1.4800  0.8187 -0.6892
14154TIP3    H263954   4.745   3.640  13.594  0.6040  0.1377  1.9605
14155TIP3   OH263955   3.122   1.396   4.148  0.2528  0.0230 -0.2343
14155TIP3    H163956   3.189   1.452   4.187 -0.2527  1.2115 -1.0386
14155TIP3    H263957   3.088   1.447   4.074 -0.0870 -1.4305 -1.1015
14156TIP3   OH263958   3.229   5.573  11.458 -0.2710  1.2043 -0.3028
14156TIP3    H163959   3.322   5.563  11.480 -0.0105  1.4217 -1.2466
14156TIP3    H263960   3.198   5.642  11.516 -0.2541  0.0115  1.1540
14157TIP3   OH263961   0.274   6.504  13.458  0.8974 -0.0952  0.2786
14157TIP3    H163962   0.284   6.559  13.380  0.4409 -0.2884  0.0836
14157TIP3    H263963   0.363   6.478  13.480  1.0007 -0.2835 -0.3507
14158TIP3   OH263964   6.726   6.510  12.036  0.0444 -0.2708  0.3859
14158TIP3    H163965   6.801   6.533  11.982  1.1967 -2.2432  1.1021
14158TIP3    H263966   6.746   6.546  12.122 -0.5228  0.4814  0.2087
14159TIP3   OH263967   1.194   2.361  15.510  0.5414 -0.2602 -0.0819
14159TIP3    H163968   1.261   2.425  15.533  1.6027 -0.9957 -1.0926
14159TIP3    H263969   1.151   2.340  15.593 -0.8439  2.8932  0.0735
14160TIP3   OH263970   5.963   4.651  16.080 -0.0858 -0.6696 -0.3790
14160TIP3    H163971   5.940   4.591  16.008  2.1943  0.8878 -2.4755
14160TIP3    H263972   6.058   4.659  16.074 -0.2427  2.1826  0.6771
14161TIP3   OH263973   4.895   2.133   0.089  0.0598 -0.5360 -0.6328
14161TIP3    H163974   4.929   2.195   0.024  0.8659 -2.3749 -2.0199
14161TIP3    H263975   4.800   2.146   0.087  0.2508  1.0000 -0.5148
14162TIP3   OH263976   1.399   3.054   0.702  0.1629  0.7448 -0.3996
14162TIP3    H163977   1.433   3.110   0.772  1.0720  2.2884 -2.0445
14162TIP3    H263978   1.307   3.081   0.693 -0.4144 -0.5798  1.2635
14163TIP3   OH263979   0.356   5.773  15.097  0.4381  0.2591  0.3887
14163TIP3    H163980   0.266   5.805  15.109 -0.5673 -2.1291 -0.4944
14163TIP3    H263981   0.375   5.727  15.178  0.3665 -0.3741  0.0465
14164TIP3   OH263982   5.872   1.389  15.328 -0.2096  0.3459 -0.0012
14164TIP3    H163983   5.919   1.470  15.350  0.1006 -0.0318  0.7673
14164TIP3    H263984   5.918   1.321  15.378 -0.8955 -0.1949 -0.1025
14165TIP3   OH263985   2.260   1.947  12.054 -0.9513  0.1046  0.4405
14165TIP3    H163986   2.223   1.994  12.128 -1.0259 -1.3368  1.3358
14165TIP3    H263987   2.267   2.013  11.985  1.6049  2.1145  2.5185
14166TIP3   OH263988   1.867   5.102   2.051 -0.3207  0.0107 -0.2860
14166TIP3    H163989   1.935   5.094   1.983 -0.4577  2.3915 -0.7729
14166TIP3    H263990   1.785   5.101   2.002 -0.6535 -2.2602  0.2505
14167TIP3   OH263991   0.033   3.474  14.040 -0.2379 -0.6105  0.8183
14167TIP3    H163992  -0.023   3.480  13.963  0.0210 -2.1650  0.4922
14167TIP3    H263993   0.100   3.541  14.025  0.0969 -1.2190 -0.5689
14168TIP3   OH263994   3.632   4.701   4.553  0.4343  0.6482  0.3499
14168TIP3    H163995   3.675   4.616   4.555 -0.1319  0.3252 -1.3969
14168TIP3    H263996   3.705   4.764   4.550  0.8463  0.2484  1.4938
14169TIP3   OH263997   0.300   5.578   2.803  0.6414  1.0113  0.0097
14169TIP3    H163998   0.366   5.534   2.855 -0.7027 -1.1032 -0.0118
14169TIP3    H263999   0.266   5.647   2.860  0.0519 -0.4886  1.5273
14170TIP3   OH264000   2.317   5.175  10.395  1.1238  0.0194 -0.6357
14170TIP3    H164001   2.300   5.087  10.429  0.1428  0.3549 -0.2375
14170TIP3    H264002   2.264   5.181  10.316 -1.6093  1.4663  1.2085
14171TIP3   OH264003   1.020   6.071  16.805 -0.1525 -0.2036  0.0666
14171TIP3    H164004   0.988   6.161  16.801  1.3604  0.3760  0.6169
14171TIP3    H264005   0.976   6.033  16.880  1.0920  0.8500  1.3455
14172TIP3   OH264006   5.536   1.505   3.501  0.2098 -0.3075 -0.0078
14172TIP3    H164007   5.499   1.593   3.499 -0.7904 -0.6952  0.6178
14172TIP3    H264008   5.534   1.476   3.410  0.1137  0.1394 -0.1516
14173TIP3   OH264009   3.860   1.155   2.823 -0.1533  0.3941 -0.1959
14173TIP3    H164010   3.948   1.160   2.862  0.3361 -0.4864 -1.1459
14173TIP3    H264011   3.875   1.167   2.729 -1.0612  0.3504 -0.3470
14174TIP3   OH264012   3.254   3.646  12.354 -0.5192 -0.5756  0.4976
14174TIP3    H164013   3.270   3.634  12.448 -2.9805  0.6669  1.1191
14174TIP3    H264014   3.190   3.578  12.333  0.7104 -1.4445 -0.5203
14175TIP3   OH264015   2.549   5.085  14.237  0.7338  0.3994 -0.3160
14175TIP3    H164016   2.589   4.999  14.247  1.7486  0.9175  0.1836
14175TIP3    H264017   2.466   5.078  14.284  0.5032 -0.5050 -0.8453
14176TIP3   OH264018   2.587   5.836   6.386  0.4021 -0.2016  0.2460
14176TIP3    H164019   2.644   5.760   6.399  0.2148 -0.9370 -2.8611
14176TIP3    H264020   2.647   5.910   6.384  1.2648 -0.9297 -2.6117
14177TIP3   OH264021   1.701   0.664   1.681 -0.5426  0.5804  0.2900
14177TIP3    H164022   1.705   0.682   1.587  2.8115 -0.5887  0.1677
14177TIP3    H264023   1.663   0.576   1.687 -0.9293  0.7290  0.0465
14178TIP3   OH264024   2.453   6.521   3.138  0.0772  0.0599 -0.6901
14178TIP3    H164025   2.503   6.486   3.063  0.8673 -0.4349  0.0576
14178TIP3    H264026   2.404   6.446   3.171 -0.2823  0.2841 -0.7124
14179TIP3   OH264027   3.274   5.850  13.268  0.4854 -0.0364  0.3891
14179TIP3    H164028   3.291   5.758  13.251 -0.1069 -0.0083 -0.3947
14179TIP3    H264029   3.204   5.873  13.207  0.9204  1.0404  0.2948
14180TIP3   OH264030   3.911   0.739   4.233 -0.1977 -0.1688 -0.1504
14180TIP3    H164031   3.992   0.724   4.281 -0.3526  0.6230  0.3635
14180TIP3    H264032   3.916   0.830   4.204 -0.7530 -0.2126 -0.3964
14181TIP3   OH264033   3.744   1.448  15.262  0.8044 -0.5006  0.2473
14181TIP3    H164034   3.731   1.543  15.259 -0.9580 -0.6815  1.3694
14181TIP3    H264035   3.814   1.431  15.199  0.6553  1.4565 -0.4735
14182TIP3   OH264036   0.914   3.777   2.348 -0.3294 -0.1090 -0.0777
14182TIP3    H164037   0.830   3.734   2.334 -2.0172  2.6045  1.3984
14182TIP3    H264038   0.952   3.784   2.260 -2.3197 -0.0576 -0.9631
14183TIP3   OH264039   1.675   1.880   1.288  0.7950 -0.3062  0.0922
14183TIP3    H164040   1.733   1.821   1.239 -0.0987 -1.7294  0.7289
14183TIP3    H264041   1.654   1.832   1.368 -1.9352 -0.1585 -0.5027
14184TIP3   OH264042   5.904   2.476  16.937 -0.0675  0.3416  0.4199
14184TIP3    H164043   5.976   2.461  16.877  0.6395 -1.5863  1.6907
14184TIP3    H264044   5.944   2.521  17.011 -0.1679 -0.5942  1.0577
14185TIP3   OH264045   5.055   3.709   2.884  0.2224 -0.1200 -0.0051
14185TIP3    H164046   5.050   3.648   2.811  0.7031 -1.3213  0.9396
14185TIP3    H264047   5.129   3.766   2.863  1.1492 -1.2525  0.1210
14186TIP3   OH264048   4.707   0.135  15.150 -0.0919 -0.0399 -0.0943
14186TIP3    H164049   4.749   0.057  15.186  0.8552  0.7176  0.4674
14186TIP3    H264050   4.651   0.102  15.080 -0.5165 -1.3392  0.8366
14187TIP3   OH264051   5.218   0.579   2.654  0.2248 -0.1074 -0.0846
14187TIP3    H164052   5.281   0.519   2.693  0.8994  0.4510 -0.2911
14187TIP3    H264053   5.141   0.575   2.711 -0.3601 -2.3784 -0.9882
14188TIP3   OH264054   6.052   5.332  15.815  0.5072 -0.4972  0.1159
14188TIP3    H164055   5.988   5.400  15.834  2.3548  0.9676  1.3051
14188TIP3    H264056   6.092   5.359  15.732 -0.2886 -1.3178 -0.5409
14189TIP3   OH264057   5.479   3.731   5.645 -0.5297  0.2773 -0.2127
14189TIP3    H164058   5.538   3.803   5.669  0.9600 -0.5969 -1.1611
14189TIP3    H264059   5.498   3.663   5.710  0.5319 -0.5277 -1.3418
14190TIP3   OH264060   6.390   6.231   0.451  0.0905 -0.3322 -0.3311
14190TIP3    H164061   6.385   6.175   0.374 -0.4293  1.7442 -1.8506
14190TIP3    H264062   6.315   6.205   0.505 -0.5641 -0.5848 -1.3582
14191TIP3   OH264063   0.028   3.567  11.365 -0.6523 -0.8563 -0.7111
14191TIP3    H164064  -0.030   3.619  11.309  0.5508  0.6455 -0.5923
14191TIP3    H264065   0.088   3.524  11.303 -0.5675 -0.7531 -0.7007
14192TIP3   OH264066   3.489   0.876  15.218  0.0677 -0.0729  0.1249
14192TIP3    H164067   3.529   0.853  15.302  3.2843  0.7852 -1.0982
14192TIP3    H264068   3.520   0.965  15.201  0.3991 -0.6756 -2.5243
14193TIP3   OH264069   5.705   5.165  17.211 -0.0440  0.2617 -0.4499
14193TIP3    H164070   5.630   5.109  17.234  0.2572 -0.2072 -0.6150
14193TIP3    H264071   5.769   5.105  17.172  0.8608  0.4764  0.6843
14194TIP3   OH264072   1.640   4.910  16.825 -0.5941 -0.7690  0.7981
14194TIP3    H164073   1.611   4.979  16.884 -1.3871 -0.3118 -0.1046
14194TIP3    H264074   1.571   4.905  16.758 -0.1059 -1.8167  0.3582
14195TIP3   OH264075   1.475   5.826  12.881  0.7556 -0.2938 -0.1640
14195TIP3    H164076   1.492   5.736  12.852  1.3961  0.0643 -0.9013
14195TIP3    H264077   1.396   5.851  12.835  1.1600 -0.1138 -0.7652
14196TIP3   OH264078   2.430   0.690   4.733 -0.0680 -0.5644  0.7511
14196TIP3    H164079   2.520   0.677   4.763 -0.1442  0.6479  1.5529
14196TIP3    H264080   2.396   0.602   4.719  0.4427 -1.1229  2.8440
14197TIP3   OH264081   4.125   3.503  14.789 -0.0545 -0.3320 -0.1157
14197TIP3    H164082   4.128   3.597  14.767 -0.6099 -0.2097  0.3098
14197TIP3    H264083   4.206   3.467  14.753 -0.3445  0.1085 -1.2378
14198TIP3   OH264084   2.099   3.612   6.704  0.8633 -0.8146  0.3281
14198TIP3    H164085   2.070   3.521   6.699  2.7739 -1.6029  2.8112
14198TIP3    H264086   2.188   3.611   6.668  0.5376  0.2844 -0.5589
14199TIP3   OH264087   4.126   6.007  15.940 -0.2615  0.2012 -0.1999
14199TIP3    H164088   4.119   5.914  15.965 -0.2638 -0.4448 -2.4741
14199TIP3    H264089   4.049   6.048  15.978 -1.8763 -1.3524 -1.6938
14200TIP3   OH264090   4.548   5.704   1.401 -0.4283  0.3070  0.2587
14200TIP3    H164091   4.508   5.667   1.479  1.4087 -1.1744  0.5303
14200TIP3    H264092   4.475   5.741   1.351 -1.6247  1.1245  2.5897
14201TIP3   OH264093   1.319   2.238   1.283 -0.0587 -0.0059 -0.2020
14201TIP3    H164094   1.411   2.222   1.305  0.4253  0.1142 -2.0930
14201TIP3    H264095   1.301   2.326   1.316  0.6202  0.1371 -0.2158
14202TIP3   OH264096   6.602   0.285   4.854 -0.3126 -0.2797  0.1807
14202TIP3    H164097   6.624   0.376   4.836 -0.3260 -0.0677  1.1896
14202TIP3    H264098   6.591   0.282   4.949 -3.7291 -0.5966 -0.1759
14203TIP3   OH264099   5.545   5.977   2.080 -0.1967 -0.0712 -0.3567
14203TIP3    H164100   5.475   5.913   2.068 -0.2457  0.1395 -1.2342
14203TIP3    H264101   5.501   6.060   2.093 -0.1358 -0.2475  1.0066
14204TIP3   OH264102   5.187   2.107  13.726  0.2207 -0.6024  0.4330
14204TIP3    H164103   5.220   2.078  13.641  3.2752  2.1546  0.5872
14204TIP3    H264104   5.247   2.068  13.790 -0.0469  0.0625  1.0977
14205TIP3   OH264105   4.630   1.111  14.018  0.5724 -0.1249  0.8177
14205TIP3    H164106   4.582   1.145  13.942  0.3015  1.0962  1.5273
14205TIP3    H264107   4.622   1.016  14.011  1.5004 -0.0735 -1.3043
14206TIP3   OH264108   2.682   1.342  16.996  0.0090 -0.1680 -0.3820
14206TIP3    H164109   2.775   1.322  17.005  0.2989  0.9581 -0.7554
14206TIP3    H264110   2.646   1.328  17.083  0.5633 -0.4719 -0.1955
14207TIP3   OH264111   2.590   3.951   1.232  0.0983  0.1238 -0.0853
14207TIP3    H164112   2.603   3.896   1.155 -0.3289  1.1975 -0.9352
14207TIP3    H264113   2.675   3.953   1.275  1.0491  1.7236 -1.9986
14208TIP3   OH264114   5.668   2.403  16.027  0.4737  0.5245 -0.1447
14208TIP3    H164115   5.608   2.331  16.045  0.7874  0.4866  0.7689
14208TIP3    H264116   5.618   2.483  16.045  0.2179  0.5381 -0.8768
14209TIP3   OH264117   3.405   5.814  13.527  0.0652 -0.0682 -0.2364
14209TIP3    H164118   3.471   5.750  13.499  0.8162 -0.2179  1.7526
14209TIP3    H264119   3.351   5.829  13.450 -0.7359 -3.8718 -0.5318
14210TIP3   OH264120   2.009   6.657  16.055  0.1588 -0.1742  0.1039
14210TIP3    H164121   1.921   6.655  16.017  0.3530 -1.1816 -0.3152
14210TIP3    H264122   2.067   6.664  15.979  0.3940  1.7900  0.4478
14211TIP3   OH264123   5.762   4.104   1.585  0.2512  0.4344 -0.4458
14211TIP3    H164124   5.739   4.069   1.671  0.7446  1.5425  0.1317
14211TIP3    H264125   5.857   4.099   1.581  0.1799 -0.6990 -1.4017
14212TIP3   OH264126   1.502   2.104   2.378 -0.0379  0.3584  0.7509
14212TIP3    H164127   1.416   2.100   2.419  0.1081 -1.7340  0.8721
14212TIP3    H264128   1.557   2.045   2.429  1.1852  0.7659 -0.0431
14213TIP3   OH264129   1.103   3.216   5.696 -0.2660 -0.3447 -0.3089
14213TIP3    H164130   1.056   3.137   5.721 -0.7544 -0.2809 -1.0034
14213TIP3    H264131   1.173   3.224   5.761  0.2282 -1.7307 -0.6599
14214TIP3   OH264132   4.423   3.328  10.598 -0.6630 -0.5525  0.4429
14214TIP3    H164133   4.462   3.255  10.550  1.5543  2.1540 -2.0687
14214TIP3    H264134   4.363   3.368  10.536 -0.3996  0.8986  1.1005
14215TIP3   OH264135   2.890   2.628  13.455  0.0866 -0.1813  0.9150
14215TIP3    H164136   2.942   2.701  13.421 -1.5946  0.9049  0.6451
14215TIP3    H264137   2.825   2.610  13.387 -1.1403 -0.2344  2.0799
14216TIP3   OH264138   1.617   4.295  15.954  0.5687  0.1670 -0.9324
14216TIP3    H164139   1.708   4.270  15.970 -1.0070 -3.0810  4.0045
14216TIP3    H264140   1.580   4.221  15.907 -0.6958 -0.7498  1.4481
14217TIP3   OH264141   6.637   1.911  10.983 -0.1232 -0.4791  0.0016
14217TIP3    H164142   6.619   2.002  11.005 -0.4248 -0.8270  1.2284
14217TIP3    H264143   6.650   1.868  11.068  0.1634 -1.5414 -0.5766
14218TIP3   OH264144   1.676   1.888   2.468  0.0608  0.1126  0.2803
14218TIP3    H164145   1.771   1.884   2.481  0.4708  0.1517 -2.4298
14218TIP3    H264146   1.640   1.865   2.553  2.4850  2.2176  1.9703
14219TIP3   OH264147   3.999   5.516  14.878 -0.1935  0.0478  0.0962
14219TIP3    H164148   3.973   5.484  14.791  0.5041  0.7276 -0.3737
14219TIP3    H264149   4.065   5.583  14.859 -0.0653  0.2172  1.1564
14220TIP3   OH264150   2.094   1.913   3.036  0.1224 -0.3986  0.0083
14220TIP3    H164151   2.175   1.965   3.043  0.1598 -0.4365 -0.1309
14220TIP3    H264152   2.049   1.927   3.119 -0.1830  0.3865 -0.2863
14221TIP3   OH264153   0.101   5.682   5.814  0.1967  0.4872  0.3846
14221TIP3    H164154   0.155   5.700   5.737  0.7881  1.9060  1.0954
14221TIP3    H264155   0.059   5.766   5.833  0.7060  0.3785  2.0899
14222TIP3   OH264156   0.344   2.275   3.587  0.1118  0.7093  0.2034
14222TIP3    H164157   0.342   2.353   3.532  2.3085  2.3402  2.3075
14222TIP3    H264158   0.424   2.229   3.561 -0.5116 -0.1798 -0.1510
14223TIP3   OH264159   3.531   3.653   1.623 -0.7243  0.8763 -0.8131
14223TIP3    H164160   3.479   3.660   1.543  0.4049  1.7928 -1.4819
14223TIP3    H264161   3.616   3.620   1.594 -0.8130 -0.3116  0.2311
14224TIP3   OH264162   4.569   4.862   3.398  0.5504 -0.0543  0.2546
14224TIP3    H164163   4.593   4.949   3.430 -0.8734  0.7583 -0.8189
14224TIP3    H264164   4.588   4.864   3.304  1.3983 -1.2207  0.3917
14225TIP3   OH264165   6.538   2.513  11.304 -0.2336 -0.4817  0.3258
14225TIP3    H164166   6.539   2.516  11.208 -0.1683  2.3155  0.3741
14225TIP3    H264167   6.548   2.420  11.325  4.0243 -0.7645 -2.2947
14226TIP3   OH264168   4.114   3.008  16.291  0.5216 -0.0019  0.0426
14226TIP3    H164169   4.175   3.067  16.246  1.8290 -2.8226 -1.9940
14226TIP3    H264170   4.169   2.938  16.325 -1.3684 -1.6669 -0.2780
14227TIP3   OH264171   5.241   5.447   5.022 -0.0223 -0.4398  0.1081
14227TIP3    H164172   5.153   5.422   4.994  0.0054  1.2060 -1.5727
14227TIP3    H264173   5.227   5.515   5.087 -0.0019  0.0372 -0.3807
14228TIP3   OH264174   0.496   2.335   0.972  0.4256 -0.2504 -0.3831
14228TIP3    H164175   0.474   2.424   0.945  0.5739 -0.3050 -0.6891
14228TIP3    H264176   0.455   2.325   1.058 -0.7038 -0.3345 -0.9173
14229TIP3   OH264177   1.785   3.761  12.833  0.0343  0.2293 -0.9499
14229TIP3    H164178   1.879   3.766  12.813 -0.3576 -1.2658 -3.3536
14229TIP3    H264179   1.752   3.848  12.809 -0.0060 -0.7722 -4.8822
14230TIP3   OH264180   0.899   2.599  16.333  0.5223 -0.2550  0.7795
14230TIP3    H164181   0.908   2.513  16.373  1.2774 -0.6275 -0.1698
14230TIP3    H264182   0.973   2.649  16.369  0.2860 -0.1033  1.0605
14231TIP3   OH264183   5.628   2.053   2.316 -0.0088  0.6785 -0.6570
14231TIP3    H164184   5.558   2.107   2.279 -0.9886  0.7762  1.2699
14231TIP3    H264185   5.601   1.963   2.300 -0.0906  0.7250 -0.7740
14232TIP3   OH264186   6.119   6.650   2.112  0.1304  0.0678 -0.1900
14232TIP3    H164187   6.085   6.561   2.096 -0.2260  0.1289  0.2131
14232TIP3    H264188   6.130   6.687   2.025  2.0904 -1.0409 -0.4474
14233TIP3   OH264189   5.283   0.029   3.897 -0.8715  0.0407  0.4929
14233TIP3    H164190   5.378   0.019   3.892 -0.8789  0.3227 -0.2598
14233TIP3    H264191   5.248  -0.056   3.872 -0.8294  0.1054  0.2160
14234TIP3   OH264192   3.775   3.480   5.085  0.0856 -0.1100  0.2733
14234TIP3    H164193   3.734   3.393   5.076 -0.8790  0.2576  1.0314
14234TIP3    H264194   3.701   3.539   5.100  0.8336  0.6962  0.7734
14235TIP3   OH264195   5.939   3.005  13.814 -0.6308  0.5634 -0.4650
14235TIP3    H164196   5.970   3.037  13.899  0.1450  2.3693 -1.4028
14235TIP3    H264197   5.940   2.910  13.823  0.9858  0.6851  1.0289
14236TIP3   OH264198   0.310   3.082  12.014 -0.7204  0.0320 -0.6233
14236TIP3    H164199   0.344   3.164  11.978  0.2773 -0.6729 -1.3214
14236TIP3    H264200   0.344   3.015  11.956 -0.3377 -1.0070  0.7691
14237TIP3   OH264201   0.687   4.028  13.699  0.5704  0.0203  0.2770
14237TIP3    H164202   0.628   4.104  13.698  0.5644  0.0146 -0.2931
14237TIP3    H264203   0.754   4.051  13.763 -1.0252 -0.7324  2.2542
14238TIP3   OH264204   6.545   4.738   0.625  0.5659  0.1842  0.2426
14238TIP3    H164205   6.513   4.825   0.603  0.4616  0.4533  1.3902
14238TIP3    H264206   6.599   4.752   0.703 -1.7974 -1.1707  2.1939
14239TIP3   OH264207   1.702   2.530  12.895 -0.7770  0.4102  0.6096
14239TIP3    H164208   1.640   2.583  12.946  0.7104  0.7544  2.1119
14239TIP3    H264209   1.774   2.590  12.875 -0.6438 -0.1385 -0.6275
14240TIP3   OH264210   2.997   4.532  13.219  0.5782  0.1098  0.2278
14240TIP3    H164211   3.020   4.478  13.143  1.6650  0.4100  0.3365
14240TIP3    H264212   2.945   4.474  13.274 -1.0236  0.1722 -1.1777
14241TIP3   OH264213   5.775   3.865   2.983  0.0086  0.0224 -0.1615
14241TIP3    H164214   5.812   3.950   3.010 -0.0939 -0.3754  1.2961
14241TIP3    H264215   5.835   3.800   3.020  0.4341 -0.5475 -1.7994
14242TIP3   OH264216   3.868   2.661   3.530  0.0133  0.2104  0.5977
14242TIP3    H164217   3.882   2.753   3.555  1.2415  0.6003 -1.4547
14242TIP3    H264218   3.780   2.661   3.492  0.9875  1.1002 -1.7788
14243TIP3   OH264219   3.591   5.287   3.914 -0.3597  0.6622  0.3515
14243TIP3    H164220   3.547   5.224   3.857  0.5718  0.3822 -0.0619
14243TIP3    H264221   3.604   5.364   3.858 -1.5035  1.2409  0.8563
14244TIP3   OH264222   4.999   1.274   4.385 -0.5822 -0.3387  0.2478
14244TIP3    H164223   4.941   1.347   4.363 -0.4862 -0.0110  1.0871
14244TIP3    H264224   4.990   1.213   4.311 -3.5698 -1.2633  1.3319
14245TIP3   OH264225   6.512   5.013  15.813  0.3082 -0.8534  0.5645
14245TIP3    H164226   6.481   4.931  15.774  1.6040 -0.3661 -1.5595
14245TIP3    H264227   6.567   5.052  15.746 -0.8593  2.1361  1.2729
14246TIP3   OH264228   0.281   0.238   1.664  0.3635  0.0178  0.0264
14246TIP3    H164229   0.319   0.295   1.731  0.9696  0.0495 -0.3448
14246TIP3    H264230   0.349   0.172   1.647  1.2529  1.4742 -2.3912
14247TIP3   OH264231   3.779   2.588  13.707 -0.4185 -0.0681 -0.7779
14247TIP3    H164232   3.744   2.502  13.685 -1.6433  0.1263  0.4097
14247TIP3    H264233   3.775   2.637  13.624 -1.8533 -0.4215 -0.9284
14248TIP3   OH264234   2.490   6.387   4.932 -0.0564  0.0713 -0.1835
14248TIP3    H164235   2.417   6.405   4.992 -2.2865 -1.1571 -2.4016
14248TIP3    H264236   2.553   6.457   4.948 -2.1790  1.7327  1.1421
14249TIP3   OH264237   0.671   2.377  12.029 -0.2077 -0.5206  0.2728
14249TIP3    H164238   0.661   2.464  11.991 -0.7128 -0.7332 -0.0865
14249TIP3    H264239   0.688   2.393  12.122 -0.4104 -0.0428  0.2267
14250TIP3   OH264240   4.595   1.746   5.455  0.0772 -0.5813  0.1362
14250TIP3    H164241   4.554   1.735   5.541  0.1941  0.3171  0.3106
14250TIP3    H264242   4.683   1.778   5.474 -0.7560  2.1446 -0.3841
14251TIP3   OH264243   5.681   3.281   5.195  0.0438  0.0388 -0.5899
14251TIP3    H164244   5.677   3.341   5.121 -1.3131 -1.5887 -1.8753
14251TIP3    H264245   5.772   3.250   5.197  0.5957  1.6454 -0.2768
14252TIP3   OH264246   0.392   5.073   1.702 -0.3512  0.2715 -0.1812
14252TIP3    H164247   0.443   5.148   1.732 -2.1922  1.6472 -0.3949
14252TIP3    H264248   0.347   5.042   1.781 -1.1321  0.6481 -0.4684
14253TIP3   OH264249   4.130   2.307   1.608  0.1381  0.0780 -1.2813
14253TIP3    H164250   4.101   2.379   1.663 -1.4498 -0.8845 -0.8534
14253TIP3    H264251   4.188   2.256   1.664  0.8309  0.6850 -1.4213
14254TIP3   OH264252   4.856   4.428  16.584 -0.0378  0.0515  0.1168
14254TIP3    H164253   4.859   4.367  16.657 -1.4430  0.3988  0.4693
14254TIP3    H264254   4.764   4.432  16.559  0.3012  0.6279 -1.0921
14255TIP3   OH264255   3.936   6.032   1.522 -0.4925 -0.1777  0.3089
14255TIP3    H164256   3.913   5.952   1.475  1.6712 -0.0426 -1.0315
14255TIP3    H264257   4.017   6.010   1.568  0.8367  1.6465 -1.1252
14256TIP3   OH264258   1.222   5.064   0.676 -0.8848  0.3090 -0.3967
14256TIP3    H164259   1.237   4.991   0.737  0.9031  1.5192  0.6593
14256TIP3    H264260   1.272   5.039   0.598  0.3644  0.7386  0.2494
14257TIP3   OH264261   2.078   2.716  16.936  0.3748  0.0319 -0.8710
14257TIP3    H164262   2.035   2.749  16.857  1.3742  0.9457 -1.0430
14257TIP3    H264263   2.006   2.682  16.989 -0.5865  1.5559 -1.1557
14258TIP3   OH264264   6.367   2.812   2.801  0.0397 -0.7974 -0.4838
14258TIP3    H164265   6.397   2.836   2.714 -0.5541 -0.9260 -0.7285
14258TIP3    H264266   6.304   2.741   2.786  0.1859 -1.0506  0.0698
14259TIP3   OH264267   2.737   2.192  14.306  0.3393 -0.5059  0.1138
14259TIP3    H164268   2.677   2.264  14.324  1.6764  1.3400 -2.6176
14259TIP3    H264269   2.686   2.131  14.252  0.1933 -0.0981 -0.2060
14260TIP3   OH264270   4.094   0.664   0.271 -0.1117 -0.3351 -0.2028
14260TIP3    H164271   4.008   0.643   0.235 -0.3712  1.5570 -0.7296
14260TIP3    H264272   4.076   0.734   0.335  0.7900 -1.2841  1.1180
14261TIP3   OH264273   2.555   0.030   4.424 -0.0840  0.6287  0.0476
14261TIP3    H164274   2.649   0.019   4.409 -0.1263 -0.5586  0.5866
14261TIP3    H264275   2.520   0.057   4.340  0.4017 -1.1845 -0.7516
14262TIP3   OH264276   0.065   0.597  15.359  0.2081  0.2659 -0.1004
14262TIP3    H164277   0.134   0.650  15.399 -2.4238  1.4508  3.1311
14262TIP3    H264278   0.050   0.639  15.274  1.8690  1.3789  0.1279
14263TIP3   OH264279   6.751   3.338  14.551 -0.2423  0.2330 -0.0655
14263TIP3    H164280   6.823   3.296  14.597 -0.5833 -1.6275 -1.1988
14263TIP3    H264281   6.689   3.363  14.620  0.9356  0.7915  0.7959
14264TIP3   OH264282   5.112   1.516   6.393  0.0546 -0.6512  0.9215
14264TIP3    H164283   5.176   1.445   6.399 -0.1107 -0.8842 -0.0843
14264TIP3    H264284   5.054   1.501   6.468  1.2809 -0.3245  1.9564
14265TIP3   OH264285   0.693   2.841  15.681  0.3027 -0.0075 -0.1481
14265TIP3    H164286   0.600   2.831  15.659  0.3001 -0.9002  0.2754
14265TIP3    H264287   0.728   2.894  15.609 -0.5309  0.3410 -0.3117
14266TIP3   OH264288   4.606   5.798  15.891  0.0129  0.0962  0.1710
14266TIP3    H164289   4.557   5.722  15.921  0.8054 -0.2930  0.4774
14266TIP3    H264290   4.692   5.790  15.932 -0.0529  1.4093  0.6039
14267TIP3   OH264291   0.962   3.305   4.191  0.1544  0.2994 -0.4389
14267TIP3    H164292   0.979   3.254   4.112  1.8265  0.0508  0.0652
14267TIP3    H264293   0.914   3.246   4.248 -0.6757  0.3369 -1.0797
14268TIP3   OH264294   3.630   3.992  15.767 -0.1343 -0.2001  0.2028
14268TIP3    H164295   3.663   3.970  15.854 -0.8318 -0.7837  0.3263
14268TIP3    H264296   3.548   3.943  15.759 -1.0777  1.3845 -0.0192
14269TIP3   OH264297   2.192   3.570   0.226  0.2939  0.3560 -0.3700
14269TIP3    H164298   2.241   3.489   0.214 -0.2374 -0.3122  1.7070
14269TIP3    H264299   2.161   3.566   0.316 -0.2866  2.5844 -0.4348
14270TIP3   OH264300   4.009   4.681   2.141  0.0966 -0.3240 -0.5279
14270TIP3    H164301   3.985   4.601   2.094  0.5904  0.9811 -3.1126
14270TIP3    H264302   3.934   4.740   2.128  0.1183 -0.0447  0.5809
14271TIP3   OH264303   1.896   0.939  16.966 -0.2002  0.2889 -0.2259
14271TIP3    H164304   1.933   0.876  17.029  0.0411  0.5134 -0.1398
14271TIP3    H264305   1.823   0.893  16.926 -0.1808  0.0414  0.0180
14272TIP3   OH264306   1.912   3.105  16.242  0.0747  0.0656  0.3625
14272TIP3    H164307   1.864   3.179  16.203  0.6867  0.8439  1.0674
14272TIP3    H264308   1.885   3.105  16.334 -0.5982 -1.1510  0.1739
14273TIP3   OH264309   5.469   0.127   1.592  0.3526  0.7304 -0.1344
14273TIP3    H164310   5.484   0.218   1.566  1.6514  0.5309 -0.1323
14273TIP3    H264311   5.548   0.080   1.564  0.4594 -0.0711  1.4043
14274TIP3   OH264312   5.424   1.579  12.702 -0.1379  0.4901 -0.1804
14274TIP3    H164313   5.475   1.507  12.739  1.2712  1.7922  0.4561
14274TIP3    H264314   5.339   1.540  12.680 -0.8922 -0.4592  4.0195
14275TIP3   OH264315   3.255   0.489  11.292  0.3503  0.0144  0.5336
14275TIP3    H164316   3.339   0.526  11.267  0.2311 -0.3885 -0.4806
14275TIP3    H264317   3.211   0.560  11.340  1.1629  0.3042  0.8489
14276TIP3   OH264318   5.638   6.496   0.819 -0.2498 -0.8305  0.3105
14276TIP3    H164319   5.627   6.582   0.780 -1.2415 -0.4259  1.4651
14276TIP3    H264320   5.611   6.435   0.750 -0.0152 -0.2118 -0.3341
14277TIP3   OH264321   0.847   2.611  16.647  0.1277  0.3068 -0.4438
14277TIP3    H164322   0.793   2.558  16.588  0.1313 -0.0829 -0.0990
14277TIP3    H264323   0.936   2.581  16.632  0.3795  1.6743 -1.7692
14278TIP3   OH264324   3.310   5.162   3.885  0.0378  0.4469  0.1892
14278TIP3    H164325   3.305   5.103   3.961 -2.0644  1.4387  0.8450
14278TIP3    H264326   3.352   5.109   3.817  0.0104 -1.1590  1.3882
14279TIP3   OH264327   0.630   3.536   0.775 -0.0989  0.1321  0.4367
14279TIP3    H164328   0.671   3.528   0.689  1.0128 -0.3511  0.9883
14279TIP3    H264329   0.659   3.621   0.808 -2.5602  1.4449 -0.6793
14280TIP3   OH264330   2.889   4.210  15.979 -0.1968 -0.4822 -0.7285
14280TIP3    H164331   2.872   4.300  16.010 -3.9100 -0.8163 -1.5441
14280TIP3    H264332   2.922   4.164  16.057  0.1972  1.1750  0.1102
14281TIP3   OH264333   6.012   5.788  17.243 -0.4467 -0.5069  0.1499
14281TIP3    H164334   6.021   5.826  17.330  0.2652 -1.7883  0.6465
14281TIP3    H264335   5.996   5.863  17.185 -1.5077  0.2964  1.4524
14282TIP3   OH264336   3.562   0.768   2.056 -0.0189 -0.5539  0.1147
14282TIP3    H164337   3.514   0.732   1.981  0.7824 -1.2210 -0.0885
14282TIP3    H264338   3.510   0.742   2.132  0.0716 -1.3673 -0.0947
14283TIP3   OH264339   0.688   2.401  15.766 -0.0949  0.7076  0.2315
14283TIP3    H164340   0.676   2.393  15.861  0.6745 -2.4179  0.1010
14283TIP3    H264341   0.610   2.360  15.728 -0.5073  2.1416 -0.5227
14284TIP3   OH264342   3.457   5.524  12.727  0.4164 -0.3677  0.3049
14284TIP3    H164343   3.450   5.442  12.774  0.8946 -1.1314 -0.9360
14284TIP3    H264344   3.529   5.511  12.664  1.3687  1.4184  0.9575
14285TIP3   OH264345   4.830   5.304  11.369  0.0299 -0.0662 -0.5841
14285TIP3    H164346   4.735   5.307  11.370  0.0825  1.9618 -0.0838
14285TIP3    H264347   4.854   5.269  11.455 -0.2792 -1.9128 -1.2303
14286TIP3   OH264348   2.252   4.147   3.208 -0.0974  0.1550  0.1319
14286TIP3    H164349   2.233   4.094   3.285 -0.6220  0.3569  0.1419
14286TIP3    H264350   2.208   4.230   3.225  3.6907  1.9439  1.7931
14287TIP3   OH264351   2.072   5.171   2.965 -0.1013 -1.3298  0.2094
14287TIP3    H164352   2.049   5.145   3.054 -0.9341 -0.4604  0.2555
14287TIP3    H264353   2.126   5.099   2.931 -1.8314 -2.8036  0.5489
14288TIP3   OH264354   3.723   0.119  15.552  0.2118 -0.3281 -0.2752
14288TIP3    H164355   3.633   0.138  15.578  0.4017  1.3338 -0.7686
14288TIP3    H264356   3.738   0.174  15.475  1.7717 -0.2993  0.0237
14289TIP3   OH264357   1.845   5.217  16.917 -0.0808 -0.0007  0.2827
14289TIP3    H164358   1.895   5.296  16.897  0.1516  0.1752  1.5178
14289TIP3    H264359   1.814   5.186  16.832  1.6479  0.2008 -0.4411
14290TIP3   OH264360   2.598   3.765   6.341 -0.2058 -0.1209 -0.1701
14290TIP3    H164361   2.602   3.839   6.401 -0.9094 -0.3509  0.1555
14290TIP3    H264362   2.593   3.688   6.398 -1.8534 -0.2847 -0.5232
14291TIP3   OH264363   0.411   5.338   5.540 -1.1354 -0.5126  0.4983
14291TIP3    H164364   0.317   5.342   5.523 -0.9022  1.1236 -0.5115
14291TIP3    H264365   0.442   5.428   5.527  0.9832 -1.5066 -1.6754
14292TIP3   OH264366   0.755   1.059   1.866  0.0619 -0.9956 -0.2084
14292TIP3    H164367   0.824   1.120   1.891 -0.5385  0.1656 -1.3184
14292TIP3    H264368   0.800   0.976   1.851  0.7657 -1.1118  2.2668
14293TIP3   OH264369   4.658   3.377  14.486  0.1938 -0.0787  0.3987
14293TIP3    H164370   4.590   3.418  14.539  0.6764 -1.8300  2.4863
14293TIP3    H264371   4.705   3.450  14.446 -2.6948  1.1543 -0.8400
14294TIP3   OH264372   1.378   3.825   1.798  0.1833 -0.4695  0.2769
14294TIP3    H164373   1.338   3.779   1.871  0.8443  0.6513  1.3658
14294TIP3    H264374   1.427   3.896   1.838  1.2776 -0.3565 -1.1939
14295TIP3   OH264375   4.364   6.731   3.891 -0.2667  0.6076 -0.2132
14295TIP3    H164376   4.353   6.825   3.903 -0.6234  0.5877 -0.3683
14295TIP3    H264377   4.370   6.695   3.979 -1.0828  0.6664 -0.1328
14296TIP3   OH264378   4.854   6.382  16.854 -1.0949  0.0866  0.1486
14296TIP3    H164379   4.903   6.388  16.936 -0.3953 -0.3060 -0.2294
14296TIP3    H264380   4.762   6.388  16.880 -0.8554  0.4652  0.9104
14297TIP3   OH264381   1.117   5.787   0.216  0.2233 -0.0370 -0.8329
14297TIP3    H164382   1.144   5.852   0.280 -0.1880 -0.6607 -0.0239
14297TIP3    H264383   1.058   5.729   0.263 -2.1623  1.0070 -2.4527
14298TIP3   OH264384   1.943   2.389   2.057  0.3140  0.2293  0.0327
14298TIP3    H164385   1.963   2.368   2.149 -0.5449  1.0182  0.4089
14298TIP3    H264386   1.855   2.426   2.060 -0.9564 -2.5229 -1.5114
14299TIP3   OH264387   4.679   5.745   2.938  0.3358  0.0827 -0.4744
14299TIP3    H164388   4.659   5.807   2.868  1.8131  0.7242 -0.3349
14299TIP3    H264389   4.675   5.797   3.018 -0.4441 -0.4537 -0.1587
14300TIP3   OH264390   0.613   4.376   3.567  0.3882  0.1707 -0.3342
14300TIP3    H164391   0.540   4.381   3.505  0.2781 -0.3169 -0.2440
14300TIP3    H264392   0.572   4.362   3.652  0.5328  1.0209 -0.1247
14301TIP3   OH264393   5.943   0.961  14.125 -0.2865 -0.1755  0.8693
14301TIP3    H164394   5.936   0.908  14.204  1.2508 -3.3381 -1.0171
14301TIP3    H264395   6.026   0.935  14.085 -0.9377  1.4542 -1.7005
14302TIP3   OH264396   0.175   4.164  16.687  0.1602  0.2836 -0.2867
14302TIP3    H164397   0.200   4.148  16.778  0.0422 -0.4585 -0.3806
14302TIP3    H264398   0.225   4.241  16.661 -0.5790  1.1200  0.7243
14303TIP3   OH264399   1.082   6.630   5.821 -0.0958  0.4067 -0.7368
14303TIP3    H164400   1.162   6.577   5.829  0.6890  1.6786  0.0968
14303TIP3    H264401   1.013   6.575   5.858  0.6247 -0.2264 -0.3125
14304TIP3   OH264402   5.026   5.834   4.672 -0.3818 -0.7425  0.2807
14304TIP3    H164403   4.959   5.786   4.721 -1.6697  0.9909  0.2598
14304TIP3    H264404   5.085   5.868   4.740 -0.4932 -0.8076  0.4102
14305TIP3   OH264405   3.002   6.429  13.704 -0.7489 -0.5459  0.2095
14305TIP3    H164406   3.049   6.381  13.772 -0.0845 -0.5940 -0.2855
14305TIP3    H264407   2.930   6.371  13.680  1.6454 -2.5829 -2.3887
14306TIP3   OH264408   1.939   2.845   1.987 -0.1685 -0.1422 -0.2073
14306TIP3    H164409   1.919   2.824   1.896  0.1807 -0.9934 -0.0868
14306TIP3    H264410   1.856   2.831   2.034 -0.9824  2.5577 -0.7636
14307TIP3   OH264411   4.112   5.315   3.280 -0.3320  0.4272 -0.3596
14307TIP3    H164412   4.024   5.281   3.298 -0.5305  0.8724 -0.4802
14307TIP3    H264413   4.100   5.372   3.204  0.7416 -2.6705 -2.9991
14308TIP3   OH264414   3.458   2.378   3.115  0.3857  0.2317  0.3118
14308TIP3    H164415   3.445   2.467   3.149  0.7153 -0.1091  1.3204
14308TIP3    H264416   3.552   2.371   3.101  0.2417  0.4273 -0.8526
14309TIP3   OH264417   0.873   0.893  16.081  0.0394 -0.0809  0.2448
14309TIP3    H164418   0.944   0.833  16.104  1.6118  1.6819  0.0300
14309TIP3    H264419   0.835   0.919  16.165 -1.1602 -1.9273  0.3163
14310TIP3   OH264420   4.223   5.837  15.524 -0.0054 -0.2970  0.5159
14310TIP3    H164421   4.292   5.852  15.589 -0.1080  0.7463  0.4014
14310TIP3    H264422   4.142   5.853  15.572 -0.1458 -1.0211  0.5187
14311TIP3   OH264423   2.268   6.065   5.845 -0.1632 -0.5888 -0.1367
14311TIP3    H164424   2.292   6.140   5.899 -0.2468  0.2169 -1.1915
14311TIP3    H264425   2.344   6.049   5.790 -1.2259  0.6709 -2.0483
14312TIP3   OH264426   3.317   0.876  16.084 -0.7969 -0.2367  0.1460
14312TIP3    H164427   3.344   0.870  16.176 -2.8946 -0.6838  0.7682
14312TIP3    H264428   3.292   0.787  16.061  0.8063 -0.3447 -1.2278
14313TIP3   OH264429   1.335   2.131   3.181  0.2118 -0.1767  0.3352
14313TIP3    H164430   1.282   2.077   3.239  1.1045 -1.9389 -0.4516
14313TIP3    H264431   1.425   2.100   3.193  0.7694  1.2428 -0.0134
14314TIP3   OH264432   3.812   4.561  12.530 -0.5042 -0.0301 -0.5107
14314TIP3    H164433   3.796   4.606  12.612 -0.2469 -0.9761  0.0605
14314TIP3    H264434   3.727   4.527  12.504 -0.8202  1.2801 -1.2522
14315TIP3   OH264435   1.848   2.503   5.783  0.0070 -0.0307  0.3138
14315TIP3    H164436   1.792   2.461   5.849  2.0926  0.7259  2.6339
14315TIP3    H264437   1.791   2.567   5.740 -1.2783 -0.2132  1.6967
14316TIP3   OH264438   2.965   6.616   0.383 -0.1461  0.4598 -0.0011
14316TIP3    H164439   2.965   6.706   0.350 -0.2765 -0.2640 -2.0202
14316TIP3    H264440   2.873   6.591   0.386  0.0697 -0.7256 -2.6090
14317TIP3   OH264441   0.535   6.079   3.230 -0.3882  0.5345  0.2935
14317TIP3    H164442   0.596   6.087   3.304 -0.9253  0.3140  0.7621
14317TIP3    H264443   0.535   6.165   3.189  1.9744 -0.0592 -1.0903
14318TIP3   OH264444   0.127   3.936   2.074 -0.0730 -0.5073  0.0618
14318TIP3    H164445   0.103   3.859   2.126 -1.8811  0.7687  1.2021
14318TIP3    H264446   0.112   4.010   2.133  0.6380  0.7938 -1.3506
14319TIP3   OH264447   5.451   6.558   1.007 -0.0057 -0.3940 -0.7409
14319TIP3    H164448   5.511   6.502   0.959 -0.7422  0.4023 -2.6676
14319TIP3    H264449   5.503   6.635   1.030  1.1350 -1.9922  2.3187
14320TIP3   OH264450   4.991   2.984   0.642  0.1393 -0.4834  0.2922
14320TIP3    H164451   4.975   3.079   0.643  1.1097 -0.3266  1.3970
14320TIP3    H264452   4.978   2.959   0.551 -0.7655  0.6033  0.1084
14321TIP3   OH264453   3.044   1.980  15.842  0.6909  0.1943 -0.5184
14321TIP3    H164454   3.135   2.010  15.845  0.5679  0.6694 -1.3813
14321TIP3    H264455   3.040   1.923  15.764  0.5141 -0.7123  0.1443
14322TIP3   OH264456   5.456   6.020  15.818  0.0018 -0.1575 -0.2874
14322TIP3    H164457   5.397   6.043  15.747  0.3130  0.6292 -0.2903
14322TIP3    H264458   5.514   5.953  15.780  0.8194  0.9862 -1.0902
14323TIP3   OH264459   6.555   3.233   0.458 -0.1435 -0.4434 -0.2662
14323TIP3    H164460   6.621   3.296   0.430 -0.6534 -0.7081 -2.0697
14323TIP3    H264461   6.598   3.185   0.529  0.9100  0.6729 -0.1272
14324TIP3   OH264462   3.013   5.868   2.046 -0.0351  0.4145 -0.3026
14324TIP3    H164463   2.957   5.791   2.043  1.1059 -0.5116  1.4398
14324TIP3    H264464   3.102   5.833   2.055  0.6935  1.8974 -1.3981
14325TIP3   OH264465   0.739   1.348   4.990  0.1969  0.3891  0.1501
14325TIP3    H164466   0.762   1.276   4.931  0.2570  1.3760 -1.0688
14325TIP3    H264467   0.670   1.313   5.046  0.6146 -0.7799 -0.0696
14326TIP3   OH264468   4.545   0.710   2.924  0.4825  0.3975  0.2754
14326TIP3    H164469   4.496   0.642   2.880 -0.4105  0.7294  0.7507
14326TIP3    H264470   4.580   0.668   3.002  0.0621  0.4358  0.4869
14327TIP3   OH264471   2.085   5.132   0.184  0.6489 -0.6401 -0.1636
14327TIP3    H164472   2.112   5.166   0.099  0.6005 -2.1392 -0.8088
14327TIP3    H264473   2.006   5.081   0.165 -0.7657  1.0309  1.1898
14328TIP3   OH264474   0.679   1.898   2.809 -0.4311  0.1196  0.0815
14328TIP3    H164475   0.723   1.845   2.743  0.8370 -0.0466  1.0316
14328TIP3    H264476   0.607   1.843   2.841  0.6398 -0.8944  0.7856
14329TIP3   OH264477   0.122   4.837  16.978  0.1164  0.3120  0.1419
14329TIP3    H164478   0.126   4.748  17.013  1.8011  0.5864  0.6772
14329TIP3    H264479   0.203   4.878  17.007  0.0139  1.5814 -1.3153
14330TIP3   OH264480   3.115   5.527   0.251 -0.5537  0.5481  0.0808
14330TIP3    H164481   3.056   5.591   0.211 -2.6600 -1.1862  0.3697
14330TIP3    H264482   3.086   5.443   0.216  0.5459 -0.5173  1.7110
14331TIP3   OH264483   0.624   6.187  12.684  0.1531  0.6356  0.2619
14331TIP3    H164484   0.587   6.166  12.598 -0.5506  2.6644  0.0331
14331TIP3    H264485   0.600   6.113  12.739 -1.7635  0.5650 -0.6100
14332TIP3   OH264486   5.262   6.422  14.137  0.2185 -0.5928 -0.3656
14332TIP3    H164487   5.173   6.394  14.115 -0.6096  1.9424 -0.3659
14332TIP3    H264488   5.252   6.478  14.214  1.9352 -1.0671  0.2276
14333TIP3   OH264489   3.477   3.487   2.350 -0.8367 -0.0247 -0.1902
14333TIP3    H164490   3.386   3.497   2.319 -1.0513  0.0297  0.4629
14333TIP3    H264491   3.529   3.535   2.285 -1.3901  1.0486  0.1481
14334TIP3   OH264492   1.230   5.404  14.125 -0.3178  0.5103  0.5631
14334TIP3    H164493   1.235   5.379  14.217  1.0247 -0.4686  0.2335
14334TIP3    H264494   1.308   5.457  14.110 -0.6537  0.8639  0.0434
14335TIP3   OH264495   5.657   4.327   1.423 -0.8906 -0.8710 -0.2868
14335TIP3    H164496   5.676   4.246   1.470 -0.3816 -0.4179  0.2872
14335TIP3    H264497   5.583   4.304   1.365  0.5814 -2.2978 -1.6554
14336TIP3   OH264498   6.314   2.604   5.186 -0.5936 -0.0843 -0.2868
14336TIP3    H164499   6.368   2.580   5.261 -0.3281  1.3945  0.0075
14336TIP3    H264500   6.376   2.613   5.113 -0.7088 -0.4491 -0.4288
14337TIP3   OH264501   1.670   2.678  11.530  0.2135  0.2399  0.1523
14337TIP3    H164502   1.617   2.700  11.454 -0.6955 -1.6088  0.2218
14337TIP3    H264503   1.702   2.589  11.512 -0.5334 -0.4813  2.2071
14338TIP3   OH264504   1.972   1.591   1.817  0.2945  0.3483 -0.3023
14338TIP3    H164505   1.962   1.543   1.734  1.3481  0.0217 -0.2413
14338TIP3    H264506   2.057   1.634   1.809  0.6890 -0.2138  0.8823
14339TIP3   OH264507   0.583   1.348  12.671  0.4194  0.1754 -0.5979
14339TIP3    H164508   0.487   1.356  12.678  0.6862  2.5050  1.1459
14339TIP3    H264509   0.600   1.254  12.679 -1.6758 -0.2040 -0.2631
14340TIP3   OH264510   1.326   6.739  11.803  0.7476 -0.1588  0.2479
14340TIP3    H164511   1.396   6.773  11.746  1.2166  1.2084  1.6053
14340TIP3    H264512   1.249   6.736  11.747  2.1476 -2.9349 -1.6614
14341TIP3   OH264513   5.574   4.867   0.550  0.1151 -0.0791 -0.4379
14341TIP3    H164514   5.559   4.946   0.601  1.9202 -1.2261  1.9951
14341TIP3    H264515   5.650   4.887   0.496  1.3068 -0.4924  1.0411
14342TIP3   OH264516   4.580   5.434  11.421  0.3170 -0.0560 -0.2958
14342TIP3    H164517   4.496   5.399  11.450 -1.3560  2.9600 -1.2541
14342TIP3    H264518   4.625   5.458  11.502 -1.5123  2.0709  0.1664
14343TIP3   OH264519   6.040   0.426   5.179 -0.0914 -0.5287 -0.1713
14343TIP3    H164520   5.988   0.459   5.252 -0.5380  1.0174 -1.1395
14343TIP3    H264521   5.978   0.376   5.126 -0.7782  1.7154 -1.5795
14344TIP3   OH264522   0.546   1.531  13.368 -0.2650  0.2290 -0.1575
14344TIP3    H164523   0.597   1.601  13.408 -1.1928  0.8779 -0.0994
14344TIP3    H264524   0.586   1.518  13.282 -0.4817  1.2561 -0.4170
14345TIP3   OH264525   4.447   6.047  11.499  0.6100  0.3123  0.5089
14345TIP3    H164526   4.380   6.111  11.521 -0.7692 -0.9784  0.1267
14345TIP3    H264527   4.520   6.099  11.465 -1.1036  1.5527 -1.3205
14346TIP3   OH264528   4.195   0.720  12.644 -0.0401 -0.4239 -0.2173
14346TIP3    H164529   4.119   0.739  12.699 -0.2836 -1.4715 -0.1805
14346TIP3    H264530   4.213   0.627  12.660  0.9967 -0.2822 -0.5337
14347TIP3   OH264531   1.007   2.361   1.096 -0.4087  0.8495 -0.0394
14347TIP3    H164532   1.067   2.327   1.029 -1.8380 -0.2540 -0.7851
14347TIP3    H264533   0.920   2.342   1.062 -1.1631  0.4089  2.0919
14348TIP3   OH264534   1.594   3.937  17.235  0.1818 -0.2361 -0.3565
14348TIP3    H164535   1.504   3.970  17.232  0.0130 -0.7686 -1.5083
14348TIP3    H264536   1.647   4.015  17.249 -0.4512  0.0870  0.3109
14349TIP3   OH264537   1.106   0.269  15.280  0.8120  0.9006  0.1505
14349TIP3    H164538   1.103   0.217  15.200 -1.1047  2.0616 -0.5556
14349TIP3    H264539   1.038   0.231  15.337  0.1295  1.9477  0.0463
14350TIP3   OH264540   1.323   4.035  17.243 -0.4289  0.2831 -0.3216
14350TIP3    H164541   1.235   4.010  17.213  0.6699 -0.8505 -2.6922
14350TIP3    H264542   1.319   4.131  17.251 -1.5316  0.3631 -1.6044
14351TIP3   OH264543   0.768   5.588  17.167 -0.0559  0.3590 -0.2938
14351TIP3    H164544   0.728   5.591  17.254 -0.8193  1.7975 -0.6847
14351TIP3    H264545   0.861   5.601  17.183  0.3431 -3.0452  0.6229
14352TIP3   OH264546   2.689   0.686   4.840 -0.1290  0.2175 -0.2399
14352TIP3    H164547   2.741   0.748   4.891  0.0773  0.0602 -0.2602
14352TIP3    H264548   2.733   0.602   4.852  0.9092  0.4756 -2.0579
14353TIP3   OH264549   0.394   6.111  16.732  0.1526 -0.0958  0.2205
14353TIP3    H164550   0.407   6.048  16.661 -0.2960 -2.0424  1.7999
14353TIP3    H264551   0.454   6.081  16.801 -0.5992  0.7703  1.2603
14354TIP3   OH264552   3.014   6.525  12.392 -0.5086  0.0289 -0.0710
14354TIP3    H164553   2.985   6.551  12.480 -1.6601 -0.6751 -0.2296
14354TIP3    H264554   3.096   6.572  12.379 -0.9350  1.0682  0.9091
14355TIP3   OH264555   5.309   4.842  15.981  0.3214  0.1897 -0.6300
14355TIP3    H164556   5.282   4.829  15.890  0.0958 -0.3829 -0.4830
14355TIP3    H264557   5.272   4.767  16.028 -1.9423  1.9369  0.4307
14356TIP3   OH264558   0.811   4.737  14.765  0.0481 -0.2533 -0.2542
14356TIP3    H164559   0.730   4.717  14.812 -0.0111 -0.9606 -0.6465
14356TIP3    H264560   0.784   4.748  14.674  0.4397 -0.8355 -0.4433
14357TIP3   OH264561   0.123   2.257   1.995 -0.2626  0.3203 -0.0548
14357TIP3    H164562   0.094   2.309   2.070  0.9181 -2.5658  2.5049
14357TIP3    H264563   0.057   2.188   1.987  1.4490 -1.4110  0.5448
14358TIP3   OH264564   1.334   4.188   4.779  0.2788 -0.3908  0.2731
14358TIP3    H164565   1.385   4.229   4.848  2.2158 -1.3696 -0.5251
14358TIP3    H264566   1.297   4.110   4.820 -0.1153  0.0151  0.6986
14359TIP3   OH264567   1.951   2.374   2.330 -0.5407  0.4483 -0.5257
14359TIP3    H164568   1.948   2.464   2.363 -1.8821  0.4303 -0.5906
14359TIP3    H264569   1.871   2.334   2.363 -0.0587 -0.6631 -0.6936
14360TIP3   OH264570   1.554   6.765  14.221 -0.2010 -0.1152 -0.2116
14360TIP3    H164571   1.534   6.844  14.171 -0.0329 -0.5098 -0.9080
14360TIP3    H264572   1.640   6.738  14.189 -0.6950 -1.1321 -0.6903
14361TIP3   OH264573   1.410   4.998   5.126  0.1864  0.0000  0.2634
14361TIP3    H164574   1.353   4.931   5.165  1.3529 -1.0607  0.1659
14361TIP3    H264575   1.431   5.057   5.198 -2.6463  1.5788 -0.1121
14362TIP3   OH264576   3.288   6.378  11.162 -0.3370 -0.4007 -0.1442
14362TIP3    H164577   3.311   6.313  11.229 -0.3559 -0.7270 -0.4500
14362TIP3    H264578   3.249   6.326  11.092 -3.7598  0.3203  1.1419
14363TIP3   OH264579   2.659   2.909  13.365  0.4336  0.2697 -0.2927
14363TIP3    H164580   2.751   2.929  13.352 -0.0145  2.4481 -0.3584
14363TIP3    H264581   2.637   2.946  13.450  0.3984 -3.2349  1.3100
14364TIP3   OH264582   0.472   0.378  17.103 -0.1660  0.1028  0.3429
14364TIP3    H164583   0.523   0.377  17.022  0.1532 -0.4039  0.5549
14364TIP3    H264584   0.457   0.471  17.120  0.1019  0.2261 -0.0869
14365TIP3   OH264585   5.588   5.322   4.738  0.0174 -0.8307  0.1155
14365TIP3    H164586   5.583   5.249   4.800  0.8576 -0.2889  0.8219
14365TIP3    H264587   5.527   5.387   4.773 -0.7361 -1.1799 -0.5176
14366TIP3   OH264588   1.186   1.412   3.494  0.0965 -0.4701  0.3379
14366TIP3    H164589   1.178   1.317   3.484  0.0820 -0.3959 -0.3885
14366TIP3    H264590   1.130   1.433   3.568  0.5882 -1.1110  0.9043
14367TIP3   OH264591   2.455   3.570  11.607 -0.3980  0.4563  0.1662
14367TIP3    H164592   2.367   3.535  11.592 -1.1823  2.5200 -0.1862
14367TIP3    H264593   2.447   3.621  11.687  0.7898 -0.3727  0.8136
14368TIP3   OH264594   4.901   0.808  12.916  0.4165  0.8181  0.2856
14368TIP3    H164595   4.840   0.765  12.856 -0.9797  1.7160  1.0285
14368TIP3    H264596   4.933   0.884  12.867  1.3731  0.0535 -0.3002
14369TIP3   OH264597   5.929   1.799  13.155 -0.1035  0.2691 -0.1477
14369TIP3    H164598   5.939   1.853  13.234  0.5955  0.5824 -0.4479
14369TIP3    H264599   6.017   1.765  13.139 -0.7068 -1.6384  0.5187
14370TIP3   OH264600   2.012   6.788  17.024  0.4404  0.1088 -0.6922
14370TIP3    H164601   1.934   6.841  17.007  0.8217  1.1772  0.7259
14370TIP3    H264602   1.981   6.719  17.083  0.0038 -1.0808 -2.3107
14371TIP3   OH264603   5.621   3.034  16.613 -0.3099 -0.4367  0.3585
14371TIP3    H164604   5.655   3.072  16.694  0.3692  1.4860 -0.8022
14371TIP3    H264605   5.538   3.080  16.598  0.4373  0.5236 -0.9735
14372TIP3   OH264606   3.813   2.658   0.100  0.0936  0.0709  0.2716
14372TIP3    H164607   3.735   2.602   0.097  0.5940 -0.6247 -0.0857
14372TIP3    H264608   3.824   2.687   0.010 -0.7962  1.6582  0.6495
14373TIP3   OH264609   2.444   4.596  14.293  0.6492  0.2673  0.9184
14373TIP3    H164610   2.440   4.604  14.388 -0.4062  2.0532  0.7342
14373TIP3    H264611   2.533   4.622  14.271  0.9061 -0.1774  1.4154
14374TIP3   OH264612   1.861   4.396  14.910  0.7050 -0.0422  0.5026
14374TIP3    H164613   1.775   4.437  14.902  1.4643  1.4964 -0.0336
14374TIP3    H264614   1.854   4.338  14.985 -1.3474 -1.3140 -0.6474
14375TIP3   OH264615   5.815   5.273  13.172 -0.5786 -0.4425  1.1167
14375TIP3    H164616   5.774   5.211  13.111  0.1632 -0.8180  0.9975
14375TIP3    H264617   5.909   5.261  13.158 -0.4286  0.6191  1.1827
14376TIP3   OH264618   2.034   6.650   5.657  0.1354 -0.5144 -0.7532
14376TIP3    H164619   2.128   6.669   5.666  0.0244 -0.7112  0.7970
14376TIP3    H264620   1.996   6.735   5.635  0.2584  0.2508  1.8096
14377TIP3   OH264621   5.065   3.088   4.438 -0.3427  0.3675  0.3724
14377TIP3    H164622   4.992   3.145   4.461 -0.2340  1.0018 -0.7961
14377TIP3    H264623   5.028   3.000   4.438 -0.8408  0.5709  0.8298
14378TIP3   OH264624   3.738   6.217  11.413  0.9157  0.0390 -0.0512
14378TIP3    H164625   3.666   6.231  11.351  0.7169  1.0078  0.3824
14378TIP3    H264626   3.780   6.137  11.383  1.4288  0.9950 -2.0298
14379TIP3   OH264627   1.756   6.678  12.662 -0.1131  0.4436 -0.2361
14379TIP3    H164628   1.843   6.668  12.699 -0.1451  0.8196 -0.0519
14379TIP3    H264629   1.766   6.747  12.596  0.2994 -1.3784 -2.0968
14380TIP3   OH264630   2.084   1.801  12.207 -0.1299 -0.3030 -0.1177
14380TIP3    H164631   2.021   1.824  12.140 -0.9697 -0.1259  0.7241
14380TIP3    H264632   2.168   1.799  12.162 -0.3457  2.1850 -0.6743
14381TIP3   OH264633   5.739   2.490  13.010 -0.2430 -0.1119 -0.1559
14381TIP3    H164634   5.677   2.422  13.035 -0.2076 -0.7074 -1.6217
14381TIP3    H264635   5.759   2.535  13.091 -0.1354 -1.9567  0.8678
14382TIP3   OH264636   5.562   4.913   6.347  0.0988  0.2576 -0.1998
14382TIP3    H164637   5.469   4.893   6.356 -0.6396  2.9830 -1.2451
14382TIP3    H264638   5.566   4.979   6.278  2.8631 -0.0744 -0.4348
14383TIP3   OH264639   3.313   5.752   1.198  0.8437 -0.6418 -0.5533
14383TIP3    H164640   3.401   5.777   1.172  1.0052  0.3190  0.8526
14383TIP3    H264641   3.305   5.781   1.289 -0.6218 -1.4884 -0.3858
14384TIP3   OH264642   0.549   1.541   0.345  0.0834  0.0042  0.3418
14384TIP3    H164643   0.627   1.492   0.318 -0.0191  0.6693 -1.2428
14384TIP3    H264644   0.567   1.631   0.317 -0.1198  0.7043  2.3793
14385TIP3   OH264645   1.486   2.226   5.367  0.0653 -0.0546  0.0425
14385TIP3    H164646   1.495   2.201   5.459 -0.7347  1.7656  0.6391
14385TIP3    H264647   1.477   2.143   5.320 -3.3752 -0.8906  2.0528
14386TIP3   OH264648   6.168   0.513   2.358 -0.3321  0.0535  0.7857
14386TIP3    H164649   6.252   0.555   2.339  0.3805 -1.2616  0.9289
14386TIP3    H264650   6.168   0.434   2.304 -1.5789  0.1496  0.6269
14387TIP3   OH264651   6.498   2.194  16.262  0.3089 -0.6732  0.1154
14387TIP3    H164652   6.571   2.166  16.318 -0.0961 -0.7269  0.6130
14387TIP3    H264653   6.539   2.254  16.199  0.7147 -0.4147  0.6223
14388TIP3   OH264654   4.747   3.169   4.242  0.1046 -0.0095  1.0013
14388TIP3    H164655   4.808   3.243   4.247 -0.4904  0.4962  0.8855
14388TIP3    H264656   4.664   3.208   4.215  0.2576 -0.9879 -0.9899
14389TIP3   OH264657   1.100   6.044  14.079  0.2451 -0.2577  0.2736
14389TIP3    H164658   1.150   6.005  14.008  2.3440  0.4896  1.3080
14389TIP3    H264659   1.013   6.057  14.042  0.6735 -1.9458 -1.4374
14390TIP3   OH264660   3.100   1.063  10.489 -0.1387  0.2166  0.0379
14390TIP3    H164661   3.104   0.977  10.448  0.6922 -0.1157  0.8107
14390TIP3    H264662   3.169   1.062  10.555 -1.0011  1.0045  0.9589
14391TIP3   OH264663   0.911   5.072  13.958 -0.1935  0.8938  0.1281
14391TIP3    H164664   0.942   5.056  13.869  1.7985 -1.1817  1.1289
14391TIP3    H264665   0.932   5.164  13.975  1.0911  0.8018 -0.8993
14392TIP3   OH264666   3.348   1.563  14.183  0.3569 -0.4399 -0.4292
14392TIP3    H164667   3.369   1.644  14.136  0.3820  0.2423  0.7201
14392TIP3    H264668   3.286   1.517  14.127 -1.2225  1.3396 -0.2014
14393TIP3   OH264669   4.309   6.237   4.039  0.0819  0.4695  0.1413
14393TIP3    H164670   4.372   6.304   4.012 -0.6401  1.1346  0.0698
14393TIP3    H264671   4.291   6.256   4.131  2.8794 -2.0703  1.2944
14394TIP3   OH264672   2.315   5.456  13.354  0.7932  0.6713 -0.0490
14394TIP3    H164673   2.262   5.377  13.362 -0.7767  1.8637  1.6831
14394TIP3    H264674   2.373   5.453  13.430  2.0412  0.2736 -0.9883
14395TIP3   OH264675   3.283   4.769   3.696  0.1019 -0.3066  0.4180
14395TIP3    H164676   3.272   4.713   3.619 -0.8628  0.0146  0.3138
14395TIP3    H264677   3.378   4.777   3.707  0.2564 -1.8716  0.3650
14396TIP3   OH264678   2.032   6.543   2.214 -0.6778  0.8117 -0.7984
14396TIP3    H164679   1.944   6.579   2.221 -0.2556  2.0254 -1.5970
14396TIP3    H264680   2.086   6.602   2.268 -0.3772  0.0149 -0.2250
14397TIP3   OH264681   2.669   4.361   4.272  0.3820  0.3588 -0.1171
14397TIP3    H164682   2.715   4.409   4.203  0.9489 -0.9335 -0.6553
14397TIP3    H264683   2.588   4.410   4.285  1.5023  2.1649  0.2174
14398TIP3   OH264684   2.513   6.394  12.710  0.3476  0.1760 -0.3642
14398TIP3    H164685   2.453   6.384  12.636  0.1445 -1.9688  0.0648
14398TIP3    H264686   2.590   6.438  12.673  0.2576 -0.8965 -1.8640
14399TIP3   OH264687   6.316   2.230  13.829 -0.3238 -0.1054  0.6804
14399TIP3    H164688   6.261   2.245  13.752 -0.6070  1.0241  1.0871
14399TIP3    H264689   6.263   2.262  13.902  0.3374 -0.2593  1.2279
14400TIP3   OH264690   4.980   6.152   5.010 -0.5473 -0.2976 -0.5383
14400TIP3    H164691   4.997   6.058   5.002 -0.4822 -0.3561  0.2741
14400TIP3    H264692   5.060   6.189   5.047 -1.1653 -0.1742  0.7202
14401TIP3   OH264693   5.550   4.782   5.514 -0.0468  0.3428  0.0485
14401TIP3    H164694   5.469   4.733   5.529  0.6688 -0.9722 -0.2735
14401TIP3    H264695   5.562   4.780   5.419  1.2129 -0.9006  0.2105
14402TIP3   OH264696   1.349   1.260  13.211 -0.5698 -0.0981  0.0192
14402TIP3    H164697   1.350   1.355  13.195  1.8466 -0.3258 -1.3550
14402TIP3    H264698   1.383   1.250  13.300  1.9730  0.1758 -0.8868
14403TIP3   OH264699   2.490   5.267  17.269 -0.3438  0.2299  0.2336
14403TIP3    H164700   2.458   5.271  17.359  0.9756  2.4122  0.6417
14403TIP3    H264701   2.583   5.286  17.276  0.5778 -3.4021 -1.2296
14404TIP3   OH264702   5.235   2.786  11.017 -0.0879 -0.0737 -0.7206
14404TIP3    H164703   5.146   2.753  11.027  1.1814 -3.7748 -0.7839
14404TIP3    H264704   5.275   2.773  11.103  0.5576  1.1445 -0.8171
14405TIP3   OH264705   1.890   5.787  10.660 -0.1041 -0.1641  0.2643
14405TIP3    H164706   1.855   5.698  10.669  3.0578 -1.4798  0.5772
14405TIP3    H264707   1.814   5.844  10.662 -2.1141 -2.7903  1.4203
14406TIP3   OH264708   6.043   3.511  11.516  0.1858  0.0919 -0.0165
14406TIP3    H164709   5.983   3.553  11.454 -0.1591 -0.1142  0.1773
14406TIP3    H264710   6.007   3.531  11.602  0.3718 -0.0699  0.0992
14407TIP3   OH264711   5.183   0.769  12.951 -0.0915 -0.1091  0.5701
14407TIP3    H164712   5.090   0.749  12.956  0.1016 -1.2926 -0.2474
14407TIP3    H264713   5.221   0.727  13.029 -0.3927  1.3070  1.4856
14408TIP3   OH264714   6.477   4.099   3.980  0.3388 -0.1014  0.2498
14408TIP3    H164715   6.435   4.147   4.051  0.4607 -0.5732  0.6495
14408TIP3    H264716   6.473   4.007   4.008 -1.5738 -0.5342 -1.3494
14409TIP3   OH264717   5.146   3.018  12.466 -0.2200  0.3528 -0.1763
14409TIP3    H164718   5.161   2.950  12.401  0.3202 -0.5440  0.8622
14409TIP3    H264719   5.207   3.088  12.442  0.0866 -0.0433 -0.5563
14410TIP3   OH264720   0.059   1.531   0.423 -0.5835  0.3859 -0.1542
14410TIP3    H164721   0.115   1.498   0.353  0.9040  0.0887  1.1601
14410TIP3    H264722   0.035   1.619   0.394 -0.3889  0.0910 -1.2610
14411TIP3   OH264723   3.697   2.832   1.588 -0.5234  0.4225  0.1213
14411TIP3    H164724   3.687   2.827   1.684 -2.0199 -0.6353 -0.0689
14411TIP3    H264725   3.745   2.753   1.564  1.0140  1.3397  0.1225
14412TIP3   OH264726   5.006   6.704   5.373  0.1336  0.2177  0.3289
14412TIP3    H164727   4.938   6.767   5.394 -0.5507 -0.1605 -0.7229
14412TIP3    H264728   5.031   6.724   5.283  0.4043 -0.5531  0.2277
14413TIP3   OH264729   1.561   5.790   5.005 -0.1972 -0.1142 -0.8158
14413TIP3    H164730   1.645   5.787   5.050 -0.1974  2.1256 -0.6204
14413TIP3    H264731   1.579   5.836   4.922 -1.4972  1.8423 -0.0658
14414TIP3   OH264732   4.483   4.797  10.327  0.0937 -0.2909  0.1627
14414TIP3    H164733   4.479   4.702  10.321  0.7504 -0.2448 -1.2062
14414TIP3    H264734   4.574   4.816  10.348  0.4426  0.1123 -1.6361
14415TIP3   OH264735   4.757   0.171  13.600  0.3090  0.0151  0.2050
14415TIP3    H164736   4.697   0.229  13.554  0.2751 -0.0081  0.2198
14415TIP3    H264737   4.713   0.149  13.681  1.4687  2.0896  1.4261
14416TIP3   OH264738   0.392   1.359   2.472  0.5152  0.1816  0.3261
14416TIP3    H164739   0.452   1.295   2.509  0.4800  0.1623  0.3494
14416TIP3    H264740   0.378   1.330   2.382 -0.9199 -0.8568  0.8749
14417TIP3   OH264741   4.439   0.046   4.904  0.2146 -0.1700 -0.2561
14417TIP3    H164742   4.524   0.018   4.871  1.0850  0.7754  1.0904
14417TIP3    H264743   4.426   0.134   4.868 -0.2943 -0.3969 -0.6352
14418TIP3   OH264744   5.624   0.873   2.647 -0.1826 -0.3124  0.2550
14418TIP3    H164745   5.588   0.920   2.722  0.6739  0.5115  0.1605
14418TIP3    H264746   5.689   0.933   2.610 -1.0548 -0.4503 -1.5343
14419TIP3   OH264747   6.538   6.806   4.168 -0.2620 -0.0374 -0.0273
14419TIP3    H164748   6.547   6.748   4.242  0.7144  1.1614  0.8145
14419TIP3    H264749   6.544   6.894   4.205  1.3782  0.5723 -1.6541
14420TIP3   OH264750   4.116   6.591  10.411 -0.5277 -0.3479  0.8222
14420TIP3    H164751   4.037   6.596  10.464 -1.4010 -0.2755 -0.4597
14420TIP3    H264752   4.120   6.676  10.366  0.0565 -0.5032  0.5754
14421TIP3   OH264753   1.080   3.566  14.039 -0.0170  0.7106 -0.0058
14421TIP3    H164754   0.985   3.556  14.035 -0.0063  1.0019 -1.1902
14421TIP3    H264755   1.102   3.551  14.131 -1.0100 -1.0274 -0.0417
14422TIP3   OH264756   6.297   3.402  12.229 -0.0170  0.6946 -0.2268
14422TIP3    H164757   6.315   3.456  12.152 -0.9279  1.5082  0.1259
14422TIP3    H264758   6.205   3.378  12.220  0.6203 -1.6790 -0.9243
14423TIP3   OH264759   6.271   2.480  11.601  0.1145  0.0486  0.4905
14423TIP3    H164760   6.274   2.464  11.507 -1.1600  1.7089  0.1465
14423TIP3    H264761   6.269   2.576  11.608  0.4487 -0.0644  2.2157
14424TIP3   OH264762   2.919   3.055  12.311  0.3125 -0.3145 -0.0217
14424TIP3    H164763   2.950   3.009  12.389 -1.1293 -1.1335  0.0985
14424TIP3    H264764   2.906   3.145  12.340 -3.3183 -1.2677  1.6400
14425TIP3   OH264765   0.105   2.208   3.497 -0.6776 -0.0359 -0.0548
14425TIP3    H164766   0.198   2.198   3.516 -0.6089 -0.9976 -0.8132
14425TIP3    H264767   0.100   2.290   3.447 -0.0602 -0.5778 -1.0426
14426TIP3   OH264768   6.403   2.664   1.542 -0.3893  0.3343  0.8258
14426TIP3    H164769   6.463   2.610   1.593  2.2437  0.9757 -1.4740
14426TIP3    H264770   6.423   2.754   1.569 -0.8301  0.4992  0.6006
14427TIP3   OH264771   0.673   0.129   1.130 -0.6747  0.5161  0.0197
14427TIP3    H164772   0.680   0.108   1.037 -1.6445 -0.8789  0.2426
14427TIP3    H264773   0.672   0.225   1.132 -0.7055  0.5674 -1.4079
14428TIP3   OH264774   1.694   2.888   2.430 -0.0568  0.1846  0.4471
14428TIP3    H164775   1.650   2.861   2.510 -0.0429 -0.3619  0.2713
14428TIP3    H264776   1.752   2.959   2.457  0.9295 -0.8881  1.1618
14429TIP3   OH264777   3.898   0.546  16.161  0.4059  0.0787 -0.4226
14429TIP3    H164778   3.813   0.590  16.174 -1.0546 -2.7796 -0.0234
14429TIP3    H264779   3.903   0.531  16.067  0.3789  0.0689 -0.4213
14430TIP3   OH264780   1.001   6.330   6.393  0.3764  0.1141 -0.1525
14430TIP3    H164781   0.980   6.250   6.345  1.0100 -1.7886  2.6253
14430TIP3    H264782   1.096   6.330   6.401  0.3750  1.0748  0.0078
14431TIP3   OH264783   1.088   4.446  16.075  0.0712  0.7979 -0.2108
14431TIP3    H164784   1.000   4.419  16.047  0.0535  1.4931 -0.8526
14431TIP3    H264785   1.146   4.409  16.008  0.2837  0.1954  0.3081
14432TIP3   OH264786   6.449   6.458  16.445 -0.5503  0.2288  0.2064
14432TIP3    H164787   6.536   6.493  16.427 -0.8468  0.9934  0.2308
14432TIP3    H264788   6.408   6.447  16.359  0.5080 -2.6439  0.0022
14433TIP3   OH264789   1.344   3.456   1.580 -0.2190 -0.1156  0.1628
14433TIP3    H164790   1.341   3.390   1.511  1.3044  1.2824 -1.2588
14433TIP3    H264791   1.271   3.515   1.560  0.4473  0.4987 -0.4832
14434TIP3   OH264792   4.821   5.686  16.675  0.6261 -0.3822 -0.0940
14434TIP3    H164793   4.813   5.611  16.617 -2.5928 -0.0002 -0.2144
14434TIP3    H264794   4.799   5.653  16.762 -0.0446  0.2525 -0.0160
14435TIP3   OH264795   2.006   4.991   2.684  0.3524  0.1256 -0.1907
14435TIP3    H164796   2.025   4.899   2.704  0.2244  0.6327  2.4107
14435TIP3    H264797   1.917   5.005   2.717  0.5245  1.2984 -0.2074
14436TIP3   OH264798   4.286   2.704  17.252 -0.3558 -0.2268 -0.0005
14436TIP3    H164799   4.242   2.786  17.230 -2.7405 -2.0547 -2.2552
14436TIP3    H264800   4.377   2.718  17.226 -0.8274  1.5389 -0.7518
14437TIP3   OH264801   4.412   1.575  16.928 -0.2514 -0.3614  0.5394
14437TIP3    H164802   4.405   1.656  16.978 -1.7651 -1.1483  1.6202
14437TIP3    H264803   4.439   1.509  16.992 -3.2315 -1.6008  0.5888
14438TIP3   OH264804   3.723   3.304  11.844 -0.0391 -0.4193 -0.6631
14438TIP3    H164805   3.683   3.248  11.776  0.0546 -0.7811 -0.4229
14438TIP3    H264806   3.712   3.393  11.811 -0.9543 -0.5192 -0.6513
14439TIP3   OH264807   3.935   3.033  15.263  0.4621 -0.4688 -0.1173
14439TIP3    H164808   3.910   3.072  15.180 -2.0468 -1.0287  0.3273
14439TIP3    H264809   3.963   3.107  15.317  0.6092  0.0766 -0.9313
14440TIP3   OH264810   4.759   0.625   1.373  0.6626  0.6461  0.2267
14440TIP3    H164811   4.834   0.663   1.328  0.0514  1.5808 -0.0311
14440TIP3    H264812   4.760   0.532   1.348  2.6424  0.3113  1.5249
14441TIP3   OH264813   5.923   4.415   0.626  0.5332 -0.3826  0.1550
14441TIP3    H164814   5.853   4.461   0.580  0.9990  1.1319  0.9398
14441TIP3    H264815   5.879   4.341   0.669 -0.3747 -0.1338 -0.3387
14442TIP3   OH264816   4.932   0.170   0.741  0.3623 -0.0282  0.1924
14442TIP3    H164817   4.972   0.102   0.796 -0.1629  0.3897  1.0880
14442TIP3    H264818   4.997   0.240   0.737  1.5810 -1.2195 -2.0372
14443TIP3   OH264819   1.059   2.746  13.088 -0.2798  0.5886 -0.2068
14443TIP3    H164820   0.987   2.699  13.129  1.3899  0.4617  2.7336
14443TIP3    H264821   1.026   2.835  13.075 -0.9442  0.5661  1.2180
14444TIP3   OH264822   3.889   1.898  11.519 -0.4113 -0.3557  0.1309
14444TIP3    H164823   3.804   1.889  11.476 -0.8836 -0.3194  1.0536
14444TIP3    H264824   3.882   1.979  11.569  1.0865  1.0828 -1.8662
14445TIP3   OH264825   4.546   1.455   1.767 -0.1367 -0.6961  0.4262
14445TIP3    H164826   4.635   1.480   1.790 -0.8884  0.8335  1.7246
14445TIP3    H264827   4.532   1.492   1.680  0.2448 -0.2951  0.5351
14446TIP3   OH264828   3.477   3.207  15.719 -0.2890 -0.0114  0.1682
14446TIP3    H164829   3.526   3.126  15.705  3.4590  2.4112 -1.4346
14446TIP3    H264830   3.514   3.243  15.799  0.8153  2.0090 -1.2259
14447TIP3   OH264831   4.187   5.838  17.209 -0.5653 -0.2579  0.2971
14447TIP3    H164832   4.187   5.894  17.132  1.3769 -0.2451  0.2606
14447TIP3    H264833   4.210   5.897  17.281  2.0452 -1.0522  0.1739
14448TIP3   OH264834   5.109   1.958  15.194  0.0637  0.0590  0.3180
14448TIP3    H164835   5.041   2.021  15.169 -0.5397 -0.6578  0.1549
14448TIP3    H264836   5.074   1.915  15.272 -0.6834 -1.9185 -1.0878
14449TIP3   OH264837   5.173   3.929   1.076 -0.1123 -1.0492  0.1725
14449TIP3    H164838   5.135   4.011   1.044  0.0031 -1.2724 -0.5391
14449TIP3    H264839   5.158   3.867   1.005  1.9905 -1.0379 -0.3044
14450TIP3   OH264840   0.125   0.704  13.954  0.2602 -0.4999  0.3079
14450TIP3    H164841   0.209   0.738  13.924 -0.5392  0.6963 -0.6068
14450TIP3    H264842   0.121   0.615  13.919  0.8839 -0.3689 -0.1057
14451TIP3   OH264843   1.161   0.493   5.726  0.2721 -0.6001  0.4902
14451TIP3    H164844   1.122   0.407   5.714 -1.9889  0.5972 -1.1931
14451TIP3    H264845   1.173   0.502   5.821 -1.9851 -1.6877  0.8970
14452TIP3   OH264846   0.369   5.163   5.286  0.2953 -0.1687  0.1864
14452TIP3    H164847   0.427   5.195   5.355 -0.6014 -0.4734  1.1043
14452TIP3    H264848   0.303   5.110   5.332 -0.0142 -0.8190 -0.9587
14453TIP3   OH264849   3.424   3.279   3.290 -0.3222 -0.3135 -0.5673
14453TIP3    H164850   3.420   3.297   3.196 -2.4847 -0.0631 -0.4496
14453TIP3    H264851   3.409   3.363   3.331  2.5881 -0.0346  0.0627
14454TIP3   OH264852   3.424   0.126  11.038 -0.6928 -0.0220 -0.2533
14454TIP3    H164853   3.431   0.208  11.087 -0.7758 -0.8519  1.1890
14454TIP3    H264854   3.342   0.087  11.068 -0.5218 -0.7633 -0.7269
14455TIP3   OH264855   3.086   6.103   0.930 -0.2917 -0.1387 -0.4989
14455TIP3    H164856   3.098   6.027   0.987  0.9683  0.3946 -0.0451
14455TIP3    H264857   3.047   6.067   0.851 -2.8238 -0.7606  0.9997
14456TIP3   OH264858   2.413   5.576  15.104 -0.4314  0.9056 -0.0870
14456TIP3    H164859   2.454   5.505  15.054 -0.2436  1.2087 -0.3665
14456TIP3    H264860   2.362   5.624  15.039  1.0799  2.2564 -0.3217
14457TIP3   OH264861   3.518   0.311   5.953 -0.1636  0.1379 -0.3057
14457TIP3    H164862   3.474   0.394   5.965  0.6554  0.5565 -0.1430
14457TIP3    H264863   3.560   0.293   6.037  0.1133 -0.1692 -0.5060
14458TIP3   OH264864   1.748   5.202   3.221 -0.5133 -0.2587 -0.5779
14458TIP3    H164865   1.690   5.275   3.198 -0.3267 -0.2715 -1.1002
14458TIP3    H264866   1.689   5.128   3.234 -0.7201  0.0339  0.1516
14459TIP3   OH264867   2.538   6.502  16.537  0.1783  0.0506  0.0523
14459TIP3    H164868   2.554   6.499  16.631  0.5084  0.1865 -0.0009
14459TIP3    H264869   2.444   6.491  16.529  0.4497 -3.0430  0.2582
14460TIP3   OH264870   0.268   2.898   6.527  0.0969  0.1373  0.2290
14460TIP3    H164871   0.301   2.972   6.477  1.0302  1.2600  2.4726
14460TIP3    H264872   0.203   2.935   6.586 -0.7987 -1.1286  0.0692
14461TIP3   OH264873   5.311   2.446   1.110 -0.0145 -0.5205  0.1656
14461TIP3    H164874   5.218   2.452   1.091 -0.1832 -0.0596  1.0972
14461TIP3    H264875   5.354   2.462   1.026 -0.7877 -2.0791 -0.5458
14462TIP3   OH264876   0.716   5.663  15.092  0.0647  0.1171 -0.2410
14462TIP3    H164877   0.806   5.670  15.122  0.3300  0.1375 -1.0206
14462TIP3    H264878   0.697   5.569  15.095 -1.2796  0.4352  3.8522
14463TIP3   OH264879   2.509   2.758   5.281  0.9252  0.5864  0.3236
14463TIP3    H164880   2.549   2.837   5.244  0.7658  1.0588  1.1461
14463TIP3    H264881   2.478   2.708   5.205  2.1301  0.7201 -0.2710
14464TIP3   OH264882   4.282   5.649  12.847 -0.3091 -0.0927  0.3277
14464TIP3    H164883   4.238   5.566  12.832 -1.3961  0.6894 -0.8469
14464TIP3    H264884   4.240   5.684  12.926  0.3003 -0.7369  0.9538
14465TIP3   OH264885   4.906   0.856  12.234 -0.4287  0.0612 -0.4933
14465TIP3    H164886   4.963   0.832  12.161  0.1315 -0.3741  0.0777
14465TIP3    H264887   4.958   0.836  12.312 -1.7294 -1.3199  0.0470
14466TIP3   OH264888   2.142   3.327   2.673 -0.1943 -0.0408  0.1309
14466TIP3    H164889   2.226   3.289   2.649 -0.2588  0.2667 -0.6006
14466TIP3    H264890   2.083   3.252   2.681  0.4588 -0.3727  1.9616
14467TIP3   OH264891   4.408   1.605  14.258  0.0500  0.1534 -0.3522
14467TIP3    H164892   4.432   1.534  14.199 -0.0598  0.1934 -0.4450
14467TIP3    H264893   4.322   1.634  14.229  0.2933  0.6331 -0.6138
14468TIP3   OH264894   4.393   5.163  13.006  0.4636 -0.7043  0.3257
14468TIP3    H164895   4.455   5.207  13.065 -1.3131  1.3789  0.6862
14468TIP3    H264896   4.343   5.105  13.063  2.4756 -2.9254 -0.0724
14469TIP3   OH264897   3.096   4.233   3.084 -0.0438 -0.3122  0.2292
14469TIP3    H164898   3.173   4.289   3.077  0.8626 -1.4981  0.6031
14469TIP3    H264899   3.033   4.285   3.135  0.4387  0.7143 -0.2090
14470TIP3   OH264900   3.921   0.445   4.773  0.1332  0.6350  0.0063
14470TIP3    H164901   4.016   0.460   4.777  0.4071 -0.5377 -1.6346
14470TIP3    H264902   3.909   0.358   4.811 -0.0500 -0.0277 -1.5314
14471TIP3   OH264903   4.256   4.533  14.909  0.0465 -0.0634  0.1278
14471TIP3    H164904   4.227   4.586  14.984  0.3549 -0.3156  0.4275
14471TIP3    H264905   4.324   4.586  14.867  1.3734 -0.8309  1.2638
14472TIP3   OH264906   2.752   2.875   1.018  0.4072 -0.3873 -0.0994
14472TIP3    H164907   2.716   2.964   1.023  1.2459 -0.1241  2.1136
14472TIP3    H264908   2.692   2.822   1.071  0.4442 -0.9528 -0.6197
14473TIP3   OH264909   0.637   1.606   4.991  0.4562 -0.0171  0.5918
14473TIP3    H164910   0.682   1.525   4.967  0.1453  0.0514 -0.2495
14473TIP3    H264911   0.595   1.586   5.075 -0.9894 -1.2852 -0.3965
14474TIP3   OH264912   2.524   0.436  12.467 -0.0278  0.2211 -0.1260
14474TIP3    H164913   2.594   0.445  12.402 -0.3075 -1.8305 -0.7732
14474TIP3    H264914   2.510   0.524  12.501  3.0686  0.6211  0.2297
14475TIP3   OH264915   1.902   3.252   5.748  0.3396 -0.0449 -0.1140
14475TIP3    H164916   1.902   3.158   5.730  0.8825  0.2558 -1.7784
14475TIP3    H264917   1.900   3.259   5.843  0.2437 -1.7410  0.0121
14476TIP3   OH264918   2.699   5.492  13.990 -0.1891 -0.7172 -0.4384
14476TIP3    H164919   2.668   5.568  14.039 -0.4550 -0.2114 -1.3852
14476TIP3    H264920   2.619   5.453  13.954  0.2352  0.4648 -2.7090
14477TIP3   OH264921   4.624   0.086  13.817 -0.0226 -0.0104  0.0572
14477TIP3    H164922   4.554   0.095  13.882  0.9813  1.5741  0.9504
14477TIP3    H264923   4.674   0.010  13.845 -0.2294  0.0309  0.5324
14478TIP3   OH264924   6.520   4.684  16.672  0.3799 -0.3705  0.2201
14478TIP3    H164925   6.462   4.760  16.672 -0.1988 -0.8009  0.4182
14478TIP3    H264926   6.549   4.676  16.763 -1.8667 -2.0878  0.8439
14479TIP3   OH264927   1.360   0.860   1.901  0.1456 -0.3692  0.1011
14479TIP3    H164928   1.448   0.880   1.931 -0.2875  1.9957 -0.1026
14479TIP3    H264929   1.305   0.927   1.942 -1.5315 -1.7303  0.1203
14480TIP3   OH264930   2.228   4.395   2.902  0.4657 -0.5539 -0.4059
14480TIP3    H164931   2.227   4.490   2.892  0.8246 -0.5623 -0.5144
14480TIP3    H264932   2.305   4.377   2.955 -0.4787 -0.6625  0.9530
14481TIP3   OH264933   1.501   4.516  12.233 -0.0704  0.1554  0.1828
14481TIP3    H164934   1.590   4.490  12.256 -0.3633  0.5144  1.8301
14481TIP3    H264935   1.503   4.612  12.232 -0.4592  0.1662  0.3344
14482TIP3   OH264936   0.595   2.590  16.157 -0.1781 -0.2126 -0.2171
14482TIP3    H164937   0.654   2.662  16.180 -0.1869 -0.8409  1.9673
14482TIP3    H264938   0.642   2.542  16.088 -0.0211  1.6529 -1.4338
14483TIP3   OH264939   4.072   2.291   0.982 -0.1385 -0.3299  0.7060
14483TIP3    H164940   4.111   2.378   0.968  0.8062 -0.8521  0.0331
14483TIP3    H264941   4.013   2.303   1.056 -0.5411  1.0597  0.1748
14484TIP3   OH264942   0.674   2.201   6.390 -0.2557  0.5380 -0.3931
14484TIP3    H164943   0.706   2.115   6.419 -0.4306  0.8224  0.6478
14484TIP3    H264944   0.750   2.244   6.352  0.0915  0.3661  0.1130
14485TIP3   OH264945   4.517   3.068   0.121 -0.3732  0.0272  0.0174
14485TIP3    H164946   4.443   3.017   0.088 -1.4290  1.5903 -0.1021
14485TIP3    H264947   4.595   3.023   0.088 -1.2210 -2.3018  1.1195
14486TIP3   OH264948   2.967   2.736   5.362 -0.1938 -0.1457 -0.6695
14486TIP3    H164949   2.931   2.720   5.275 -3.0332 -0.2377  0.4711
14486TIP3    H264950   2.903   2.698   5.422  1.7860 -0.2083  1.4702
14487TIP3   OH264951   1.361   3.821  14.675 -0.3054  0.1554 -0.4897
14487TIP3    H164952   1.356   3.820  14.770 -1.5641 -0.5001 -0.5535
14487TIP3    H264953   1.373   3.913  14.652  0.0055  0.3121  0.2925
14488TIP3   OH264954   4.601   6.766   1.226 -0.2379  0.5223  0.4931
14488TIP3    H164955   4.571   6.857   1.233 -0.3124  0.5254  0.1782
14488TIP3    H264956   4.526   6.714   1.254 -0.9328  0.4935 -1.2990
14489TIP3   OH264957   2.680   1.986  13.868  0.2661  0.5607 -0.2091
14489TIP3    H164958   2.603   1.952  13.824 -0.4974  1.2636  0.5567
14489TIP3    H264959   2.745   1.996  13.799 -0.4915  0.4164 -0.9465
14490TIP3   OH264960   2.000   6.290  16.439 -0.1430 -0.2752  0.3380
14490TIP3    H164961   2.006   6.382  16.413 -1.3663  0.2003  1.6650
14490TIP3    H264962   2.082   6.251  16.409  0.6287  1.3671  0.2533
14491TIP3   OH264963   5.510   0.535   1.155  0.3189  0.3877 -0.7678
14491TIP3    H164964   5.433   0.560   1.206  0.9295  0.2871  0.2170
14491TIP3    H264965   5.505   0.589   1.076 -0.9450  0.1307 -0.8781
14492TIP3   OH264966   2.980   0.048   0.306  0.0511  0.4023  0.2366
14492TIP3    H164967   2.950   0.130   0.266 -0.1143  0.5818  0.7321
14492TIP3    H264968   3.034   0.007   0.238 -1.1125  0.1980 -0.5767
14493TIP3   OH264969   1.266   5.380  15.807 -0.7723  0.2214  0.1882
14493TIP3    H164970   1.274   5.429  15.725 -3.1614  0.5171  0.0914
14493TIP3    H264971   1.239   5.445  15.872  1.8725  0.1434  1.4393
14494TIP3   OH264972   1.051   4.229  15.673  0.9245  0.5442  0.4789
14494TIP3    H164973   1.082   4.146  15.639 -0.7521 -0.5692  1.5610
14494TIP3    H264974   1.024   4.279  15.595  1.7634  0.0118 -0.1555
14495TIP3   OH264975   6.312   5.456   4.650  0.1541  0.3238  0.1995
14495TIP3    H164976   6.243   5.392   4.633 -0.3961  0.6908  1.0319
14495TIP3    H264977   6.266   5.537   4.671  0.8231  0.3432  1.6607
14496TIP3   OH264978   1.303   3.960   4.941  0.0070  0.2193  0.6630
14496TIP3    H164979   1.388   3.949   4.985  1.3831  1.9927 -1.4449
14496TIP3    H264980   1.269   4.043   4.975 -1.1330 -0.7194  1.8565
14497TIP3   OH264981   2.755   0.622  11.754  0.3988 -0.1362 -0.2927
14497TIP3    H164982   2.837   0.578  11.776  0.2942 -0.3819 -0.4019
14497TIP3    H264983   2.746   0.610  11.660  0.5361  0.3955 -0.3747
14498TIP3   OH264984   4.641   4.120   6.300 -0.4463 -0.1832 -0.3138
14498TIP3    H164985   4.559   4.116   6.350 -2.5585  2.0405 -3.3478
14498TIP3    H264986   4.619   4.078   6.217  0.9014  2.1172 -1.8672
14499TIP3   OH264987   2.313   5.147  11.061 -0.4608  0.2147  0.6223
14499TIP3    H164988   2.277   5.154  10.973  3.2346  0.7120 -0.9581
14499TIP3    H264989   2.258   5.082  11.105 -1.2868 -1.4021 -2.6647
14500TIP3   OH264990   3.420   5.494   1.102  0.0403 -0.0356  0.1844
14500TIP3    H164991   3.339   5.467   1.060  0.8003 -0.6008 -0.9326
14500TIP3    H264992   3.472   5.414   1.107  0.5239  0.3157  0.9313
14501TIP3   OH264993   5.532   4.519  14.770 -0.1059  0.3319  0.2570
14501TIP3    H164994   5.437   4.521  14.783 -0.2569  2.3647 -0.9558
14501TIP3    H264995   5.563   4.602  14.807  0.8874  0.7997 -1.5798
14502TIP3   OH264996   4.694   4.775   0.706 -0.2377 -0.2612  0.1238
14502TIP3    H164997   4.629   4.714   0.740 -0.2630 -1.1755 -1.5360
14502TIP3    H264998   4.651   4.860   0.709 -1.7053 -0.9237 -1.4124
14503TIP3   OH264999   4.425   4.087   4.596 -0.8861 -0.4644 -0.6186
14503TIP3    H165000   4.368   4.161   4.575  0.8134  0.3749 -2.3659
14503TIP3    H265001   4.462   4.110   4.682 -2.8786 -0.8719  0.3964
14504TIP3   OH265002   1.880   2.473   4.078  0.3561  0.4477  0.4063
14504TIP3    H165003   1.932   2.476   3.997  0.2625 -1.8047  0.2340
14504TIP3    H265004   1.805   2.530   4.060  1.7677  2.2342 -0.0321
14505TIP3   OH265005   0.572   1.220   2.624 -0.2917  0.5481  0.7001
14505TIP3    H165006   0.630   1.246   2.696  0.7762  0.6094 -0.1648
14505TIP3    H265007   0.507   1.164   2.666  0.3543  0.5236  1.7104
14506TIP3   OH265008   1.520   3.003   1.813  0.0767  0.2296 -0.5822
14506TIP3    H165009   1.468   2.998   1.893  0.2430 -0.7755 -0.5383
14506TIP3    H265010   1.601   2.957   1.834  0.6170  1.0096 -0.9402
14507TIP3   OH265011   6.448   5.704  14.515 -0.5376  1.0358  0.3103
14507TIP3    H165012   6.460   5.610  14.529  0.8418  0.9391 -1.3885
14507TIP3    H265013   6.526   5.744  14.554 -1.4701  1.5393  1.6736
14508TIP3   OH265014   4.282   3.795  13.234 -0.3222  0.0422 -0.8046
14508TIP3    H165015   4.316   3.781  13.145  0.5248 -1.7021 -0.2294
14508TIP3    H265016   4.249   3.709  13.260  3.0015 -0.5034  2.0367
14509TIP3   OH265017   3.636   6.230   2.414  0.0338 -0.0237  0.0683
14509TIP3    H165018   3.634   6.226   2.319 -0.3352 -0.7664  0.0998
14509TIP3    H265019   3.697   6.160   2.439 -1.5415 -1.3000  0.4495
14510TIP3   OH265020   4.347   1.546   5.019 -0.1972  0.2679  0.4196
14510TIP3    H165021   4.407   1.513   5.085 -0.8144  1.3176  1.5213
14510TIP3    H265022   4.315   1.629   5.054 -0.2213  1.0541 -1.3854
14511TIP3   OH265023   5.656   0.467  15.913  0.0236  0.7406 -0.2081
14511TIP3    H165024   5.668   0.372  15.918  0.0023  0.7623  0.2393
14511TIP3    H265025   5.732   0.503  15.959 -0.0744  0.9367 -0.2006
14512TIP3   OH265026   0.836   5.249  13.017 -0.0153  0.0950  0.2111
14512TIP3    H165027   0.926   5.227  13.041 -0.4733  0.9037  2.7615
14512TIP3    H265028   0.783   5.184  13.062 -0.7442 -0.3187 -1.2085
14513TIP3   OH265029   4.398   2.651  16.844  0.1852 -0.0003  0.1513
14513TIP3    H165030   4.341   2.580  16.872  1.0983 -0.6945  0.2728
14513TIP3    H265031   4.423   2.695  16.926  0.4564 -0.1764  0.1601
14514TIP3   OH265032   1.854   3.609   3.709  0.3515 -0.0073  0.8206
14514TIP3    H165033   1.781   3.553   3.735 -0.1223  0.5223  0.6402
14514TIP3    H265034   1.923   3.590   3.773 -0.3887  0.4171  1.7463
14515TIP3   OH265035   0.744   3.645   4.479  0.1213 -0.9003  0.0268
14515TIP3    H165036   0.765   3.607   4.393 -0.3842 -1.2945  0.0738
14515TIP3    H265037   0.649   3.638   4.485 -0.0174  0.7008 -0.1046
14516TIP3   OH265038   6.324   5.999  15.812  0.2973  0.0681  0.0470
14516TIP3    H165039   6.318   6.077  15.757 -0.0116  0.0235  0.0196
14516TIP3    H265040   6.304   5.926  15.754  2.3221 -0.2049 -0.3550
14517TIP3   OH265041   6.121   5.631   3.938 -0.2296 -0.0827 -0.0210
14517TIP3    H165042   6.177   5.702   3.906  2.0790 -0.6577  2.5467
14517TIP3    H265043   6.147   5.554   3.887  0.9013 -0.1969  0.7103
14518TIP3   OH265044   6.091   5.623   2.518  0.2689  0.2068  0.4630
14518TIP3    H165045   6.124   5.552   2.464 -2.0415 -0.3488 -0.2630
14518TIP3    H265046   6.078   5.696   2.457 -1.0472  0.0094  0.4914
14519TIP3   OH265047   0.041   0.716  15.099 -0.5744 -0.1686 -0.0381
14519TIP3    H165048   0.132   0.686  15.094 -1.2423 -2.1428 -1.1058
14519TIP3    H265049   0.042   0.800  15.054  1.1454  0.9382  2.0019
14520TIP3   OH265050   6.509   2.756  13.710 -0.3365  0.2989  0.7241
14520TIP3    H165051   6.552   2.803  13.638 -0.3954  0.4307  0.7733
14520TIP3    H265052   6.541   2.667  13.703 -1.1919  0.0433 -0.1396
14521TIP3   OH265053   4.857   0.301   2.554  0.3250  0.3570  0.1816
14521TIP3    H165054   4.864   0.321   2.461  0.0208  1.2561  0.3550
14521TIP3    H265055   4.835   0.384   2.596  1.9638  0.2932  1.2383
14522TIP3   OH265056   6.352   2.845  12.570  0.3607  0.1392  0.0446
14522TIP3    H165057   6.315   2.853  12.482 -2.3248 -1.1005  1.0041
14522TIP3    H265058   6.319   2.921  12.617  1.3087  0.4908  0.1454
14523TIP3   OH265059   4.207   4.823  14.623 -0.1983  0.1661  0.2028
14523TIP3    H165060   4.192   4.847  14.531  0.5820  0.7368  0.2166
14523TIP3    H265061   4.174   4.733  14.630 -2.7920  1.0584  0.0445
14524TIP3   OH265062   6.364   0.665   1.914  0.2852 -0.0316  0.3418
14524TIP3    H165063   6.430   0.609   1.873 -1.0898 -1.7396  0.3807
14524TIP3    H265064   6.383   0.753   1.882  1.8891 -0.6664 -0.5107
14525TIP3   OH265065   5.226   0.441  13.729  0.5108 -0.0877  0.0207
14525TIP3    H165066   5.166   0.375  13.695  0.0993  0.8562 -1.1079
14525TIP3    H265067   5.292   0.391  13.778  0.8036 -1.4196 -1.7022
14526TIP3   OH265068   1.166   2.924  14.389  0.6378  0.4559  0.0819
14526TIP3    H165069   1.161   3.011  14.428  2.7072  0.1102  1.1467
14526TIP3    H265070   1.259   2.910  14.371  0.2683 -1.3161 -0.6125
14527TIP3   OH265071   2.990   4.513   3.152 -0.0023  0.1416 -0.9250
14527TIP3    H165072   2.938   4.499   3.231  1.0877 -1.0980 -0.3932
14527TIP3    H265073   3.000   4.607   3.146 -0.6968  0.2853  0.0307
14528TIP3   OH265074   6.055   1.066   4.079 -0.4263 -0.2300  0.3961
14528TIP3    H165075   6.041   0.986   4.028  1.3030  0.9653 -2.0720
14528TIP3    H265076   6.119   1.042   4.146 -2.2512 -1.6632  1.6677
14529TIP3   OH265077   1.289   2.231  17.262 -0.1599  0.5755 -0.2563
14529TIP3    H165078   1.289   2.184  17.179  2.5237  0.3516 -0.1786
14529TIP3    H265079   1.352   2.184  17.316 -0.2008  2.0589  1.1279
14530TIP3   OH265080   5.662   0.034  14.658  0.4123  0.1408  0.3236
14530TIP3    H165081   5.600  -0.039  14.656 -0.3936  0.8428 -0.2648
14530TIP3    H265082   5.719   0.020  14.582  0.9918 -0.5092  0.8697
14531TIP3   OH265083   1.783   0.727  12.862  0.0968  0.8111 -0.3063
14531TIP3    H165084   1.787   0.822  12.872  1.9351  0.7253 -0.0389
14531TIP3    H265085   1.874   0.699  12.869 -0.3770 -0.9173 -0.9654
14532TIP3   OH265086   4.561   4.724   5.280 -0.0497 -0.0245 -0.3737
14532TIP3    H165087   4.511   4.801   5.255  0.5884  0.2917 -0.6849
14532TIP3    H265088   4.613   4.753   5.355  1.9594  0.5439 -1.9430
14533TIP3   OH265089   5.232   4.136   0.259  0.1189 -0.3939  0.7990
14533TIP3    H165090   5.192   4.060   0.300  1.0857 -0.1742  2.1555
14533TIP3    H265091   5.159   4.196   0.242 -0.1445  0.1042  3.4558
14534TIP3   OH265092   2.936   4.134  14.448 -0.6747 -0.0071 -0.9832
14534TIP3    H165093   2.891   4.105  14.369 -0.7193  1.0704 -1.3664
14534TIP3    H265094   3.011   4.183  14.416  0.2150 -0.9449 -0.3443
14535TIP3   OH265095   1.353   4.047   3.333  0.1143 -0.2353  0.2524
14535TIP3    H165096   1.358   3.964   3.380  1.6483 -1.0181 -1.2481
14535TIP3    H265097   1.286   4.032   3.266 -1.1037  0.4443  1.2863
14536TIP3   OH265098   5.378   0.236   3.355  0.2507 -0.4601  0.4805
14536TIP3    H165099   5.299   0.210   3.402  0.0452 -0.1746  0.2981
14536TIP3    H265100   5.389   0.170   3.287 -0.5895  0.2365 -0.3425
14537TIP3   OH265101   5.425   5.219   4.081  0.6877  0.2342 -0.5769
14537TIP3    H165102   5.388   5.306   4.094  2.1108  1.1435 -2.4421
14537TIP3    H265103   5.407   5.173   4.163 -1.8939  1.6062 -0.3250
14538TIP3   OH265104   3.764   5.982   5.744  0.1917 -0.3105 -0.0857
14538TIP3    H165105   3.672   6.009   5.743  0.0886 -0.6591  0.0825
14538TIP3    H265106   3.770   5.919   5.815 -0.0434 -2.3991 -1.8870
14539TIP3   OH265107   3.073   1.710   5.087 -0.4966  0.6619  0.6143
14539TIP3    H165108   3.008   1.736   5.153  0.3697 -0.9577  2.1665
14539TIP3    H265109   3.139   1.779   5.091 -2.1085  2.3574 -1.0198
14540TIP3   OH265110   5.532   2.504   4.249 -0.3859  0.2911  0.0258
14540TIP3    H165111   5.474   2.571   4.285 -2.0362 -0.9244 -0.3191
14540TIP3    H265112   5.556   2.449   4.324 -0.2309  0.3825  0.0439
14541TIP3   OH265113   6.612   0.154  12.013  0.3145  0.3820 -0.4165
14541TIP3    H165114   6.670   0.174  12.087 -0.4735  2.0149 -0.2131
14541TIP3    H265115   6.526   0.183  12.042 -0.0700  0.6802 -1.8322
14542TIP3   OH265116   2.134   2.332  14.434 -0.0696  0.0124 -0.5520
14542TIP3    H165117   2.090   2.352  14.352 -1.6622 -0.5612  0.1514
14542TIP3    H265118   2.163   2.417  14.467 -0.5206  0.3746 -1.0852
14543TIP3   OH265119   2.839   1.373  12.194 -0.2588 -0.3964 -0.3265
14543TIP3    H165120   2.749   1.383  12.161 -1.0394  1.6429  2.2610
14543TIP3    H265121   2.846   1.280  12.216 -2.2787 -0.3171  0.8258
14544TIP3   OH265122   0.216   6.419   2.136  0.3921  0.5333 -0.3037
14544TIP3    H165123   0.283   6.382   2.079 -1.3598 -2.7379 -0.3860
14544TIP3    H265124   0.164   6.476   2.079 -0.0188 -0.9912 -1.4848
14545TIP3   OH265125   1.702   4.923  12.040 -0.6490 -0.0554  0.0894
14545TIP3    H165126   1.640   4.974  12.092 -1.1892 -0.7506  0.1256
14545TIP3    H265127   1.651   4.893  11.965 -0.1185  0.1386 -0.3586
14546TIP3   OH265128   3.234   3.740  16.574 -0.2060 -0.4750  0.4160
14546TIP3    H165129   3.289   3.777  16.643  3.4981 -1.5861 -1.8543
14546TIP3    H265130   3.217   3.650  16.603 -0.0061 -0.4514  0.6040
14547TIP3   OH265131   1.481   2.689   0.030 -0.0266  0.2329  0.5888
14547TIP3    H165132   1.534   2.654  -0.042  1.2493  1.1287  1.0577
14547TIP3    H265133   1.419   2.747  -0.012  0.8183  0.8737  0.2083
14548TIP3   OH265134   2.012   0.185  14.088 -0.4026  0.0688 -0.1013
14548TIP3    H165135   1.933   0.134  14.105 -1.2889  2.0154  1.7727
14548TIP3    H265136   1.984   0.276  14.095  1.9823  0.7954  0.4964
14549TIP3   OH265137   0.246   1.410   2.887  0.1656 -0.1551 -0.1809
14549TIP3    H165138   0.236   1.467   2.963  0.7941  2.0159 -1.6903
14549TIP3    H265139   0.336   1.424   2.859 -0.6483  0.5798 -2.5100
14550TIP3   OH265140   5.111   2.808  14.641 -0.2255  0.3368 -0.2874
14550TIP3    H165141   5.130   2.870  14.570  0.0729 -0.0256 -0.5278
14550TIP3    H265142   5.182   2.744  14.636  0.2403  0.7532  0.8529
14551TIP3   OH265143   2.110   6.575  12.463  0.1791 -0.1680 -0.3505
14551TIP3    H165144   2.104   6.659  12.417  0.7188 -0.5453 -1.1200
14551TIP3    H265145   2.047   6.518  12.418 -1.3081  0.2536  1.1371
14552TIP3   OH265146   2.455   1.417  14.608  0.0040 -0.8174 -0.5093
14552TIP3    H165147   2.386   1.445  14.668  0.2791 -0.3472 -0.4144
14552TIP3    H265148   2.529   1.394  14.665  0.0161 -1.0649 -0.6260
14553TIP3   OH265149   6.439   0.076  15.069 -0.2157  0.7361 -0.3332
14553TIP3    H165150   6.481   0.032  15.143  0.3949  0.0099 -1.1022
14553TIP3    H265151   6.414   0.162  15.104 -1.5196 -0.2362  1.2024
14554TIP3   OH265152   3.318   1.519   3.320  0.0953 -0.7572 -0.4456
14554TIP3    H165153   3.376   1.591   3.296  0.6093 -0.9650  0.1700
14554TIP3    H265154   3.287   1.540   3.408 -2.3845  0.3746 -1.5303
14555TIP3   OH265155   3.511   0.201  15.190  0.7154  0.1818 -0.0955
14555TIP3    H165156   3.431   0.243  15.220 -0.6331 -2.0065 -0.5440
14555TIP3    H265157   3.540   0.254  15.116 -1.3397 -0.0613 -1.0903
14556TIP3   OH265158   3.864   1.216  11.442 -0.3101 -0.0079 -0.5778
14556TIP3    H165159   3.872   1.306  11.410 -0.9018  0.0118 -0.6733
14556TIP3    H265160   3.954   1.184  11.448 -0.1323  0.4005 -1.0940
14557TIP3   OH265161   0.155   2.822   6.256 -0.2049 -0.0931  0.0567
14557TIP3    H165162   0.065   2.824   6.289 -0.9371 -0.8668 -1.8063
14557TIP3    H265163   0.209   2.822   6.334 -1.8782 -1.8596  1.2714
14558TIP3   OH265164   1.956   3.487  16.703 -0.0375  0.1267  0.1591
14558TIP3    H165165   1.949   3.481  16.798  0.1949  2.3227  0.3374
14558TIP3    H265166   1.975   3.579  16.686 -2.1225  0.1872 -2.1435
14559TIP3   OH265167   4.569   1.141   4.369 -0.7458  0.4494  0.0341
14559TIP3    H165168   4.606   1.229   4.381  0.7753 -0.3272  1.2458
14559TIP3    H265169   4.575   1.101   4.455 -1.3024 -0.8958 -0.5474
14560TIP3   OH265170   0.587   2.260   4.422  0.5995  0.1630  0.4238
14560TIP3    H165171   0.553   2.341   4.460 -1.1763 -0.6580  0.6530
14560TIP3    H265172   0.537   2.249   4.341  0.1956 -1.1440  0.8411
14561TIP3   OH265173   3.875   2.434  10.166 -0.0489  1.1682  0.1869
14561TIP3    H165174   3.780   2.438  10.164 -0.1795 -0.4794  1.3448
14561TIP3    H265175   3.904   2.524  10.152 -1.7657  1.6487 -0.3506
14562TIP3   OH265176   1.272   4.040   5.904  0.1743 -0.1483  0.1442
14562TIP3    H165177   1.294   4.025   5.812 -1.1783  0.5863 -0.3100
14562TIP3    H265178   1.334   3.986   5.952  0.6793 -0.8076 -1.2070
14563TIP3   OH265179   4.243   5.728  14.176 -0.1325 -0.3418  0.1717
14563TIP3    H165180   4.246   5.759  14.266 -1.7797  1.4344 -0.3527
14563TIP3    H265181   4.162   5.678  14.169  1.1521 -2.5367  0.2642
14564TIP3   OH265182   1.123   3.072  16.299 -0.1094  0.4719 -0.5498
14564TIP3    H165183   1.178   3.089  16.376  0.5377  1.1148 -1.1480
14564TIP3    H265184   1.164   3.123  16.229 -1.7047  1.2837 -0.9039
14565TIP3   OH265185   6.030   0.481   4.050  0.2362  0.2676 -0.1173
14565TIP3    H165186   6.112   0.516   4.085 -0.1910 -1.1520  2.4379
14565TIP3    H265187   5.964   0.546   4.075 -0.0830 -0.7886  1.9267
14566TIP3   OH265188   1.625   4.561  14.889 -0.3112  0.2146 -0.2956
14566TIP3    H165189   1.532   4.569  14.909 -0.2408 -0.1219  0.1550
14566TIP3    H265190   1.628   4.513  14.806 -0.5226 -0.1720 -0.0817
14567TIP3   OH265191   4.215   2.933  11.445  0.6952  0.1537  0.1943
14567TIP3    H165192   4.288   2.988  11.416 -0.2007  0.6630 -1.1486
14567TIP3    H265193   4.141   2.962  11.392 -0.3711 -0.6928  1.2016
14568TIP3   OH265194   6.469   5.721  16.446 -0.6454 -0.6780 -0.3906
14568TIP3    H165195   6.469   5.626  16.458 -1.1065 -0.6954 -0.5133
14568TIP3    H265196   6.422   5.734  16.364 -2.3169 -0.2242  0.6234
14569TIP3   OH265197   3.062   3.410  17.105 -0.2752 -0.1147 -0.3888
14569TIP3    H165198   2.980   3.362  17.099  0.0907 -1.1106  1.9280
14569TIP3    H265199   3.086   3.406  17.198  1.5347  1.5907 -0.7338
14570TIP3   OH265200   0.991   4.256   4.916 -0.3117  0.4612 -0.2294
14570TIP3    H165201   1.002   4.343   4.876  2.6863  0.8690  1.3216
14570TIP3    H265202   1.023   4.195   4.849  0.4785  0.7948 -0.1593
14571TIP3   OH265203   2.651   0.712  13.557 -0.3663  0.2018 -0.1517
14571TIP3    H165204   2.658   0.703  13.462 -0.8802  0.8427 -0.2483
14571TIP3    H265205   2.720   0.774  13.581 -0.2111  0.0102 -0.0981
14572TIP3   OH265206   4.865   2.872   3.273 -0.2886  0.0966 -0.0431
14572TIP3    H165207   4.774   2.880   3.302  0.0938  2.1948  0.6264
14572TIP3    H265208   4.890   2.783   3.298 -0.8403  0.9073  3.6425
14573TIP3   OH265209   4.703   4.872   3.770 -0.1710 -0.6937  0.6328
14573TIP3    H165210   4.768   4.912   3.826 -0.1106 -0.0594  0.1192
14573TIP3    H265211   4.622   4.871   3.822 -0.3204  0.6580  0.4278
14574TIP3   OH265212   3.072   1.557  15.554 -0.4483  0.1309  0.0586
14574TIP3    H165213   3.073   1.531  15.461 -1.3057  1.5021 -0.3485
14574TIP3    H265214   3.147   1.511  15.592 -1.3368 -2.1199 -0.8350
14575TIP3   OH265215   4.533   5.658   1.080  0.5355  0.6124  0.1685
14575TIP3    H165216   4.539   5.754   1.084 -0.9032  0.7119  0.1206
14575TIP3    H265217   4.479   5.640   1.003  1.7249 -0.2795 -0.4680
14576TIP3   OH265218   5.804   0.527   0.763 -0.1016  0.0082  0.1673
14576TIP3    H165219   5.817   0.618   0.738  0.1906  0.3996  1.6974
14576TIP3    H265220   5.820   0.525   0.858  0.6021 -1.7548  0.0452
14577TIP3   OH265221   5.451   0.810  15.261  0.0946 -0.0746  0.7163
14577TIP3    H165222   5.454   0.715  15.276  1.0364 -0.2082 -0.2514
14577TIP3    H265223   5.360   0.828  15.237  0.0113 -0.7996  0.4688
14578TIP3   OH265224   0.587   5.596  12.363 -0.1403  0.3646  0.4677
14578TIP3    H165225   0.644   5.528  12.399 -1.5158 -1.4100 -0.6338
14578TIP3    H265226   0.643   5.645  12.303  1.1631  0.9614  2.1357
14579TIP3   OH265227   6.510   4.122  14.642  0.0097  0.0009  0.1003
14579TIP3    H165228   6.541   4.031  14.646  1.0460  0.2982 -0.7348
14579TIP3    H265229   6.536   4.151  14.554 -1.5155  0.6832 -0.1378
14580TIP3   OH265230   0.897   6.350  15.242 -0.1429 -0.4723 -0.0923
14580TIP3    H165231   0.851   6.307  15.313  0.3562  0.8994  1.0885
14580TIP3    H265232   0.832   6.409  15.203  0.2106  0.4172  0.6613
14581TIP3   OH265233   1.781   4.188   5.605 -0.1457 -0.0540 -0.9778
14581TIP3    H165234   1.749   4.278   5.604 -0.4446 -0.1478 -0.3821
14581TIP3    H265235   1.727   4.143   5.540  0.4945  0.3602 -1.7938
14582TIP3   OH265236   2.620   5.525   4.176 -0.1934 -0.4638  0.2186
14582TIP3    H165237   2.612   5.609   4.221 -1.1594 -0.5353  0.1971
14582TIP3    H265238   2.628   5.460   4.246  3.0951 -0.1410  0.2117
14583TIP3   OH265239   1.492   6.539   4.136 -0.2023  0.3188  0.2451
14583TIP3    H165240   1.546   6.473   4.093 -0.0899  1.6499 -1.7515
14583TIP3    H265241   1.403   6.521   4.105 -0.4052  0.1734  0.9032
14584TIP3   OH265242   3.867   3.271  11.542  0.4038 -0.2562  0.4104
14584TIP3    H165243   3.822   3.189  11.562  0.9189 -0.8170 -0.7125
14584TIP3    H265244   3.960   3.250  11.555  0.4848  0.3738  0.8814
14585TIP3   OH265245   3.417   2.585   6.703  0.0884  0.3504  0.2332
14585TIP3    H165246   3.324   2.598   6.721  0.4415  0.6034  1.9573
14585TIP3    H265247   3.432   2.630   6.620 -1.1020  1.2808  0.5180
14586TIP3   OH265248   3.795   5.383  13.918 -0.1581  0.4882  0.0441
14586TIP3    H165249   3.704   5.371  13.892  0.1663 -0.1462 -0.7996
14586TIP3    H265250   3.838   5.301  13.895  0.3101  0.1967  1.8477
14587TIP3   OH265251   0.555   5.653   0.388  0.1901 -0.0820  0.6922
14587TIP3    H165252   0.558   5.725   0.451  1.3556  2.3173 -1.9918
14587TIP3    H265253   0.619   5.590   0.420 -0.1127  0.5386  2.5458
14588TIP3   OH265254   2.777   3.761  16.056  0.5579 -0.6599 -0.0426
14588TIP3    H165255   2.865   3.782  16.025  0.1051 -0.3884 -1.1956
14588TIP3    H265256   2.731   3.845  16.055 -0.8012 -1.3500 -3.1192
14589TIP3   OH265257   3.180   1.559  16.832  0.2993 -0.6235 -0.2267
14589TIP3    H165258   3.175   1.649  16.799 -1.9105 -1.0301 -1.0605
14589TIP3    H265259   3.147   1.505  16.760 -1.3015 -1.8313  1.3687
14590TIP3   OH265260   6.078   2.892   3.314 -0.3251  0.3728 -0.2519
14590TIP3    H165261   6.161   2.862   3.278  0.8980  2.9049  0.3319
14590TIP3    H265262   6.095   2.901   3.408 -1.7035 -0.4992  0.0904
14591TIP3   OH265263   4.521   3.306   4.163 -0.2098  0.4218  0.0710
14591TIP3    H165264   4.446   3.280   4.110  1.2734  0.5974 -2.1395
14591TIP3    H265265   4.556   3.383   4.119  1.3499  0.2688  1.0174
14592TIP3   OH265266   2.660   6.515  15.495  0.6790 -0.2152 -0.1752
14592TIP3    H165267   2.576   6.550  15.524  0.9088  1.3148 -1.2986
14592TIP3    H265268   2.708   6.498  15.576  0.3294  1.5189  0.4185
14593TIP3   OH265269   5.337   0.562  15.563  0.2443  0.1037  0.3014
14593TIP3    H165270   5.275   0.625  15.526  0.4064  0.2185  0.2250
14593TIP3    H265271   5.384   0.527  15.487 -0.3664 -0.6782  0.2676
14594TIP3   OH265272   5.050   1.147   0.495 -0.4467 -0.4850 -0.0263
14594TIP3    H165273   5.119   1.121   0.556  0.1920  2.5300  0.6362
14594TIP3    H265274   5.088   1.133   0.408  1.0826  1.2495  0.3362
14595TIP3   OH265275   6.387   4.760  12.660  0.5129  0.0604 -0.5005
14595TIP3    H165276   6.409   4.678  12.704 -0.2912  0.0459 -0.1250
14595TIP3    H265277   6.386   4.826  12.729 -0.0552  0.1598 -0.5952
14596TIP3   OH265278   6.327   5.978  12.099  0.3537 -0.3765  0.0523
14596TIP3    H165279   6.359   5.943  12.182  1.7891  0.9850  0.1008
14596TIP3    H265280   6.401   5.969  12.039 -0.2466 -0.1777 -0.7311
14597TIP3   OH265281   3.420   5.028  11.597  0.1324  0.6516 -0.1217
14597TIP3    H165282   3.366   4.956  11.564  1.4590 -0.5131  0.1972
14597TIP3    H265283   3.369   5.107  11.576 -1.4342 -0.3696 -0.3096
14598TIP3   OH265284   6.394   2.359  14.239  0.9814  0.4029  0.0597
14598TIP3    H165285   6.385   2.388  14.148  0.4830  1.5129  0.4536
14598TIP3    H265286   6.305   2.338  14.267  0.9910  1.0924  0.6184
14599TIP3   OH265287   5.523   1.188  13.613  0.1667  0.4668 -0.3640
14599TIP3    H165288   5.588   1.150  13.554  0.3259  0.0505  0.0713
14599TIP3    H265289   5.575   1.220  13.687 -0.1502 -0.1582  0.1352
14600TIP3   OH265290   3.877   4.863  14.476  0.4248  0.0991 -0.0787
14600TIP3    H165291   3.969   4.841  14.491  0.5856 -0.5840 -1.9695
14600TIP3    H265292   3.834   4.779  14.465  0.3200  0.5249 -3.3014
14601TIP3   OH265293   0.193   3.522  11.144  0.7017  0.0308  0.3267
14601TIP3    H165294   0.163   3.611  11.127 -0.1261 -0.2782  0.1488
14601TIP3    H265295   0.245   3.499  11.067 -2.0853 -0.9451 -1.3457
14602TIP3   OH265296   5.732   5.755   4.218 -0.0105  0.1894 -0.3856
14602TIP3    H165297   5.803   5.816   4.240 -1.8497  2.4765 -0.6496
14602TIP3    H265298   5.768   5.701   4.147  2.6011 -0.8901  1.6854
14603TIP3   OH265299   4.796   3.120  14.427 -0.3367  0.3173  0.3759
14603TIP3    H165300   4.776   3.213  14.439  1.3844  0.4420  2.6214
14603TIP3    H265301   4.875   3.119  14.373 -0.7600  0.1141 -0.2521
14604TIP3   OH265302   2.917   2.038   6.416  0.2308  0.4196 -0.1238
14604TIP3    H165303   2.993   2.083   6.454 -0.3414  1.8955 -0.7060
14604TIP3    H265304   2.845   2.100   6.424 -1.2318 -1.4101  1.5213
14605TIP3   OH265305   6.313   3.458  11.621  0.2776 -0.4263  0.2215
14605TIP3    H165306   6.363   3.431  11.544  1.9257  0.5943  0.9187
14605TIP3    H265307   6.223   3.465  11.590  0.9756  0.2737 -1.6790
14606TIP3   OH265308   2.841   0.090   1.749 -0.0147  0.2114  0.2155
14606TIP3    H165309   2.906   0.072   1.681  0.7255  0.0221  0.9551
14606TIP3    H265310   2.846   0.014   1.807  1.1479  1.4729  1.8339
14607TIP3   OH265311   5.558   1.106   5.008 -0.0799  0.1442 -0.2343
14607TIP3    H165312   5.553   1.013   5.028 -0.3015  0.3972  0.9259
14607TIP3    H265313   5.476   1.142   5.040 -0.8408  0.4390 -2.4234
14608TIP3   OH265314   1.765   6.205   1.869 -0.3511  0.4963  0.2214
14608TIP3    H165315   1.823   6.131   1.851 -0.8488  0.6582 -2.2580
14608TIP3    H265316   1.715   6.179   1.947  0.7645 -0.9780  0.4557
14609TIP3   OH265317   1.355   2.046   0.728 -0.3372 -0.7742 -0.1016
14609TIP3    H165318   1.368   2.000   0.645 -2.4172 -0.9714 -0.3478
14609TIP3    H265319   1.391   1.987   0.794  2.9359  0.1357 -0.9523
14610TIP3   OH265320   0.101   1.683   2.767  0.1133  0.0926  0.1059
14610TIP3    H165321   0.164   1.730   2.712 -0.2960  1.0579  0.4526
14610TIP3    H265322   0.112   1.720   2.854  0.1178 -0.7997  0.4920
14611TIP3   OH265323   4.708   6.098  12.320 -0.0362 -0.6885  0.4823
14611TIP3    H165324   4.626   6.146  12.303 -0.1870 -1.5241 -1.2909
14611TIP3    H265325   4.679   6.009  12.340  0.4248 -1.0421 -0.3764
14612TIP3   OH265326   3.734   2.079  10.285 -0.3337 -0.2162  0.1458
14612TIP3    H165327   3.653   2.040  10.319 -0.3205  0.5775  1.1076
14612TIP3    H265328   3.782   2.004  10.249 -1.1841 -0.7964  0.1714
14613TIP3   OH265329   1.137   4.796  14.000  0.2281 -0.5261  0.5565
14613TIP3    H165330   1.071   4.752  13.948 -1.0448 -0.4177  2.0438
14613TIP3    H265331   1.177   4.726  14.052 -1.1478 -0.1087  2.2261
14614TIP3   OH265332   5.535   4.349   0.629  0.5407  0.3239 -0.1758
14614TIP3    H165333   5.571   4.437   0.617 -2.1366  1.4718 -0.1050
14614TIP3    H265334   5.444   4.364   0.656  0.5804 -2.4501  1.6319
14615TIP3   OH265335   4.126   5.013   2.165  0.0804 -0.4579 -0.3073
14615TIP3    H165336   4.149   4.947   2.230  0.6794 -0.1572 -0.2044
14615TIP3    H265337   4.098   5.089   2.217 -0.8434 -0.7078 -0.4273
14616TIP3   OH265338   1.932   2.216   4.701 -0.4452  0.1114 -0.0110
14616TIP3    H165339   1.992   2.223   4.627 -0.1631  1.0873  0.2957
14616TIP3    H265340   1.850   2.253   4.668 -0.8228 -1.0444 -0.3707
14617TIP3   OH265341   3.063   3.897   5.692  0.1540  0.5320 -0.0008
14617TIP3    H165342   3.085   3.834   5.761 -0.5525  0.7250  0.4149
14617TIP3    H265343   3.033   3.842   5.619  4.0428  0.1597 -1.3833
14618TIP3   OH265344   5.798   1.950   0.930 -0.4751  0.4248  0.2814
14618TIP3    H165345   5.703   1.948   0.921 -0.3758  0.5470 -0.8569
14618TIP3    H265346   5.820   1.866   0.970 -0.8933 -0.4894 -1.3417
14619TIP3   OH265347   5.144   1.110  15.747 -0.4576  0.3410 -0.2218
14619TIP3    H165348   5.204   1.095  15.675 -0.1709 -0.7660  0.2365
14619TIP3    H265349   5.085   1.179  15.716  0.6229  0.9529 -0.9175
14620TIP3   OH265350   3.164   3.497   4.222 -0.2131  0.3948 -0.1814
14620TIP3    H165351   3.102   3.531   4.287 -0.7322  0.3985 -0.6791
14620TIP3    H265352   3.224   3.443   4.273 -0.2323  0.9156  0.4016
14621TIP3   OH265353   0.779   2.606  15.362  0.7591  0.9181  0.2110
14621TIP3    H165354   0.755   2.680  15.307  3.1888  1.3330 -0.3583
14621TIP3    H265355   0.806   2.538  15.300  3.2539  1.2973  0.8160
14622TIP3   OH265356   2.784   1.498  16.391 -0.0848  0.3372  0.0430
14622TIP3    H165357   2.802   1.572  16.333 -0.1097  0.9089  0.7639
14622TIP3    H265358   2.831   1.425  16.350 -1.4100  0.3464 -1.5720
14623TIP3   OH265359   4.924   0.182  16.447  0.2640  0.1794  0.1794
14623TIP3    H165360   4.848   0.191  16.503 -1.1635  0.6565 -1.7839
14623TIP3    H265361   4.940   0.271  16.413  1.5368  0.0387  0.3682
14624TIP3   OH265362   5.068   5.498   3.481 -0.8745  0.3008 -0.1593
14624TIP3    H165363   4.980   5.510   3.517 -0.3161  1.2305  0.9567
14624TIP3    H265364   5.114   5.449   3.548  0.0510  1.6466  0.2061
14625TIP3   OH265365   0.738   3.560  16.499 -0.1651  0.5346  0.7121
14625TIP3    H165366   0.779   3.646  16.508 -1.9079  1.4161  0.5171
14625TIP3    H265367   0.753   3.536  16.408 -0.9225  1.3070  0.3722
14626TIP3   OH265368   2.713   4.101  11.502 -0.4701 -0.5938 -0.0660
14626TIP3    H165369   2.703   4.010  11.530 -1.1731 -0.0650  1.4655
14626TIP3    H265370   2.733   4.149  11.582 -3.5849  1.1333 -0.2402
14627TIP3   OH265371   5.499   5.724  13.315 -0.1856 -0.3605  0.5021
14627TIP3    H165372   5.403   5.725  13.318 -0.2452 -2.1887 -0.5420
14627TIP3    H265373   5.524   5.676  13.394 -0.1475 -0.4369  0.4434
14628TIP3   OH265374   4.078   5.971   0.483 -0.3652  0.1792 -0.3410
14628TIP3    H165375   4.009   5.969   0.550 -1.2268  2.3517 -1.1032
14628TIP3    H265376   4.091   5.880   0.459 -3.2919 -0.2604 -0.4465
14629TIP3   OH265377   6.040   5.339  11.292 -0.6554  0.2328 -0.1947
14629TIP3    H165378   6.044   5.434  11.289 -2.2927  0.3061 -0.5914
14629TIP3    H265379   6.034   5.312  11.201  0.6301 -0.3061 -0.1335
14630TIP3   OH265380   6.797   6.475   5.751 -0.0446 -0.7514 -0.7952
14630TIP3    H165381   6.738   6.463   5.825  0.5904 -0.1168 -0.1799
14630TIP3    H265382   6.847   6.393   5.747 -1.0537 -1.3507 -1.4123
14631TIP3   OH265383   0.041   2.723   4.093  0.2897  0.2702  0.0296
14631TIP3    H165384   0.033   2.674   4.174 -1.7451  2.1657  0.9916
14631TIP3    H265385  -0.041   2.770   4.084  0.6393  0.4180 -2.9315
14632TIP3   OH265386   4.112   4.858   5.062  0.2524 -0.3821 -0.1589
14632TIP3    H165387   4.099   4.820   5.149 -2.6943 -1.5056 -1.0264
14632TIP3    H265388   4.129   4.951   5.079 -1.2412 -0.3880  1.5988
14633TIP3   OH265389   3.314   2.472   3.611  0.4063 -0.2634 -0.0450
14633TIP3    H165390   3.388   2.525   3.581  0.7794 -0.5402  0.3759
14633TIP3    H265391   3.238   2.508   3.565  0.9104 -0.4520 -1.0475
14634TIP3   OH265392   6.759   2.251  14.359 -0.3393  0.2578 -0.1112
14634TIP3    H165393   6.841   2.252  14.310  0.2690 -0.4369  0.8699
14634TIP3    H265394   6.710   2.177  14.324  1.0515 -1.6481  1.8212
14635TIP3   OH265395   3.399   3.861  14.225  0.2292 -0.6243  0.1010
14635TIP3    H165396   3.457   3.894  14.156  0.4860 -1.2545  0.0170
14635TIP3    H265397   3.448   3.875  14.306 -0.0750  0.1222  0.1607
14636TIP3   OH265398   3.653   5.344  14.224 -0.0966  0.1274 -0.2832
14636TIP3    H165399   3.614   5.259  14.200  0.8367 -0.1247 -0.9137
14636TIP3    H265400   3.706   5.368  14.148  2.0435 -0.1575  1.0886
14637TIP3   OH265401   3.002   0.866  16.467 -0.4298  0.6297  0.2132
14637TIP3    H165402   2.918   0.911  16.470 -0.9376 -0.3906  1.6884
14637TIP3    H265403   2.983   0.782  16.424  0.0720  0.8824 -0.5187
14638TIP3   OH265404   0.334   1.353  15.496 -0.1266 -0.2986 -0.1840
14638TIP3    H165405   0.351   1.385  15.585  0.9513  1.3771 -0.9744
14638TIP3    H265406   0.376   1.267  15.493  0.1463 -0.2059  0.8019
14639TIP3   OH265407   4.460   0.952  16.698  0.8644  0.0784  0.4409
14639TIP3    H165408   4.437   0.902  16.620 -0.8461  0.8782  0.3976
14639TIP3    H265409   4.380   0.999  16.720  1.2519 -0.3324  2.8361
14640TIP3   OH265410   4.864   6.631   0.132 -0.5698  0.4501 -0.0785
14640TIP3    H165411   4.922   6.645   0.057  1.3833  0.4924  1.3724
14640TIP3    H265412   4.781   6.670   0.107  0.3282  1.2706 -1.8617
14641TIP3   OH265413   2.639   1.607  16.879 -0.5740 -0.1092 -0.3698
14641TIP3    H165414   2.654   1.518  16.913  3.3818  0.8594  0.6814
14641TIP3    H265415   2.638   1.596  16.784 -1.5172 -1.4844 -0.2111
14642TIP3   OH265416   1.047   5.643  14.005 -0.6132  0.1866 -0.1069
14642TIP3    H165417   1.122   5.662  13.948 -1.4377  0.5900 -1.0602
14642TIP3    H265418   1.085   5.595  14.079  0.5840  0.3771 -0.5900
14643TIP3   OH265419   1.461   3.965   0.544 -0.2239 -0.1622 -0.2405
14643TIP3    H165420   1.383   4.016   0.519 -0.5431 -0.3659  0.3110
14643TIP3    H265421   1.520   4.029   0.582  0.1187  0.0891 -1.1849
14644TIP3   OH265422   2.566   0.793  16.316  0.4427  0.2749  0.5467
14644TIP3    H165423   2.567   0.706  16.278  1.1971  0.2253  0.6792
14644TIP3    H265424   2.488   0.794  16.372  0.9576 -0.6484  1.3004
14645TIP3   OH265425   4.954   1.219   4.108 -0.0529 -0.2476 -0.9298
14645TIP3    H165426   5.028   1.198   4.051 -0.3530 -1.2230 -0.9600
14645TIP3    H265427   4.921   1.302   4.074  0.7562 -0.0203 -1.1836
14646TIP3   OH265428   5.176   0.142  14.528 -0.9853 -0.2613 -0.3745
14646TIP3    H165429   5.261   0.140  14.486 -1.0786 -1.3728 -0.5147
14646TIP3    H265430   5.114   0.119  14.459 -1.4162  0.6676 -0.3073
14647TIP3   OH265431   0.712   0.725  15.619 -0.2977  0.1928  0.2584
14647TIP3    H165432   0.786   0.703  15.562 -0.3010 -1.5779  0.9084
14647TIP3    H265433   0.745   0.707  15.707 -0.5944  2.0482  0.7764
14648TIP3   OH265434   6.617   2.222   1.439 -0.1077 -0.0726 -0.1058
14648TIP3    H165435   6.697   2.175   1.412  0.3635  0.1414  0.8852
14648TIP3    H265436   6.558   2.153   1.469 -1.0314 -0.4138 -2.5955
14649TIP3   OH265437   4.855   5.142   2.836 -0.0260  0.0077  0.1446
14649TIP3    H165438   4.766   5.111   2.822  0.4634 -0.8472 -1.2571
14649TIP3    H265439   4.847   5.236   2.847 -0.9308  0.2275 -2.0717
14650TIP3   OH265440   6.576   1.010   0.049 -0.0961 -0.4844  0.4003
14650TIP3    H165441   6.538   1.029  -0.037 -0.6189 -0.3883  0.6471
14650TIP3    H265442   6.669   1.029   0.039 -0.1486 -0.5042 -0.1550
14651TIP3   OH265443   0.715   3.474  14.258  0.3911  0.3136 -0.6637
14651TIP3    H165444   0.730   3.521  14.340  0.5212 -0.2769 -0.3506
14651TIP3    H265445   0.770   3.520  14.194 -0.2942  1.2439 -0.5833
14652TIP3   OH265446   6.153   1.134  12.309  0.3919 -0.2572  0.8810
14652TIP3    H165447   6.226   1.074  12.298  0.9590  0.2660  1.7561
14652TIP3    H265448   6.179   1.213  12.261  1.1018  0.5234  2.5477
14653TIP3   OH265449   0.796   0.978   5.166 -1.0111  0.1540 -0.1696
14653TIP3    H165450   0.741   0.913   5.210 -2.1043  0.8254 -0.5363
14653TIP3    H265451   0.804   1.050   5.230  0.2691 -0.3620  0.2713
14654TIP3   OH265452   1.281   3.705  11.799  0.0664 -0.2086 -0.0365
14654TIP3    H165453   1.261   3.644  11.870 -1.5859 -1.9304 -1.9106
14654TIP3    H265454   1.298   3.649  11.724 -1.1408  1.6186 -1.7253
14655TIP3   OH265455   5.496   5.548  11.376  0.0889 -0.0566  0.0508
14655TIP3    H165456   5.548   5.628  11.376 -1.3869  0.9409 -0.9621
14655TIP3    H265457   5.553   5.482  11.338  0.8135  0.8735 -0.4953
14656TIP3   OH265458   2.031   2.607  13.699  0.2699 -0.1264  0.0160
14656TIP3    H165459   2.112   2.565  13.669  0.3787 -1.1347  1.6439
14656TIP3    H265460   1.971   2.534  13.712  0.9388 -0.0014  4.3812
14657TIP3   OH265461   2.102   1.215  10.937  0.3392  0.3914  0.5168
14657TIP3    H165462   2.070   1.288  10.884  0.5757  0.7737  0.8958
14657TIP3    H265463   2.107   1.141  10.876 -2.9041 -0.1381  0.8055
14658TIP3   OH265464   0.716   5.535   2.801 -0.2426  0.2306  0.1794
14658TIP3    H165465   0.741   5.627   2.810  0.9475 -0.1682  1.1944
14658TIP3    H265466   0.769   5.490   2.868 -1.8224 -1.0049  0.6207
14659TIP3   OH265467   4.758   0.438   0.533 -0.0273  0.1400 -0.3594
14659TIP3    H165468   4.735   0.392   0.614 -1.4225 -1.7224 -1.7609
14659TIP3    H265469   4.744   0.531   0.553 -1.1818 -0.3653  1.2817
14660TIP3   OH265470   5.400   0.282  13.978 -0.0163 -0.4829  0.0373
14660TIP3    H165471   5.342   0.247  14.046  0.2298 -1.1737 -0.0961
14660TIP3    H265472   5.470   0.326  14.026 -0.5647  0.2008  0.2014
14661TIP3   OH265473   5.978   4.080   5.759 -0.4224 -0.1107 -0.8511
14661TIP3    H165474   5.987   3.999   5.708 -0.4553 -1.2712  0.9534
14661TIP3    H265475   6.043   4.071   5.829 -1.1975  0.9329  0.0001
14662TIP3   OH265476   3.534   1.492  11.292 -0.2155  0.5067  0.6274
14662TIP3    H165477   3.491   1.421  11.338 -0.9301  0.4568 -0.0956
14662TIP3    H265478   3.619   1.456  11.266 -0.4031  0.0512  0.6384
14663TIP3   OH265479   3.703   5.184   2.875  0.2263  0.1280  0.6815
14663TIP3    H165480   3.669   5.243   2.808  0.3321 -0.0027  0.5115
14663TIP3    H265481   3.681   5.096   2.843 -0.1254  0.0831  1.0398
14664TIP3   OH265482   0.185   4.033  10.910 -0.2561  0.6373  0.7685
14664TIP3    H165483   0.253   3.968  10.928  0.3709  1.1213  0.1694
14664TIP3    H265484   0.158   4.016  10.820  0.7888  1.9932  0.1833
14665TIP3   OH265485   4.248   0.811  14.511 -0.6115  0.4500  0.3218
14665TIP3    H165486   4.160   0.794  14.544 -1.6894  0.2706 -2.5184
14665TIP3    H265487   4.248   0.905  14.489 -0.7875  0.0355 -1.5559
14666TIP3   OH265488   1.775   5.541   3.077 -0.1719 -0.7419  0.1381
14666TIP3    H165489   1.742   5.615   3.128 -1.3946 -0.8754 -0.4428
14666TIP3    H265490   1.870   5.544   3.089 -0.1870  1.0990 -0.1496
14667TIP3   OH265491   1.921   4.183  16.637 -0.1407  0.2889 -0.1099
14667TIP3    H165492   1.947   4.275  16.633  1.2847  0.0057  1.9156
14667TIP3    H265493   1.902   4.167  16.730  0.1223 -1.5842 -0.3527
14668TIP3   OH265494   0.124   1.095  15.485 -0.2347 -0.5752 -0.2804
14668TIP3    H165495   0.167   1.119  15.568  1.5345  0.5239 -1.4914
14668TIP3    H265496   0.109   1.178  15.441  1.3786 -1.3048 -2.2902
14669TIP3   OH265497   0.942   0.969  14.731  0.1422  0.0566  0.0428
14669TIP3    H165498   0.928   0.933  14.644  1.0822 -0.6587  0.1829
14669TIP3    H265499   0.860   1.014  14.752 -0.6315 -1.0472 -0.5982
14670TIP3   OH265500   0.278   3.772   2.555 -0.3005  0.6060 -0.1162
14670TIP3    H165501   0.230   3.823   2.621  0.3102  2.1773 -0.8435
14670TIP3    H265502   0.295   3.688   2.596 -2.3709  0.5621  0.6993
14671TIP3   OH265503   6.234   2.026  17.012  0.4284 -0.1093 -0.6183
14671TIP3    H165504   6.142   2.052  17.004  0.7077  1.5762  1.2022
14671TIP3    H265505   6.282   2.108  17.013  2.0511 -1.0082 -2.3412
14672TIP3   OH265506   2.765   4.455   1.865  0.2440 -0.1260 -0.0819
14672TIP3    H165507   2.826   4.430   1.795  0.7610  0.0584  0.2973
14672TIP3    H265508   2.694   4.392   1.859  1.4474 -1.5967  0.7547
14673TIP3   OH265509   1.124   2.535   0.814 -0.1538  0.1147 -0.4668
14673TIP3    H165510   1.144   2.610   0.758 -1.4409  0.1458 -0.8865
14673TIP3    H265511   1.171   2.462   0.773  1.1138  0.6793 -0.0435
14674TIP3   OH265512   4.752   3.477  13.914  0.5478  0.7126  0.0490
14674TIP3    H165513   4.689   3.506  13.980  0.5013  3.0037 -0.9586
14674TIP3    H265514   4.739   3.536  13.840  1.3527 -1.1218 -1.6092
14675TIP3   OH265515   5.728   5.071  10.537  0.3041 -0.0622 -0.7196
14675TIP3    H165516   5.651   5.023  10.568  0.4072  0.0382 -0.3115
14675TIP3    H265517   5.759   5.020  10.462 -0.5163  0.2306 -1.2635
14676TIP3   OH265518   4.376   6.418  15.336  0.3141  0.0028 -0.2127
14676TIP3    H165519   4.465   6.455  15.343  0.4530 -0.6707  2.0382
14676TIP3    H265520   4.335   6.438  15.421 -0.3022 -3.1529  0.3003
14677TIP3   OH265521   3.087   4.151   1.551 -0.3958  0.1275  0.1456
14677TIP3    H165522   3.073   4.124   1.460  0.2041  0.1255  0.0524
14677TIP3    H265523   3.178   4.127   1.569 -0.9591 -1.2617  1.2282
14678TIP3   OH265524   1.131   6.504  13.003 -0.1385  0.0400  0.3318
14678TIP3    H165525   1.099   6.593  12.989  0.4061  0.1391 -0.3386
14678TIP3    H265526   1.059   6.448  12.975  0.5990  0.2497 -2.0404
14679TIP3   OH265527   3.688   5.887   2.928  0.8549 -0.4477  0.2921
14679TIP3    H165528   3.649   5.925   2.850  2.3548  1.8248  0.5909
14679TIP3    H265529   3.661   5.945   2.999  0.3704 -1.8954  1.3217
14680TIP3   OH265530   0.234   0.028   1.279  0.3431 -0.1914  0.0874
14680TIP3    H165531   0.317  -0.005   1.314  0.2154 -0.7089 -0.0845
14680TIP3    H265532   0.174   0.022   1.353  0.9955  2.3163  0.8727
14681TIP3   OH265533   5.833   1.434   6.005  0.1692  0.4158  0.2715
14681TIP3    H165534   5.913   1.474   5.969 -0.2632  2.0179  1.0789
14681TIP3    H265535   5.854   1.418   6.097  1.7891 -5.0110 -0.8850
14682TIP3   OH265536   5.597   2.971  16.297  0.1570 -0.3428  0.1338
14682TIP3    H165537   5.603   3.020  16.380 -2.2255  0.1742  0.0458
14682TIP3    H265538   5.568   2.884  16.323 -1.5738  0.1094 -0.2105
14683TIP3   OH265539   6.659   2.715  14.980 -0.0836 -0.0734  0.1444
14683TIP3    H165540   6.685   2.794  15.028  0.0912 -0.0188 -0.0372
14683TIP3    H265541   6.725   2.707  14.911 -0.0091 -0.4713  0.2628
14684TIP3   OH265542   3.973   4.410  15.991 -0.2213 -0.3958 -0.4057
14684TIP3    H165543   3.908   4.342  16.010 -1.0068  0.6468  0.7153
14684TIP3    H265544   3.938   4.489  16.032  1.0727  0.5076 -1.0029
14685TIP3   OH265545   4.145   4.138  13.797 -0.5740  0.7614  0.3636
14685TIP3    H165546   4.220   4.082  13.813 -1.2297 -0.0090  0.7720
14685TIP3    H265547   4.151   4.160  13.704 -0.7778 -0.6889 -0.0096
14686TIP3   OH265548   1.843   1.244  11.134 -0.5961  0.0595 -0.0833
14686TIP3    H165549   1.805   1.157  11.144  0.1671 -0.1818  0.7364
14686TIP3    H265550   1.928   1.229  11.092 -0.6920  0.4555 -0.4223
14687TIP3   OH265551   5.283   6.171   2.673 -0.4293  0.1197  0.2997
14687TIP3    H165552   5.271   6.094   2.728 -0.3708 -0.7745 -0.9281
14687TIP3    H265553   5.320   6.237   2.732  1.1212 -1.3180  0.9623
14688TIP3   OH265554   1.180   3.139   2.254 -0.1694 -0.0755  0.5415
14688TIP3    H165555   1.092   3.167   2.231  0.1583  0.5943  0.0684
14688TIP3    H265556   1.204   3.076   2.186  0.0190  0.3545  0.2049
14689TIP3   OH265557   3.752   1.189   0.790  0.0311  0.0312 -0.0664
14689TIP3    H165558   3.797   1.107   0.768 -1.2618 -0.7560  0.1465
14689TIP3    H265559   3.783   1.251   0.725  1.1952 -0.5643 -0.1052
14690TIP3   OH265560   4.086   4.553  12.525  0.5989 -0.0794 -0.5102
14690TIP3    H165561   4.126   4.471  12.496  1.3605 -0.3247  1.1388
14690TIP3    H265562   3.992   4.539  12.515  0.6699 -1.5019  0.5972
14691TIP3   OH265563   0.068   1.647   5.567 -0.3315 -0.3112  0.8685
14691TIP3    H165564   0.083   1.596   5.647 -0.0670  2.8224  2.9366
14691TIP3    H265565   0.151   1.641   5.519 -0.0206 -1.1249  1.4803
14692TIP3   OH265566   3.088   5.062   3.396  0.3115  0.0685 -0.0592
14692TIP3    H165567   3.020   4.999   3.371  0.4712 -0.2727  0.3634
14692TIP3    H265568   3.039   5.138   3.427  0.1161 -0.1863  0.2658
14693TIP3   OH265569   0.810   3.659  12.516  0.2831 -0.3600  0.2032
14693TIP3    H165570   0.893   3.698  12.490  0.8084 -2.2374 -1.0095
14693TIP3    H265571   0.817   3.567  12.491 -3.0087 -0.1182 -1.9257
14694TIP3   OH265572   4.872   4.543   2.746  0.0737 -0.5725  0.6133
14694TIP3    H165573   4.959   4.518   2.715  0.0878  0.9349 -0.6479
14694TIP3    H265574   4.887   4.580   2.833  1.0759  2.0232 -0.6000
14695TIP3   OH265575   5.110   6.187   6.344 -0.2222 -0.5150  0.0270
14695TIP3    H165576   5.045   6.139   6.293  0.0335 -0.6193 -0.1989
14695TIP3    H265577   5.183   6.127   6.354 -0.2564 -0.4827  0.4881
14696TIP3   OH265578   6.490   4.479  15.290 -0.0169 -0.4656  0.3968
14696TIP3    H165579   6.492   4.547  15.357  0.0622 -0.4281  0.3556
14696TIP3    H265580   6.404   4.488  15.249 -0.6505 -1.4648  1.4914
14697TIP3   OH265581   5.951   2.296  11.686 -0.2264 -0.0111 -0.0978
14697TIP3    H165582   5.948   2.296  11.782  0.3873 -0.0006 -0.0750
14697TIP3    H265583   5.972   2.386  11.663  1.7055 -0.4503 -0.1583
14698TIP3   OH265584   4.547   2.800  16.452  0.2166 -0.7745  0.2802
14698TIP3    H165585   4.624   2.856  16.452 -0.6136  0.4953 -3.3046
14698TIP3    H265586   4.473   2.861  16.451 -0.8565 -1.9739  2.4612
14699TIP3   OH265587   3.662   2.536   2.927  0.3153 -0.3863  0.1345
14699TIP3    H165588   3.644   2.445   2.951 -1.9116  0.4011  1.6465
14699TIP3    H265589   3.732   2.564   2.987 -1.1055 -0.2252  1.7590
14700TIP3   OH265590   3.651   0.818  12.209  0.2530  0.2272  0.4384
14700TIP3    H165591   3.682   0.740  12.162  0.0907  0.7343 -0.5233
14700TIP3    H265592   3.658   0.795  12.301  2.1325 -0.1855  0.2079
14701TIP3   OH265593   3.999   5.059   5.425 -0.6430 -0.0958  0.4658
14701TIP3    H165594   4.083   5.018   5.445 -0.5063  0.6859  1.5472
14701TIP3    H265595   4.005   5.084   5.333  1.3343  2.3447  1.2097
14702TIP3   OH265596   5.832   1.297   3.099  0.2610 -0.9135 -0.1592
14702TIP3    H165597   5.762   1.296   3.034 -0.0963  0.5868  0.1879
14702TIP3    H265598   5.801   1.240   3.169 -1.0972  0.5701  0.4736
14703TIP3   OH265599   6.778   3.057   1.560  0.3075  0.4879 -0.0527
14703TIP3    H165600   6.772   3.099   1.475  0.8639 -0.4925 -0.5821
14703TIP3    H265601   6.872   3.050   1.578  0.2004  0.3984  0.4945
14704TIP3   OH265602   3.983   3.396   2.828  0.0973  0.3300  0.1322
14704TIP3    H165603   4.023   3.332   2.769  0.4762  1.0218 -0.3759
14704TIP3    H265604   4.017   3.374   2.915 -1.0992 -1.2119  0.2392
14705TIP3   OH265605   2.307   3.121  13.047  0.2970 -0.1534  0.6753
14705TIP3    H165606   2.244   3.141  12.978  2.2746 -0.6748 -1.3110
14705TIP3    H265607   2.320   3.027  13.042 -0.5360 -0.4042  2.6709
14706TIP3   OH265608   1.704   5.641   2.097  0.1196 -0.3101  0.0108
14706TIP3    H165609   1.668   5.682   2.176  0.6180 -1.2123  0.7136
14706TIP3    H265610   1.724   5.715   2.039 -2.2558  0.2498 -0.1535
14707TIP3   OH265611   4.290   1.475  15.338 -0.5730  0.2502 -0.7876
14707TIP3    H165612   4.236   1.547  15.305 -0.6272 -0.2975 -1.9015
14707TIP3    H265613   4.228   1.415  15.379 -0.4414  1.2328  0.9185
14708TIP3   OH265614   6.539   4.542  15.853  0.1278 -0.3659  0.1641
14708TIP3    H165615   6.486   4.477  15.806  0.3936 -1.7126  1.6601
14708TIP3    H265616   6.561   4.499  15.935 -0.5915  2.0690  1.6749
14709TIP3   OH265617   6.126   5.977   5.849  0.4602  0.3657  0.2414
14709TIP3    H165618   6.199   6.031   5.820  0.4557 -0.6276 -1.6694
14709TIP3    H265619   6.168   5.897   5.882  0.2689 -0.0191 -0.4417
14710TIP3   OH265620   0.904   0.549  15.115  0.1283 -0.0754 -0.5067
14710TIP3    H165621   0.942   0.527  15.199  0.7794 -0.8230 -0.9998
14710TIP3    H265622   0.950   0.629  15.088  0.1923 -0.0546 -0.3343
14711TIP3   OH265623   1.855   3.503  12.193  0.0147 -0.4634  0.2368
14711TIP3    H165624   1.931   3.559  12.212  0.1811 -0.8852  0.8472
14711TIP3    H265625   1.838   3.458  12.276 -1.1888 -0.0291  0.2397
14712TIP3   OH265626   6.590   0.836  16.227  0.3801 -0.2642  0.2356
14712TIP3    H165627   6.508   0.853  16.181  0.1600  1.6755  1.2680
14712TIP3    H265628   6.595   0.741  16.235 -1.8224 -0.3954  0.2611
14713TIP3   OH265629   5.882   3.501  14.180 -0.4370  0.6743 -0.2773
14713TIP3    H165630   5.975   3.485  14.193 -0.4766 -0.7965 -1.5743
14713TIP3    H265631   5.839   3.434  14.235 -0.7205  1.0250 -0.0716
14714TIP3   OH265632   2.161   6.389  11.705 -0.2844  1.4333  0.8417
14714TIP3    H165633   2.101   6.318  11.683 -0.7758  1.7004  1.3172
14714TIP3    H265634   2.235   6.377  11.646 -1.9392  2.6117 -1.5165
14715TIP3   OH265635   3.588   5.397   0.783  0.0830 -0.3087 -0.0670
14715TIP3    H165636   3.619   5.307   0.776 -0.6668 -0.4728 -1.3586
14715TIP3    H265637   3.557   5.405   0.874  0.0369 -1.3802  0.0103
14716TIP3   OH265638   1.572   4.072   2.183 -0.1556 -0.4967 -0.0200
14716TIP3    H165639   1.589   4.166   2.183  0.4935 -0.6086 -0.8401
14716TIP3    H265640   1.582   4.046   2.274 -1.2135  0.3787  0.3676
14717TIP3   OH265641   4.673   3.208  13.486  0.0210 -0.3707 -0.2573
14717TIP3    H165642   4.757   3.230  13.445  0.8249  0.0592  1.5657
14717TIP3    H265643   4.631   3.293  13.501  0.3526 -0.4319  1.0601
14718TIP3   OH265644   3.435   2.944   5.784 -0.4532 -0.5419  0.6389
14718TIP3    H165645   3.388   2.991   5.853  0.2937 -0.0781  0.8240
14718TIP3    H265646   3.458   2.860   5.823  1.4529  0.3732  1.5109
14719TIP3   OH265647   6.067   2.517   0.400 -0.0878  0.8515  0.4704
14719TIP3    H165648   6.156   2.497   0.429 -0.3438  1.9560  2.0556
14719TIP3    H265649   6.041   2.593   0.452 -0.4710  3.1204 -2.8818
14720TIP3   OH265650   3.526   0.929   3.531 -0.2034  0.0909  0.4810
14720TIP3    H165651   3.503   0.998   3.593 -1.4072 -0.9122  1.1510
14720TIP3    H265652   3.460   0.935   3.462 -0.4557 -0.5493  0.6628
14721TIP3   OH265653   5.451   5.088   1.821  0.0898  0.3961  0.1425
14721TIP3    H165654   5.379   5.145   1.848  0.8815  1.3964  0.1866
14721TIP3    H265655   5.522   5.108   1.882  0.7983  0.3065 -0.6406
14722TIP3   OH265656   3.966   0.533  16.803 -0.3151 -0.2163 -0.1127
14722TIP3    H165657   3.876   0.520  16.773  0.2281 -0.2641 -1.7380
14722TIP3    H265658   3.970   0.626  16.827 -1.0461 -0.4273  0.8537
14723TIP3   OH265659   3.600   5.267   5.407  0.5386 -0.4402 -0.0103
14723TIP3    H165660   3.692   5.272   5.435  0.6134 -0.5741 -0.2351
14723TIP3    H265661   3.599   5.309   5.321  0.7515 -2.2119 -0.9072
14724TIP3   OH265662   1.532   4.825  11.124  0.3298 -0.0691 -0.0771
14724TIP3    H165663   1.590   4.841  11.049  0.9178  0.4791  0.4909
14724TIP3    H265664   1.497   4.737  11.109  0.7037 -0.0961 -0.8244
14725TIP3   OH265665   0.446   1.022  11.370 -0.5817  0.5873  0.0700
14725TIP3    H165666   0.534   1.039  11.404 -0.2943  0.8708 -0.7991
14725TIP3    H265667   0.389   1.028  11.447 -0.2420  3.5666  0.1476
14726TIP3   OH265668   3.509   3.364  15.984 -0.1852 -0.0971  0.1016
14726TIP3    H165669   3.505   3.453  15.950  0.0300 -0.3229 -0.5234
14726TIP3    H265670   3.600   3.337  15.970  0.2709  0.2969  2.1263
14727TIP3   OH265671   5.751   3.084  16.843 -0.5966 -0.3745 -0.2022
14727TIP3    H165672   5.666   3.041  16.856 -0.0912 -1.4242 -0.2594
14727TIP3    H265673   5.810   3.035  16.900  0.3146 -0.7619 -1.4585
14728TIP3   OH265674   1.485   1.673   0.651  1.0064 -0.1589  0.6598
14728TIP3    H165675   1.527   1.722   0.722  0.5515  0.5063  0.4645
14728TIP3    H265676   1.547   1.678   0.578  0.7428  0.5296  0.4834
14729TIP3   OH265677   3.098   5.241   4.287  0.4415  0.0398  0.1197
14729TIP3    H165678   3.184   5.223   4.324  1.4619  1.8716 -1.2412
14729TIP3    H265679   3.064   5.156   4.261  1.6410 -0.7570  1.1312
14730TIP3   OH265680   5.601   2.189   0.052  0.1189  0.3908  0.2226
14730TIP3    H165681   5.650   2.229  -0.019 -0.5384  1.0703  0.1537
14730TIP3    H265682   5.550   2.119   0.010 -1.5102  1.8283 -0.2584
14731TIP3   OH265683   2.047   2.595  11.635 -0.0922 -0.1360 -0.2387
14731TIP3    H165684   2.041   2.650  11.556 -0.4166  0.4276  0.1749
14731TIP3    H265685   1.971   2.620  11.688 -0.5650 -1.3924 -0.2961
14732TIP3   OH265686   0.246   2.749   2.859 -0.5500 -0.1300 -0.0193
14732TIP3    H165687   0.151   2.743   2.872 -0.5868 -1.2571 -0.7455
14732TIP3    H265688   0.276   2.810   2.926 -1.6037 -0.8317  1.1061
14733TIP3   OH265689   1.314   2.727   4.521 -0.3898  0.0756  0.2009
14733TIP3    H165690   1.284   2.660   4.460  0.2098 -2.4666  2.5866
14733TIP3    H265691   1.272   2.807   4.492 -1.7839 -1.4964 -2.2639
14734TIP3   OH265692   4.211   3.638  15.427 -0.1439  0.5773  0.3153
14734TIP3    H165693   4.278   3.675  15.369 -1.7708 -0.5815 -2.3877
14734TIP3    H265694   4.152   3.711  15.444 -1.2241  0.2650 -1.8694
14735TIP3   OH265695   2.734   1.861   1.352 -0.8900  0.3613 -0.0709
14735TIP3    H165696   2.639   1.850   1.357 -0.8297 -0.1597 -0.0366
14735TIP3    H265697   2.751   1.944   1.396 -1.1883 -0.2455  1.2303
14736TIP3   OH265698   2.764   2.546  12.497  0.2861  0.0259  0.2181
14736TIP3    H165699   2.705   2.619  12.479 -2.0196 -1.0079  3.1315
14736TIP3    H265700   2.800   2.565  12.583  1.9720 -0.8398 -0.2697
14737TIP3   OH265701   5.572   1.277   2.976  0.0566 -0.8071 -0.1334
14737TIP3    H165702   5.572   1.337   2.902 -0.2018 -0.4520  0.1554
14737TIP3    H265703   5.546   1.193   2.938  3.0702 -1.3832 -1.0398
14738TIP3   OH265704   1.048   2.948   1.728  0.2538 -0.1654 -0.1551
14738TIP3    H165705   0.967   2.970   1.681  0.8537  0.0590 -1.0868
14738TIP3    H265706   1.114   3.005   1.689  1.0495 -0.9924 -0.0051
14739TIP3   OH265707   5.447   6.160  17.257  0.2837  0.5868  0.4807
14739TIP3    H165708   5.410   6.138  17.343 -0.7156 -0.2619 -0.1490
14739TIP3    H265709   5.541   6.149  17.268  0.0167 -1.3876  0.9542
14740TIP3   OH265710   2.458   6.525  13.866 -0.0775  0.2829 -0.0890
14740TIP3    H165711   2.447   6.512  13.772  1.8070  0.0121 -0.2778
14740TIP3    H265712   2.545   6.491  13.886 -0.0786  1.1877  1.5913
14741TIP3   OH265713   1.173   0.030   3.106 -0.1474  0.1137  0.0439
14741TIP3    H165714   1.190  -0.048   3.052  0.6086  0.6648 -0.5372
14741TIP3    H265715   1.112   0.082   3.053 -0.3272  0.1129  0.2493
14742TIP3   OH265716   6.513   0.270   2.034 -0.0232  0.3745  0.1532
14742TIP3    H165717   6.477   0.312   2.112  1.0207 -0.6269  1.1859
14742TIP3    H265718   6.605   0.296   2.033 -0.0876  0.5783 -0.8880
14743TIP3   OH265719   1.333   0.371   2.911 -1.0253 -0.1974  0.0407
14743TIP3    H165720   1.364   0.369   3.002 -0.5261  0.3554 -0.1139
14743TIP3    H265721   1.403   0.415   2.863 -0.3045 -2.4049 -0.9996
14744TIP3   OH265722   3.848   0.909  13.130  0.1488 -0.0740  0.2018
14744TIP3    H165723   3.753   0.920  13.122  0.2652  0.1360 -0.9527
14744TIP3    H265724   3.884   0.994  13.106  0.6282 -0.1656  0.5933
14745TIP3   OH265725   5.841   5.990  15.121  0.1590  0.1090  0.3053
14745TIP3    H165726   5.807   6.041  15.046  1.5212  1.4940  0.6106
14745TIP3    H265727   5.922   6.035  15.145 -0.3859 -0.1903  2.7755
14746TIP3   OH265728   5.997   6.276  13.566 -0.1826  0.3030 -0.7070
14746TIP3    H165729   5.906   6.247  13.574 -0.4338  1.3612  0.5945
14746TIP3    H265730   6.047   6.196  13.555 -1.3668 -0.2220 -2.4186
14747TIP3   OH265731   1.921   1.530   3.953  0.0795 -0.5482  0.2642
14747TIP3    H165732   1.867   1.473   3.899  2.0652 -0.7588 -1.5458
14747TIP3    H265733   1.962   1.471   4.017 -1.1134 -0.5115  1.0798
14748TIP3   OH265734   6.645   5.573  15.183 -0.0168  0.2726  0.2694
14748TIP3    H165735   6.699   5.519  15.125  0.3083 -1.2182  1.9087
14748TIP3    H265736   6.663   5.663  15.156  0.7692 -0.3602 -1.3701
14749TIP3   OH265737   2.960   6.601  15.595 -0.3233 -0.0702 -0.1282
14749TIP3    H165738   2.948   6.511  15.628 -0.4668 -0.5945 -1.5869
14749TIP3    H265739   2.879   6.646  15.620 -0.4051 -0.4332  0.2863
14750TIP3   OH265740   3.771   4.135   3.933 -0.6076  0.7738  0.0252
14750TIP3    H165741   3.707   4.207   3.935 -0.9932  0.4393 -0.0556
14750TIP3    H265742   3.789   4.117   4.025 -1.2147  0.3602  0.0676
14751TIP3   OH265743   3.396   4.904   0.716 -0.1630  0.0552  0.1868
14751TIP3    H165744   3.434   4.843   0.653  0.3077  0.3012  0.2257
14751TIP3    H265745   3.363   4.849   0.787  0.1055 -0.1617  0.1408
14752TIP3   OH265746   4.467   0.351  16.696  0.6105  0.1598  0.1869
14752TIP3    H165747   4.531   0.388  16.756  0.0870 -1.0934  1.5432
14752TIP3    H265748   4.390   0.406  16.705  0.7890  0.4222  0.1044
14753TIP3   OH265749   1.382   1.759   1.332  0.3589  0.3958 -0.2568
14753TIP3    H165750   1.436   1.833   1.305  1.0104 -0.3652 -1.0956
14753TIP3    H265751   1.293   1.783   1.307  0.7538  0.3221 -1.7705
14754TIP3   OH265752   0.817   2.994   4.603 -0.2115  0.1976  0.5004
14754TIP3    H165753   0.868   2.934   4.550 -1.0418  0.0474 -0.1286
14754TIP3    H265754   0.873   3.013   4.679  0.6671 -0.1552 -0.0625
14755TIP3   OH265755   0.708   2.678   6.709  0.0699 -0.7409 -0.0132
14755TIP3    H165756   0.614   2.674   6.692 -0.0152  0.0436  0.2326
14755TIP3    H265757   0.732   2.589   6.735 -0.9328 -0.5704  1.5506
14756TIP3   OH265758   3.202   4.282  11.661  0.3748  0.4224  0.4755
14756TIP3    H165759   3.267   4.229  11.707  0.1535 -0.4986 -0.2456
14756TIP3    H265760   3.254   4.337  11.602  0.4989 -0.6484 -0.4445
14757TIP3   OH265761   0.978   4.895  14.295  0.3739 -0.1904 -0.4515
14757TIP3    H165762   0.972   4.923  14.203 -1.2272 -0.5760 -0.4747
14757TIP3    H265763   1.044   4.953  14.333 -1.5022  2.3975 -0.9618
14758TIP3   OH265764   3.121   1.380   3.694  0.2819  0.0430 -0.2374
14758TIP3    H165765   3.213   1.389   3.718  0.2984 -1.0154  0.1333
14758TIP3    H265766   3.119   1.398   3.600  0.6188  1.5934  0.0498
14759TIP3   OH265767   6.094   4.901  12.888  0.7959  0.3152 -0.0967
14759TIP3    H165768   6.105   4.820  12.838 -0.7406  0.3117 -0.4593
14759TIP3    H265769   6.125   4.969  12.829 -0.1029  0.2150 -0.6922
14760TIP3   OH265770   5.221   5.463  16.615 -0.0170 -0.3354  0.0450
14760TIP3    H165771   5.157   5.447  16.684  1.1698  0.0475  1.2555
14760TIP3    H265772   5.201   5.550  16.582  0.1589 -0.0293  0.7411
14761TIP3   OH265773   6.446   4.388   1.986  0.3519  0.6388  0.3479
14761TIP3    H165774   6.369   4.444   1.989  2.1570  3.1140  2.1297
14761TIP3    H265775   6.431   4.322   2.053 -0.7774  0.3432 -0.1944
14762TIP3   OH265776   3.675   3.335  13.881  0.6106 -0.5619 -0.4573
14762TIP3    H165777   3.615   3.345  13.955  0.9694 -0.4770 -0.1810
14762TIP3    H265778   3.746   3.281  13.915 -0.5156 -2.7591 -1.4627
14763TIP3   OH265779   3.690   6.688   4.944  0.6344  0.2251  0.4436
14763TIP3    H165780   3.689   6.605   4.992  0.6107 -0.5573 -0.8689
14763TIP3    H265781   3.771   6.684   4.893 -0.2324  0.2174 -0.9638
14764TIP3   OH265782   3.731   5.134  14.491 -0.6836 -0.2116  0.4440
14764TIP3    H165783   3.772   5.048  14.498 -1.8513 -0.9015 -0.9790
14764TIP3    H265784   3.751   5.163  14.402 -1.6637  0.2760  0.3798
14765TIP3   OH265785   6.676   0.294   6.399  0.6335 -0.0170  0.5378
14765TIP3    H165786   6.683   0.382   6.362  1.2341 -0.6246 -0.8451
14765TIP3    H265787   6.608   0.251   6.346  3.1575 -1.6591 -1.5076
14766TIP3   OH265788   0.292   2.721   4.720  0.2506  0.0860 -0.1674
14766TIP3    H165789   0.280   2.735   4.626 -2.6857  0.3802  0.2005
14766TIP3    H265790   0.235   2.785   4.761  0.1005 -1.2577  1.7927
14767TIP3   OH265791   3.194   1.258   0.127  0.1057  0.2559 -0.2885
14767TIP3    H165792   3.153   1.283   0.044 -0.7770 -2.3171 -0.6751
14767TIP3    H265793   3.124   1.215   0.177  0.4684  2.2949  2.0791
14768TIP3   OH265794   2.334   0.631   5.302  0.1648 -0.0826 -0.2128
14768TIP3    H165795   2.311   0.547   5.262 -2.3212 -0.1152  1.1872
14768TIP3    H265796   2.358   0.608   5.392 -1.7919  0.8117  0.5647
14769TIP3   OH265797   3.072   5.006   0.721  0.7476 -0.0167 -0.8974
14769TIP3    H165798   3.025   4.956   0.789  0.1136 -0.0533 -1.3609
14769TIP3    H265799   3.120   5.073   0.770  0.3279 -0.0712 -0.4010
14770TIP3   OH265800   3.764   2.476  15.547  0.3838 -0.0627  0.1597
14770TIP3    H165801   3.801   2.433  15.624 -1.2846  1.5040  1.8732
14770TIP3    H265802   3.726   2.404  15.496 -1.1074 -0.8095  2.2729
14771TIP3   OH265803   5.128   0.721  16.777  0.1390 -0.0431  0.1495
14771TIP3    H165804   5.035   0.700  16.769  0.5811 -2.2544  0.4943
14771TIP3    H265805   5.143   0.729  16.871  0.5693 -1.1394  0.1871
14772TIP3   OH265806   6.650   4.094   5.921 -0.4732 -0.2276  0.5141
14772TIP3    H165807   6.623   4.138   6.002  0.7507 -2.0296  1.9538
14772TIP3    H265808   6.734   4.134   5.898 -1.7520  1.6683 -1.0092
14773TIP3   OH265809   1.627   4.410  13.339  0.2224  0.7430 -0.5722
14773TIP3    H165810   1.673   4.492  13.318 -0.1638  1.3939  1.0447
14773TIP3    H265811   1.622   4.409  13.434  0.6087 -1.4050 -0.5593
14774TIP3   OH265812   6.779   2.344   0.944  0.1322  0.2289 -0.0585
14774TIP3    H165813   6.734   2.285   1.005 -1.7723  1.4770 -0.1943
14774TIP3    H265814   6.739   2.325   0.859  0.1436  1.0804 -0.2555
14775TIP3   OH265815   5.064   1.898  11.904 -0.8876 -0.7167  0.0892
14775TIP3    H165816   4.994   1.832  11.894 -0.0110 -1.2957 -2.5004
14775TIP3    H265817   5.137   1.850  11.943 -1.3957 -0.4396  1.4366
14776TIP3   OH265818   5.980   3.150   2.389  0.6046 -0.1741 -0.2638
14776TIP3    H165819   5.968   3.132   2.295  0.3222 -0.7235 -0.1308
14776TIP3    H265820   5.970   3.064   2.430  0.6457  0.0808  0.2769
14777TIP3   OH265821   2.168   0.056   6.563 -0.0487  0.1217 -0.2701
14777TIP3    H165822   2.196   0.103   6.642 -0.7838 -1.5441  1.0324
14777TIP3    H265823   2.248   0.048   6.511  0.4445  1.2890  0.2833
14778TIP3   OH265824   5.893   1.078  11.449  0.3360  0.0011  0.1038
14778TIP3    H165825   5.883   1.115  11.361  0.3375 -0.3289 -0.0379
14778TIP3    H265826   5.921   1.152  11.503  0.4211  0.1876 -0.1914
14779TIP3   OH265827   0.284   4.649   2.711 -0.2690 -0.0706  0.0485
14779TIP3    H165828   0.357   4.696   2.670  0.5959 -0.6157  0.9299
14779TIP3    H265829   0.245   4.599   2.639  0.4472 -0.0470 -0.3722
14780TIP3   OH265830   2.652   4.092   3.837  0.6488 -0.2441 -0.2560
14780TIP3    H165831   2.705   4.120   3.763  2.0117 -0.8588  0.4682
14780TIP3    H265832   2.597   4.022   3.802  1.1795 -0.4337 -0.7176
14781TIP3   OH265833   4.173   4.920  12.703 -0.1513  0.3587 -0.3523
14781TIP3    H165834   4.093   4.971  12.693  0.8683  2.2708  0.8808
14781TIP3    H265835   4.143   4.829  12.702 -2.2866  1.0202 -0.3648
14782TIP3   OH265836   2.307   1.846  16.750 -0.6111 -0.4650  0.0273
14782TIP3    H165837   2.302   1.817  16.841  2.1566 -0.1269  0.3153
14782TIP3    H265838   2.227   1.897  16.737 -1.0617 -0.5532  2.2560
14783TIP3   OH265839   2.290   0.979  15.873 -0.0191 -0.1891 -0.3876
14783TIP3    H165840   2.330   1.028  15.945  0.0843 -0.3740 -0.3152
14783TIP3    H265841   2.341   1.004  15.796 -0.5569  0.5255 -0.5203
14784TIP3   OH265842   2.466   0.294  16.902  0.5556 -0.2531 -0.3077
14784TIP3    H165843   2.388   0.254  16.864  0.2944 -0.1244  0.0798
14784TIP3    H265844   2.482   0.372  16.848 -0.5978  0.6627  0.6416
14785TIP3   OH265845   0.920   4.222  11.938 -0.0551  0.3109 -0.5440
14785TIP3    H165846   0.931   4.247  11.846 -0.7389 -0.9100 -0.9794
14785TIP3    H265847   0.982   4.276  11.986  0.6791  0.5828 -1.7939
14786TIP3   OH265848   2.979   2.336   1.706 -0.2456 -0.1064  0.4381
14786TIP3    H165849   2.982   2.420   1.751 -0.6552  0.5991 -0.8062
14786TIP3    H265850   2.907   2.289   1.747 -0.2339  0.2853  0.9106
14787TIP3   OH265851   4.317   3.292  16.526  0.0270  0.1783  0.5389
14787TIP3    H165852   4.399   3.329  16.559 -0.9040  1.2723  1.6522
14787TIP3    H265853   4.276   3.253  16.603 -0.0034 -1.3370 -0.2206
14788TIP3   OH265854   2.501   1.603  11.968  0.2353  0.0171 -0.2209
14788TIP3    H165855   2.522   1.652  12.048  1.5060 -0.6178 -0.1531
14788TIP3    H265856   2.409   1.579  11.978 -0.1343  1.5421  0.1890
14789TIP3   OH265857   3.173   3.907   2.713 -0.5872  0.2954 -0.0621
14789TIP3    H165858   3.264   3.880   2.701 -0.2218  0.6448  1.7509
14789TIP3    H265859   3.178   3.976   2.779 -1.9606  1.8132 -1.5013
14790TIP3   OH265860   2.635   5.417  12.792 -0.3999 -0.0531 -0.4088
14790TIP3    H165861   2.702   5.394  12.856 -0.4591 -1.9632 -0.9961
14790TIP3    H265862   2.655   5.507  12.767 -0.1363  0.6113  1.9876
14791TIP3   OH265863   3.132   2.625  16.422 -0.1322 -0.0381 -0.1975
14791TIP3    H165864   3.098   2.590  16.340 -0.0551  0.1119 -0.2922
14791TIP3    H265865   3.144   2.719  16.406  0.5855 -0.1331 -0.2567
14792TIP3   OH265866   4.726   4.498   5.827  0.1869  0.5189 -0.1915
14792TIP3    H165867   4.789   4.502   5.754 -0.5615 -1.7603 -1.0070
14792TIP3    H265868   4.667   4.571   5.810 -0.5140 -0.5095 -2.4200
14793TIP3   OH265869   2.911   5.991  14.774 -0.1694  0.2736  0.6238
14793TIP3    H165870   2.894   6.024  14.863  0.3000  0.3988  0.6665
14793TIP3    H265871   2.852   5.916  14.765  1.0193 -0.8068  1.6833
14794TIP3   OH265872   0.868   6.303   1.520 -0.9615  0.3468 -0.4193
14794TIP3    H165873   0.897   6.298   1.611 -1.0990  1.2527 -0.3238
14794TIP3    H265874   0.794   6.364   1.521 -0.2916  1.2065 -1.2969
14795TIP3   OH265875   2.016   1.706  13.483  0.4972 -0.0381  0.3678
14795TIP3    H165876   2.055   1.792  13.496 -1.0886  1.2381 -2.8277
14795TIP3    H265877   1.922   1.720  13.493  0.2878 -1.5849  0.7208
14796TIP3   OH265878   3.276   3.376   2.088  0.2829  0.5403 -0.5079
14796TIP3    H165879   3.322   3.449   2.047  1.0867  0.6270  0.5430
14796TIP3    H265880   3.251   3.320   2.015  0.5873  1.3340 -1.2322
14797TIP3   OH265881   0.421   4.453  15.096  0.2011  0.3773 -0.6887
14797TIP3    H165882   0.369   4.459  15.015  0.0588  0.0826 -0.6206
14797TIP3    H265883   0.511   4.468  15.068  0.1105  0.6420 -0.8472
14798TIP3   OH265884   1.016   3.525  15.276 -0.6701  0.0873  0.2519
14798TIP3    H165885   0.996   3.533  15.369 -0.3870  1.8368  0.1679
14798TIP3    H265886   0.995   3.434  15.255  0.0094 -0.5346  2.1986
14799TIP3   OH265887   1.442   3.910  14.294 -0.4331 -0.5917  0.9436
14799TIP3    H165888   1.493   3.829  14.292 -0.3070 -0.5135  1.0445
14799TIP3    H265889   1.414   3.923  14.203 -1.4028 -1.3599  1.1136
14800TIP3   OH265890   6.206   0.437  14.636  0.2981  0.4644 -0.3403
14800TIP3    H165891   6.121   0.400  14.663 -0.2666  2.1240  0.2577
14800TIP3    H265892   6.266   0.413  14.706 -0.0954  0.7771  0.1098
14801TIP3   OH265893   1.830   1.361  16.517  0.3899  0.2661 -0.0513
14801TIP3    H165894   1.867   1.446  16.541  0.3773  0.3809 -0.4366
14801TIP3    H265895   1.767   1.342  16.586 -1.7361  1.9328 -1.4709
14802TIP3   OH265896   4.652   2.598  17.055  0.3046 -0.0433  0.2953
14802TIP3    H165897   4.610   2.526  17.007  1.2241  0.6610 -1.6176
14802TIP3    H265898   4.722   2.555  17.105  1.3626 -0.4123 -1.4562
14803TIP3   OH265899   1.015   6.208  14.327  0.0344 -0.6285 -0.4015
14803TIP3    H165900   1.050   6.206  14.238 -1.4681 -2.0185 -1.0016
14803TIP3    H265901   0.987   6.118  14.343  0.3950 -0.4119  1.5333
14804TIP3   OH265902   1.700   0.989   1.647  0.2094 -0.1614 -0.2009
14804TIP3    H165903   1.736   0.901   1.659  1.6254  0.2773 -1.0430
14804TIP3    H265904   1.695   1.025   1.736 -0.2913 -1.0563  0.1380
14805TIP3   OH265905   3.165   5.128  17.219  0.2406 -0.3291 -0.1889
14805TIP3    H165906   3.174   5.039  17.255  0.8031 -0.3991 -0.4954
14805TIP3    H265907   3.173   5.117  17.125 -0.5804 -0.0582 -0.2955
14806TIP3   OH265908   2.976   0.623  13.941 -0.4153 -0.3201 -0.1356
14806TIP3    H165909   2.958   0.579  14.025  1.8228 -1.3105 -0.1363
14806TIP3    H265910   2.954   0.557  13.875  1.3204 -0.8809 -0.1859
14807TIP3   OH265911   3.090   2.371  15.986 -0.0606 -0.0020  0.2676
14807TIP3    H165912   2.996   2.369  15.969  0.1566  0.0738 -0.9694
14807TIP3    H265913   3.102   2.446  16.045 -0.8353 -0.3377  0.8611
14808TIP3   OH265914   6.135   1.393   4.515  0.3197 -0.6532 -0.1895
14808TIP3    H165915   6.197   1.348   4.573  0.3827 -2.6311 -1.7737
14808TIP3    H265916   6.188   1.457   4.468  0.4307  0.3338  1.2201
14809TIP3   OH265917   3.115   4.163  15.599  0.1246 -0.4802  0.0970
14809TIP3    H165918   3.096   4.196  15.511  0.3120 -1.9283 -0.5034
14809TIP3    H265919   3.210   4.167  15.606  0.2118 -1.6926 -0.3094
14810TIP3   OH265920   5.323   0.220  15.656 -0.0451 -0.3064  0.4153
14810TIP3    H165921   5.351   0.292  15.712  0.2042 -0.4495  0.4754
14810TIP3    H265922   5.280   0.159  15.715 -0.7122  0.0306  0.2819
14811TIP3   OH265923   0.940   3.853  14.031  0.4698  0.4226 -1.1307
14811TIP3    H165924   0.976   3.862  14.119 -2.8273 -0.4452  0.3971
14811TIP3    H265925   0.958   3.762  14.007  1.6223  0.7387 -1.4927
14812TIP3   OH265926   5.349   3.161  11.823 -0.1090 -0.1927  0.2929
14812TIP3    H165927   5.415   3.161  11.892  0.5632 -0.1330 -0.3464
14812TIP3    H265928   5.267   3.178  11.869  0.5396  1.4887  0.8956
14813TIP3   OH265929   6.117   1.881   5.881 -0.3204  0.2196 -0.0372
14813TIP3    H165930   6.200   1.886   5.928  0.1323  0.7689 -0.8997
14813TIP3    H265931   6.105   1.968   5.843 -1.1608  0.0642 -0.1417
14814TIP3   OH265932   2.215   1.555  11.984  0.0012  0.0984  0.4519
14814TIP3    H165933   2.132   1.523  12.018 -0.7699  0.4099 -1.0970
14814TIP3    H265934   2.200   1.564  11.890  2.1858 -1.0739 -0.0377
14815TIP3   OH265935   5.683   1.695   5.533  0.2936  1.0300  0.5446
14815TIP3    H165936   5.689   1.634   5.607 -0.3165 -1.0786 -1.0833
14815TIP3    H265937   5.762   1.679   5.482  0.9706  2.8548  0.9794
14816TIP3   OH265938   3.796   4.510   1.145 -0.8591  1.0822 -0.1475
14816TIP3    H165939   3.748   4.488   1.224 -1.4359  1.1380 -0.4807
14816TIP3    H265940   3.728   4.527   1.079 -0.4670 -2.3296 -1.5931
14817TIP3   OH265941   0.071   5.960   0.745 -0.4612  0.2992  0.4856
14817TIP3    H165942  -0.001   6.003   0.791 -0.1161 -0.2332  1.5536
14817TIP3    H265943   0.149   5.988   0.792  0.0136  0.6766 -0.5157
14818TIP3   OH265944   3.039   6.234   0.182 -0.2325  0.4729 -0.3129
14818TIP3    H165945   2.945   6.250   0.196 -0.1796 -0.3131  1.0293
14818TIP3    H265946   3.044   6.139   0.166  0.2832  0.5858 -0.8162
14819TIP3   OH265947   2.703   1.367   3.911 -0.6238 -0.0039 -0.3069
14819TIP3    H165948   2.714   1.342   4.003 -0.2063  3.9000  0.7731
14819TIP3    H265949   2.771   1.317   3.865  1.3170  0.4415  1.9782
14820TIP3   OH265950   3.424   6.558   4.752 -0.1549  0.0013 -0.0352
14820TIP3    H165951   3.513   6.525   4.762  1.3350  3.1429 -1.8789
14820TIP3    H265952   3.399   6.590   4.839  1.1098  0.4166  0.1775
14821TIP3   OH265953   4.810   3.155  12.295 -0.4698 -0.2579 -0.7377
14821TIP3    H165954   4.878   3.113  12.243 -0.7939  0.8288 -2.0825
14821TIP3    H265955   4.746   3.086  12.313  0.4508 -1.0213 -0.4032
14822TIP3   OH265956   0.031   3.786  15.751 -0.3252 -0.1469 -0.5415
14822TIP3    H165957   0.080   3.707  15.729  1.4594  0.7932 -0.0806
14822TIP3    H265958  -0.009   3.767  15.836  1.4613  0.0292  0.3501
14823TIP3   OH265959   5.850   3.334  17.143  0.5775  0.6812 -0.1270
14823TIP3    H165960   5.858   3.270  17.212 -1.8080  0.3046 -0.1484
14823TIP3    H265961   5.787   3.398  17.177  1.5422  2.0176 -0.8209
14824TIP3   OH265962   3.486   2.622   3.245  0.3519 -0.2747 -0.6862
14824TIP3    H165963   3.482   2.707   3.202  0.1708  0.2334  0.3082
14824TIP3    H265964   3.474   2.642   3.338 -0.4776 -1.4613 -0.5260
14825TIP3   OH265965   5.340   1.606  13.972 -0.3983  0.6934 -0.4317
14825TIP3    H165966   5.301   1.519  13.971  0.2385  0.3824  0.7882
14825TIP3    H265967   5.435   1.591  13.969 -0.2900  1.3599 -0.6625
14826TIP3   OH265968   4.908   6.025   1.979  0.2781  0.4347  0.2698
14826TIP3    H165969   4.990   5.994   1.941  1.0853  1.6250  0.9854
14826TIP3    H265970   4.872   5.949   2.023  0.5317 -0.3382 -0.8324
14827TIP3   OH265971   5.609   1.440  15.399 -0.3483 -0.2987 -0.4216
14827TIP3    H165972   5.551   1.368  15.377  0.8426 -1.0998 -1.0042
14827TIP3    H265973   5.691   1.419  15.355 -0.4326  2.1856 -1.8460
14828TIP3   OH265974   2.785   2.963  17.269 -0.4845 -0.2823 -0.3791
14828TIP3    H165975   2.692   2.944  17.284 -0.3299 -1.4893 -0.8658
14828TIP3    H265976   2.811   2.901  17.201  0.2914  1.1164 -1.3752
14829TIP3   OH265977   6.071   4.386   1.740 -0.0057 -0.2890  0.1920
14829TIP3    H165978   5.994   4.436   1.768 -0.0096  1.1643 -2.2772
14829TIP3    H265979   6.137   4.453   1.718  1.3629 -1.4719  0.6079
14830TIP3   OH265980   6.367   1.164   2.672  0.2654  0.1156  0.4584
14830TIP3    H165981   6.308   1.178   2.746  2.0631  1.0782  1.7449
14830TIP3    H265982   6.377   1.069   2.667 -2.0973 -0.1368 -0.3914
14831TIP3   OH265983   0.652   5.996  16.833 -0.3172  0.1276 -0.2005
14831TIP3    H165984   0.651   5.969  16.741  2.5786  1.0900 -0.5565
14831TIP3    H265985   0.677   5.918  16.881 -0.8876 -0.1284 -0.3141
14832TIP3   OH265986   3.802   3.996  11.978  0.1317  0.4534 -0.2294
14832TIP3    H165987   3.743   4.029  11.910 -1.8990 -2.2511  0.1136
14832TIP3    H265988   3.838   3.916  11.942  0.6011  0.0560  1.0729
14833TIP3   OH265989   0.450   0.901   3.566  0.0353  0.5101 -0.8266
14833TIP3    H165990   0.373   0.856   3.531 -0.4526 -0.1345  0.9808
14833TIP3    H265991   0.517   0.832   3.574  0.1328  0.6380 -0.5143
14834TIP3   OH265992   1.602   0.904   2.344 -0.7513 -0.6676 -0.0075
14834TIP3    H165993   1.525   0.961   2.338 -0.4461 -0.0780  1.4797
14834TIP3    H265994   1.599   0.869   2.433  0.6035 -0.7618  0.0141
14835TIP3   OH265995   6.243   4.556   1.038 -0.3764 -0.6600 -0.2814
14835TIP3    H165996   6.273   4.478   0.992 -0.5829 -0.3649 -0.9265
14835TIP3    H265997   6.148   4.545   1.047 -0.4466 -0.3626 -0.6202
14836TIP3   OH265998   0.206   4.840   3.332 -0.5637 -0.5727 -0.7243
14836TIP3    H165999   0.223   4.899   3.405 -0.9838 -0.5443 -0.6517
14836TIP3    H266000   0.144   4.888   3.276  0.6950 -0.0716 -1.7252
14837TIP3   OH266001   4.291   5.867  16.151 -0.0457  0.4819 -0.5284
14837TIP3    H166002   4.365   5.926  16.166 -0.4341  0.6859  0.5898
14837TIP3    H266003   4.322   5.782  16.183 -0.2571  0.5491 -0.1372
14838TIP3   OH266004   6.599   1.890   2.347 -0.0777 -0.0718 -0.4406
14838TIP3    H166005   6.626   1.961   2.405 -1.3129  1.5937 -1.8392
14838TIP3    H266006   6.679   1.867   2.299  1.0585 -1.7613  2.1492
14839TIP3   OH266007   6.565   4.331   4.367  0.6858 -0.0791 -0.1084
14839TIP3    H166008   6.490   4.384   4.394  2.0186 -0.2413  4.1988
14839TIP3    H266009   6.590   4.367   4.281 -4.3087 -0.1325 -1.7046
14840TIP3   OH266010   3.359   5.476  15.187  0.0082  0.0605 -0.3677
14840TIP3    H166011   3.425   5.538  15.217 -0.3458 -0.0162  0.5737
14840TIP3    H266012   3.315   5.521  15.114 -0.4258  1.0217  0.4823
14841TIP3   OH266013   3.021   4.118  17.043 -0.1898  0.4430 -0.3177
14841TIP3    H166014   3.004   4.121  17.137 -0.0030  1.6345 -0.3127
14841TIP3    H266015   2.987   4.033  17.015 -0.5301  0.2131  0.7715
14842TIP3   OH266016   5.385   5.709   5.747  0.5609 -0.5151 -0.1708
14842TIP3    H166017   5.383   5.616   5.725 -0.7489 -0.5802  0.1970
14842TIP3    H266018   5.463   5.743   5.702  0.3010 -1.5145 -1.3986
14843TIP3   OH266019   6.477   0.943   5.562 -0.5017 -0.4433 -0.4517
14843TIP3    H166020   6.404   0.990   5.601  0.1938 -0.6363  1.1330
14843TIP3    H266021   6.487   0.865   5.617  1.5668  0.1294  0.0333
14844TIP3   OH266022   5.429   6.156   1.387  0.6992  0.2235 -0.0332
14844TIP3    H166023   5.392   6.220   1.447  0.0282 -0.1997  0.0143
14844TIP3    H266024   5.523   6.170   1.391  0.6812 -0.0017  1.3516
14845TIP3   OH266025   4.434   2.972  14.109 -0.0460  0.0479  0.2303
14845TIP3    H166026   4.388   2.913  14.169  1.0518 -1.7689 -0.6773
14845TIP3    H266027   4.469   3.041  14.165 -0.6011 -0.6245  1.4251
14846TIP3   OH266028   3.905   5.432  16.466  0.3242 -0.1820  0.1675
14846TIP3    H166029   3.812   5.453  16.462  0.6518  1.4521  0.7834
14846TIP3    H266030   3.914   5.351  16.415 -1.0368  0.9414 -1.9080
14847TIP3   OH266031   4.009   2.085   0.269  0.0503 -0.0168 -0.0572
14847TIP3    H166032   3.921   2.114   0.293  0.7242  2.7857 -0.7885
14847TIP3    H266033   4.061   2.098   0.348  0.4329  1.1514 -0.4927
14848TIP3   OH266034   5.985   1.506   1.404 -0.2049 -0.0339 -0.1160
14848TIP3    H166035   6.075   1.526   1.378 -0.0536 -0.7593 -0.1555
14848TIP3    H266036   5.945   1.468   1.325 -0.5931  0.4373 -0.1483
14849TIP3   OH266037   3.902   0.422  10.432 -0.1298  0.2354  0.0205
14849TIP3    H166038   3.868   0.509  10.454 -1.8450 -1.1853  3.3070
14849TIP3    H266039   3.983   0.414  10.483 -2.1861 -1.6560  3.1257
14850TIP3   OH266040   2.268   6.419  14.365 -0.3315  0.7197 -1.1327
14850TIP3    H166041   2.248   6.448  14.276 -4.5861 -0.8685 -0.8115
14850TIP3    H266042   2.193   6.449  14.418 -0.5321 -3.0148  0.8507
14851TIP3   OH266043   4.947   4.947   4.452 -0.3606 -0.1905  0.3549
14851TIP3    H166044   5.004   5.014   4.491  0.7594 -1.0305  0.1584
14851TIP3    H266045   4.960   4.870   4.507 -1.1424 -0.4602  0.1687
14852TIP3   OH266046   0.765   4.649   5.723  0.5719 -0.1350  0.4685
14852TIP3    H166047   0.690   4.626   5.779  0.4570 -2.1342 -0.4329
14852TIP3    H266048   0.729   4.710   5.659  0.1504  0.3735  1.1875
14853TIP3   OH266049   2.971   5.874  13.195  0.0376  0.0615  0.5743
14853TIP3    H166050   2.951   5.912  13.109  1.9864  0.2759  0.1966
14853TIP3    H266051   3.002   5.786  13.177  0.3635  0.0709  1.0543
14854TIP3   OH266052   2.443   5.932   4.682 -0.3195  0.0853  0.6737
14854TIP3    H166053   2.485   5.961   4.763 -2.6042  0.5300  1.7460
14854TIP3    H266054   2.455   5.838   4.681 -0.9374 -0.0242  1.9514
14855TIP3   OH266055   2.117   3.823   2.144 -0.0294 -0.2520  0.5387
14855TIP3    H166056   2.055   3.779   2.202 -0.8940 -1.6384 -1.3826
14855TIP3    H266057   2.069   3.834   2.062  1.5010  0.7649 -0.2341
14856TIP3   OH266058   5.494   5.590  15.754 -0.5797  0.0687  0.0198
14856TIP3    H166059   5.434   5.656  15.791  2.3508  3.7256 -1.4321
14856TIP3    H266060   5.461   5.575  15.665 -0.4137  0.7042 -0.1523
14857TIP3   OH266061   1.123   3.301   5.254 -0.0031  0.4815 -0.0946
14857TIP3    H166062   1.106   3.351   5.334  0.3341  1.4493 -0.6132
14857TIP3    H266063   1.215   3.321   5.233 -0.2983  0.7963 -1.1074
14858TIP3   OH266064   4.155   2.483   1.313 -0.5559 -0.4560  1.2255
14858TIP3    H166065   4.103   2.420   1.363  0.2982 -2.3869 -0.2272
14858TIP3    H266066   4.233   2.497   1.367 -1.5428  0.7213  2.3629
14859TIP3   OH266067   3.943   4.722  13.382  0.4957 -0.3899 -0.2799
14859TIP3    H166068   4.032   4.759  13.378  1.0105 -1.4427  1.0150
14859TIP3    H266069   3.940   4.659  13.309  1.3221 -1.3996  0.5350
14860TIP3   OH266070   1.940   0.397   1.992  0.1408  0.1275 -0.5475
14860TIP3    H166071   1.856   0.416   2.033  1.4098  1.5841  1.4246
14860TIP3    H266072   1.974   0.482   1.964  1.0566 -0.4241 -1.1714
14861TIP3   OH266073   2.681   0.709  10.928  0.4405  0.4283 -0.0525
14861TIP3    H166074   2.674   0.804  10.940 -3.3533  0.3247 -0.8552
14861TIP3    H266075   2.707   0.676  11.014  1.8163  2.1491  0.2259
14862TIP3   OH266076   6.203   2.613   2.761 -0.1992 -0.1727 -0.0537
14862TIP3    H166077   6.203   2.616   2.665  0.4462  0.7739 -0.0256
14862TIP3    H266078   6.266   2.544   2.782 -1.5622 -1.5250 -0.3344
14863TIP3   OH266079   4.747   6.089   3.788 -0.3734 -0.0285  0.1762
14863TIP3    H166080   4.755   5.995   3.771  2.0547  0.0412  0.8176
14863TIP3    H266081   4.654   6.102   3.806 -0.8309 -2.2126 -0.4938
14864TIP3   OH266082   2.421   1.683   6.101  0.6117 -0.0135  0.5398
14864TIP3    H166083   2.450   1.748   6.165  0.9775 -0.6230  0.9981
14864TIP3    H266084   2.496   1.625   6.090  0.2318 -0.4538  0.2533
14865TIP3   OH266085   6.392   5.286  17.094 -0.3348 -0.4428  0.0663
14865TIP3    H166086   6.432   5.354  17.150 -1.0753 -1.3690  1.7617
14865TIP3    H266087   6.378   5.329  17.010  1.2711  0.8499  0.4373
14866TIP3   OH266088   5.377   6.238  14.749  0.7230  0.2592  0.7474
14866TIP3    H166089   5.370   6.270  14.839 -1.7011 -1.2775  1.1559
14866TIP3    H266090   5.342   6.149  14.753  0.5025  0.2064 -1.7284
14867TIP3   OH266091   0.439   3.726   2.208 -0.2326 -0.6331 -0.2172
14867TIP3    H166092   0.442   3.746   2.114  0.3118 -1.7960 -0.4616
14867TIP3    H266093   0.350   3.694   2.223 -0.2523 -0.6589 -0.3912
14868TIP3   OH266094   0.167   6.653   3.480  0.4354  0.1648 -0.4805
14868TIP3    H166095   0.198   6.646   3.571 -1.4077 -1.0600  0.0731
14868TIP3    H266096   0.206   6.734   3.448  2.0306  0.0381  1.0370
14869TIP3   OH266097   3.937   6.477   4.968 -1.0919 -0.3332 -0.1001
14869TIP3    H166098   4.018   6.441   4.932 -1.3921 -1.0593 -0.0661
14869TIP3    H266099   3.911   6.414   5.035 -1.1292  0.4386  0.6199
14870TIP3   OH266100   0.320   5.001  17.173 -0.3628  0.1854 -0.7536
14870TIP3    H166101   0.387   4.945  17.133 -0.4610 -1.1258  0.8811
14870TIP3    H266102   0.369   5.071  17.215 -0.1451  0.4659 -1.4718
14871TIP3   OH266103   5.251   3.221  15.269 -0.3739  0.7606  0.0115
14871TIP3    H166104   5.295   3.284  15.212  0.6369  0.0712  0.0202
14871TIP3    H266105   5.322   3.167  15.304 -1.0370  0.9020  1.5806
14872TIP3   OH266106   5.130   4.994   0.948  0.0738  0.1571 -0.1963
14872TIP3    H166107   5.055   5.012   1.005  0.7541  0.3620  0.6569
14872TIP3    H266108   5.164   4.910   0.980  0.3722  0.2036 -0.3992
14873TIP3   OH266109   3.937   1.252   2.431  0.3399  0.4076  0.4640
14873TIP3    H166110   3.927   1.177   2.488  1.0321  1.0256  1.4129
14873TIP3    H266111   3.949   1.327   2.490 -0.8121  1.3449 -0.4523
14874TIP3   OH266112   4.413   5.459  16.820  0.1423  0.1070  0.9411
14874TIP3    H166113   4.329   5.416  16.831 -0.2740  0.7464  0.2873
14874TIP3    H266114   4.438   5.486  16.908  1.2067 -2.9275  1.6263
14875TIP3   OH266115   0.345   0.158  17.010  0.5057 -0.2356  0.1070
14875TIP3    H166116   0.390   0.232  17.051 -0.5375 -1.0569  2.9317
14875TIP3    H266117   0.252   0.181  17.017  0.3195  0.0587 -2.8399
14876TIP3   OH266118   4.268   0.571   1.552  0.5678  0.1902 -1.0139
14876TIP3    H166119   4.286   0.554   1.644 -1.1516 -0.8066 -0.8470
14876TIP3    H266120   4.206   0.644   1.552 -0.7257 -0.8933 -1.2993
14877TIP3   OH266121   6.695   0.096  13.044 -0.1812  0.0081 -0.5727
14877TIP3    H166122   6.703   0.017  12.991 -3.1890  0.6386 -2.0549
14877TIP3    H266123   6.739   0.164  12.992  0.3398 -0.1871 -0.3919
14878TIP3   OH266124   5.125   4.284  12.815 -0.3630  0.2611  0.1456
14878TIP3    H166125   5.130   4.198  12.856  1.8602  0.3872  0.2006
14878TIP3    H266126   5.098   4.343  12.885 -1.5406 -0.3240  0.1902
14879TIP3   OH266127   0.988   1.915  16.418 -0.0988 -0.4749  0.1519
14879TIP3    H166128   1.025   1.844  16.364  1.0159  0.1486  0.0782
14879TIP3    H266129   0.950   1.976  16.354 -1.8955 -1.4407  0.2571
14880TIP3   OH266130   4.557   1.454  13.006  0.5722 -0.2147 -0.4689
14880TIP3    H166131   4.574   1.382  13.067  1.5297 -1.5112 -2.2085
14880TIP3    H266132   4.629   1.515  13.022 -0.7022  0.8105  1.6033
14881TIP3   OH266133   0.668   6.524  15.175 -0.0501 -0.1231 -0.2433
14881TIP3    H166134   0.648   6.442  15.221  1.6843 -1.5395 -1.9481
14881TIP3    H266135   0.597   6.533  15.111  0.1044 -0.6206 -0.4839
14882TIP3   OH266136   3.958   2.917  12.553 -0.2306  0.1435 -0.2549
14882TIP3    H166137   3.878   2.956  12.589 -0.3833 -1.6266  1.3901
14882TIP3    H266138   3.972   2.838  12.605  1.2914 -0.8306 -2.0709
14883TIP3   OH266139   4.648   3.400  17.034 -0.0289 -0.5943  0.3381
14883TIP3    H166140   4.611   3.324  16.989  1.4108 -2.3178  1.9533
14883TIP3    H266141   4.742   3.381  17.041  0.4852  1.6923  0.1089
14884TIP3   OH266142   2.790   5.610   2.308  0.3480  0.2957 -0.2170
14884TIP3    H166143   2.804   5.595   2.214  0.1069 -0.5404 -0.1238
14884TIP3    H266144   2.856   5.676   2.332 -0.1595  1.1479 -1.1509
14885TIP3   OH266145   4.415   2.812  13.201  0.5567 -0.2878  0.0732
14885TIP3    H166146   4.343   2.875  13.190  1.1772  0.3782 -0.2333
14885TIP3    H266147   4.466   2.846  13.274  2.5667  1.2027 -1.9689
14886TIP3   OH266148   5.533   0.567  12.518 -0.4098 -0.0886  0.0594
14886TIP3    H166149   5.550   0.561  12.424 -0.5233 -0.9631  0.0832
14886TIP3    H266150   5.588   0.499  12.556 -1.4762 -0.7404  0.4655
14887TIP3   OH266151   3.691   4.449   2.626 -0.0749 -0.0728  0.1559
14887TIP3    H166152   3.780   4.440   2.594  0.4174 -1.1574  1.7142
14887TIP3    H266153   3.700   4.492   2.711 -1.0759  0.2902  0.0892
14888TIP3   OH266154   6.791   5.255   0.703 -0.1909  0.6421  0.1325
14888TIP3    H166155   6.755   5.338   0.672  1.1191  1.4805  0.8172
14888TIP3    H266156   6.740   5.236   0.781  0.1976  1.3593  0.5752
14889TIP3   OH266157   4.575   3.780  14.556 -0.1453 -0.7612 -0.5158
14889TIP3    H166158   4.651   3.722  14.553  1.3512  1.0490  1.4344
14889TIP3    H266159   4.522   3.747  14.629  0.6574  0.2562  0.5310
14890TIP3   OH266160   3.409   1.823  14.334  0.3121  0.3496  0.5673
14890TIP3    H166161   3.346   1.776  14.279  1.0007 -0.1686  0.2145
14890TIP3    H266162   3.362   1.839  14.416  0.0513 -0.9150  0.6695
14891TIP3   OH266163   2.649   5.468  15.848  0.0197 -0.2734  0.4592
14891TIP3    H166164   2.740   5.469  15.877  0.2688 -1.6219 -0.1950
14891TIP3    H266165   2.641   5.386  15.798 -1.9149 -0.8684  1.7018
14892TIP3   OH266166   0.548   1.792  15.142  0.3755  0.1805  0.0972
14892TIP3    H166167   0.568   1.718  15.084 -1.0285 -0.2963  0.2033
14892TIP3    H266168   0.590   1.867  15.100 -0.6235 -0.1616 -1.5633
14893TIP3   OH266169   1.842   6.100   6.299  0.1368  0.6053  0.1464
14893TIP3    H166170   1.937   6.108   6.307  0.3549 -0.3076 -1.2852
14893TIP3    H266171   1.807   6.162   6.363  1.6950  1.3825  0.2674
14894TIP3   OH266172   1.999   4.440  13.030  0.8129 -0.3730  0.4720
14894TIP3    H166173   2.019   4.363  12.976  1.2881  1.0982 -1.4999
14894TIP3    H266174   1.921   4.416  13.079  1.6854 -2.5710  0.8363
14895TIP3   OH266175   6.805   1.182  14.552 -0.4097  0.1334 -0.0093
14895TIP3    H166176   6.716   1.156  14.526 -0.5027 -0.6924  1.1025
14895TIP3    H266177   6.860   1.107  14.529 -0.2302  0.0659  0.6386
14896TIP3   OH266178   0.866   6.777   1.307 -0.5768  0.2141 -0.1480
14896TIP3    H166179   0.832   6.806   1.391 -1.9403  1.0681 -0.9812
14896TIP3    H266180   0.842   6.847   1.246  1.1881  0.0303 -1.0807
14897TIP3   OH266181   6.647   5.912   4.500  0.0842  0.0172 -0.0683
14897TIP3    H166182   6.599   5.910   4.583  0.4593  0.6612  0.1617
14897TIP3    H266183   6.601   5.979   4.448  1.2366  1.2334  0.4594
14898TIP3   OH266184   6.473   1.728  16.507  0.0378 -0.3488  0.2349
14898TIP3    H166185   6.407   1.705  16.441 -0.0647  2.1153 -0.5749
14898TIP3    H266186   6.435   1.802  16.553  0.7295 -1.1704  2.1705
14899TIP3   OH266187   0.708   2.779  16.333 -0.1273  0.4037  0.1071
14899TIP3    H166188   0.784   2.723  16.341 -0.4443 -0.0840 -0.2481
14899TIP3    H266189   0.743   2.868  16.337  0.5716  0.1907 -1.0283
14900TIP3   OH266190   5.317   3.597   4.829  0.3085  0.0484  0.5168
14900TIP3    H166191   5.373   3.660   4.875  1.2359 -0.8131  0.5848
14900TIP3    H266192   5.303   3.526   4.891 -1.4786  0.5990  0.7523
14901TIP3   OH266193   3.443   3.862   2.328  0.0705 -0.6852  0.6352
14901TIP3    H166194   3.525   3.874   2.374 -0.4269  0.0749  1.3395
14901TIP3    H266195   3.394   3.799   2.381 -0.1913 -0.3862  0.7572
14902TIP3   OH266196   2.464   5.745  11.411  0.0416 -0.3892 -0.2955
14902TIP3    H166197   2.389   5.707  11.457  1.2636 -0.1723  1.9358
14902TIP3    H266198   2.509   5.670  11.372 -0.1323 -0.7690  0.2185
14903TIP3   OH266199   5.242   1.742  15.057 -0.5553 -0.0550 -0.0790
14903TIP3    H166200   5.322   1.785  15.030  0.5709 -1.5769  0.7468
14903TIP3    H266201   5.197   1.806  15.113  0.2832  0.6338 -0.1942
14904TIP3   OH266202   5.873   2.977  14.714  0.0656 -0.7701  0.1634
14904TIP3    H166203   5.856   2.973  14.809 -2.5507 -1.3367 -0.2836
14904TIP3    H266204   5.844   3.064  14.688 -0.0001 -0.9193 -0.2573
14905TIP3   OH266205   1.024   5.776  11.434  0.2450  0.2521 -0.7197
14905TIP3    H166206   1.074   5.697  11.453 -0.7375  0.0034  0.9175
14905TIP3    H266207   0.993   5.807  11.520 -1.9336  0.7034 -1.6267
14906TIP3   OH266208   6.565   5.582  13.847  0.1708 -0.0357  0.1029
14906TIP3    H166209   6.658   5.605  13.849  0.1033  0.3915 -0.9442
14906TIP3    H266210   6.563   5.495  13.808  0.2489 -0.8081  1.7827
14907TIP3   OH266211   6.147   6.464  17.097  0.3553  0.2804  0.6704
14907TIP3    H166212   6.155   6.444  17.190  1.6396 -0.1993  0.4689
14907TIP3    H266213   6.063   6.509  17.089  0.2587  0.3657  2.0642
14908TIP3   OH266214   4.683   2.446   2.588 -0.5617 -0.3989  0.2828
14908TIP3    H166215   4.733   2.455   2.669 -0.5726 -0.7863  0.3352
14908TIP3    H266216   4.677   2.351   2.574 -0.4685 -0.3294 -0.2284
14909TIP3   OH266217   4.577   2.571  12.321  0.3375 -0.4839 -0.1713
14909TIP3    H166218   4.512   2.635  12.351 -0.3832  0.1874 -3.0133
14909TIP3    H266219   4.629   2.552  12.399  0.2736  3.2167  0.8753
14910TIP3   OH266220   3.510   6.408   5.798 -0.0840  0.2206  0.2102
14910TIP3    H166221   3.596   6.449   5.808 -0.2115  1.1109 -2.0661
14910TIP3    H266222   3.473   6.449   5.720 -1.4565 -2.1234 -0.4199
14911TIP3   OH266223   1.078   3.459   3.087  0.2363 -0.1477 -0.0248
14911TIP3    H166224   1.068   3.379   3.035  1.3491 -0.8319  0.7929
14911TIP3    H266225   0.989   3.489   3.102 -0.2242 -1.4998  0.0465
14912TIP3   OH266226   4.710   0.632   3.194 -0.8436 -0.1082 -0.3399
14912TIP3    H166227   4.695   0.692   3.267 -0.5213 -0.8837  0.3721
14912TIP3    H266228   4.805   0.634   3.180 -0.7160 -1.1327  0.2900
14913TIP3   OH266229   0.917   5.815   2.514  0.6413 -0.1238  0.0102
14913TIP3    H166230   0.978   5.743   2.534  0.4632 -0.3483 -0.2610
14913TIP3    H266231   0.881   5.839   2.599 -1.5333 -2.3386 -0.2401
14914TIP3   OH266232   1.839   6.196  11.031 -0.2341  0.2286 -0.4194
14914TIP3    H166233   1.877   6.140  10.962 -0.9734 -0.4294 -0.3047
14914TIP3    H266234   1.817   6.277  10.986  0.5452  0.3077 -0.6651
14915TIP3   OH266235   0.213   6.297  13.031  0.2055 -0.1724  0.2486
14915TIP3    H166236   0.157   6.357  13.080  1.2069  0.2358  0.9073
14915TIP3    H266237   0.255   6.353  12.965 -0.2394 -0.4962 -0.3104
14916TIP3   OH266238   0.953   4.615   0.804  0.3308 -0.4200 -1.0730
14916TIP3    H166239   0.895   4.669   0.751  0.1158  1.1411  0.6831
14916TIP3    H266240   1.040   4.631   0.768  0.2080  0.7477 -0.8871
14917TIP3   OH266241   4.018   0.196   4.844  0.3572 -0.1615 -0.6236
14917TIP3    H166242   4.038   0.226   4.933  1.4669  0.2363 -1.0077
14917TIP3    H266243   4.016   0.101   4.851  1.5667 -0.1765 -0.4073
14918TIP3   OH266244   1.352   3.989  14.024  0.1463 -0.2853  0.1062
14918TIP3    H166245   1.310   4.024  13.946 -0.2464  0.7906  0.7845
14918TIP3    H266246   1.439   3.960  13.994 -0.5383 -1.2333 -1.0062
14919TIP3   OH266247   0.092   1.953   5.502  0.1818 -1.0588  0.6592
14919TIP3    H166248   0.086   1.913   5.589 -0.0489 -2.6777 -0.0659
14919TIP3    H266249   0.160   1.903   5.457  1.8051  1.1395  0.5894
14920TIP3   OH266250   3.110   5.267  11.363 -0.8308 -0.5766  0.0770
14920TIP3    H166251   3.057   5.188  11.373 -2.0096  0.0314 -1.1919
14920TIP3    H266252   3.048   5.339  11.375 -0.1389  0.1496 -0.6896
14921TIP3   OH266253   0.553   1.987  14.436  0.4211  0.4025 -0.0023
14921TIP3    H166254   0.493   1.977  14.362  1.0557  0.4249 -0.5233
14921TIP3    H266255   0.626   1.928  14.416  0.4452  0.1651  0.7649
14922TIP3   OH266256   1.656   6.567   1.006  0.1713 -0.3167  0.3398
14922TIP3    H166257   1.596   6.633   1.042 -0.5284 -1.3932  1.1724
14922TIP3    H266258   1.604   6.522   0.939  1.3944  1.5312 -1.9207
14923TIP3   OH266259   0.990   6.087   0.652  0.2486  0.2161  0.2600
14923TIP3    H166260   0.901   6.122   0.645  0.4741  0.7752  0.0854
14923TIP3    H266261   1.031   6.141   0.719  0.3350 -0.3066  0.6268
14924TIP3   OH266262   5.536   5.156   0.497 -0.4488 -0.2909 -0.9160
14924TIP3    H166263   5.569   5.219   0.434 -0.3928 -0.1596 -0.7523
14924TIP3    H266264   5.579   5.178   0.580 -2.0058  0.7862 -0.3584
14925TIP3   OH266265   0.020   5.294   3.303 -0.0699 -0.3366 -0.4570
14925TIP3    H166266  -0.019   5.355   3.365  1.0068 -0.2196  0.1133
14925TIP3    H266267  -0.052   5.237   3.277 -0.5589 -0.2979  0.7975
14926TIP3   OH266268   5.988   6.294  15.379  0.1383  0.1721  0.0174
14926TIP3    H166269   6.061   6.354  15.392 -0.4837  1.3756 -1.8126
14926TIP3    H266270   5.911   6.346  15.402 -0.2396 -0.7268  0.8211
14927TIP3   OH266271   5.018   2.346  15.695 -0.2827  0.0324 -0.3132
14927TIP3    H166272   5.053   2.426  15.656  1.5150 -1.4731 -1.8871
14927TIP3    H266273   5.034   2.278  15.629 -0.1219 -1.9743  1.7269
14928TIP3   OH266274   6.218   2.234   1.439  0.0485 -0.5392  0.1138
14928TIP3    H166275   6.255   2.290   1.370  1.0071  1.6214  2.3135
14928TIP3    H266276   6.273   2.155   1.438  0.0710 -0.5287 -1.5464
14929TIP3   OH266277   1.219   6.346  11.074 -0.1353 -0.3506 -0.2303
14929TIP3    H166278   1.180   6.318  10.992  0.8451 -1.1239 -0.4448
14929TIP3    H266279   1.267   6.426  11.052  5.4715 -3.8747 -1.9418
14930TIP3   OH266280   0.785   4.373   1.369 -0.0927 -0.0515 -0.3167
14930TIP3    H166281   0.762   4.465   1.380  0.4812  0.2757 -1.7812
14930TIP3    H266282   0.834   4.352   1.449 -0.8860  0.6874  0.3789
14931TIP3   OH266283   3.158   6.270  15.799  0.1924 -0.4281  0.1232
14931TIP3    H166284   3.129   6.219  15.724  0.1984 -0.4132  0.1109
14931TIP3    H266285   3.248   6.244  15.814  0.1966 -0.4188  0.1146
14932TIP3   OH266286   0.111   4.468  12.780 -0.6757  0.0310  0.2518
14932TIP3    H166287   0.154   4.386  12.756  1.9755  0.5960  2.7396
14932TIP3    H266288   0.054   4.445  12.853 -0.8597  0.1927  0.1592
14933TIP3   OH266289   6.304   5.887   3.927 -0.4146  0.0665 -0.0691
14933TIP3    H166290   6.341   5.958   3.979  0.5793 -0.3406 -0.2128
14933TIP3    H266291   6.361   5.881   3.850  0.1128 -1.5568  0.4335
14934TIP3   OH266292   1.747   2.990  14.980 -0.1283 -0.4103  0.2948
14934TIP3    H166293   1.801   3.052  15.029  0.3208  0.0857 -0.8028
14934TIP3    H266294   1.799   2.909  14.977  0.5378  0.0422 -0.6926
14935TIP3   OH266295   6.729   2.534   3.683  0.0994 -0.2641  0.1174
14935TIP3    H166296   6.719   2.612   3.628  1.2843 -1.4868 -1.8770
14935TIP3    H266297   6.823   2.529   3.700  0.2450 -2.1722 -1.1579
14936TIP3   OH266298   4.746   5.998  12.881  0.2271  0.2604  0.1674
14936TIP3    H166299   4.796   5.942  12.822  0.7776 -1.4668  2.2089
14936TIP3    H266300   4.655   5.987  12.854  0.3513 -1.4568  0.3923
14937TIP3   OH266301   3.178   1.161   2.203  0.0814 -0.0000 -0.0830
14937TIP3    H166302   3.156   1.190   2.291  1.0145 -1.0080  0.4791
14937TIP3    H266303   3.256   1.211   2.180 -0.6801  0.9243 -0.6931
14938TIP3   OH266304   0.058   2.253  13.009 -0.1920  0.2729 -0.0066
14938TIP3    H166305   0.121   2.242  13.081  0.2944 -1.0275 -0.6120
14938TIP3    H266306   0.110   2.290  12.938  0.0273 -1.2676 -0.6724
14939TIP3   OH266307   6.579   0.352  12.646  0.4246  0.1948  0.2729
14939TIP3    H166308   6.646   0.419  12.659  0.5014 -0.0006  0.9383
14939TIP3    H266309   6.541   0.340  12.733  0.4972 -0.7099  0.1872
14940TIP3   OH266310   1.222   6.026  12.509  0.0754  0.6253  0.4689
14940TIP3    H166311   1.162   6.097  12.533 -0.2290  0.2699  0.7833
14940TIP3    H266312   1.223   5.970  12.587  2.4219  1.6998  1.2800
14941TIP3   OH266313   0.654   5.733   1.871  0.4405 -0.1137  0.0826
14941TIP3    H166314   0.735   5.692   1.842 -0.8107 -0.2874 -3.4122
14941TIP3    H266315   0.594   5.659   1.886  0.6051  0.0626  1.7215
14942TIP3   OH266316   5.679   2.349   6.281  0.2465 -0.2067 -0.3679
14942TIP3    H166317   5.636   2.302   6.353  2.3833 -1.9356 -0.1694
14942TIP3    H266318   5.771   2.352   6.306  0.8576  0.0955 -2.5633
14943TIP3   OH266319   5.337   3.188  14.211  0.5450 -0.3018  0.2931
14943TIP3    H166320   5.286   3.266  14.190  0.6888 -0.4188 -0.5448
14943TIP3    H266321   5.341   3.139  14.128  0.5344 -1.1500  0.7811
14944TIP3   OH266322   4.999   3.262  15.470 -0.3826 -0.3786 -0.2602
14944TIP3    H166323   4.985   3.292  15.380  0.2693  1.1638  0.1497
14944TIP3    H266324   5.080   3.211  15.466  0.0322  0.2845 -0.4130
14945TIP3   OH266325   2.120   4.726   0.662  0.3045 -0.1702 -0.0641
14945TIP3    H166326   2.087   4.698   0.747 -0.5917 -0.7852 -0.6120
14945TIP3    H266327   2.114   4.648   0.607 -1.1331  0.7899 -1.2877
14946TIP3   OH266328   2.267   2.590  14.458  0.6740  0.3251  0.8870
14946TIP3    H166329   2.335   2.619  14.519 -0.7577  0.2123  2.5755
14946TIP3    H266330   2.186   2.627  14.493 -0.4586 -1.4391  0.1843
14947TIP3   OH266331   0.689   4.854   5.544 -0.1826  0.2376  0.2948
14947TIP3    H166332   0.746   4.899   5.481 -1.2156  0.0372 -0.8120
14947TIP3    H266333   0.628   4.921   5.574 -0.6707 -0.0206 -0.1029
14948TIP3   OH266334   5.060   0.772   3.625 -0.3568  0.6387  0.0748
14948TIP3    H166335   5.016   0.687   3.621  0.4208  0.2682 -0.8082
14948TIP3    H266336   5.037   0.807   3.711  2.0560 -1.9741  1.8949
14949TIP3   OH266337   5.737   3.195  12.417 -0.1064  0.7278  0.0816
14949TIP3    H166338   5.736   3.289  12.435  0.3451  0.3861  1.9528
14949TIP3    H266339   5.651   3.164  12.445 -0.0600  0.4937 -0.0349
14950TIP3   OH266340   4.424   4.058   2.333  0.0023 -0.2283 -0.1668
14950TIP3    H166341   4.360   3.993   2.302 -0.2643 -0.1696  0.2497
14950TIP3    H266342   4.446   4.110   2.256  0.1654 -0.7718 -0.4915
14951TIP3   OH266343   5.983   1.306  16.778 -0.5159 -0.6518  0.4299
14951TIP3    H166344   6.000   1.222  16.821  1.6591  0.3294  1.5951
14951TIP3    H266345   5.895   1.329  16.805  0.0853 -1.0000  2.8571
14952TIP3   OH266346   0.010   0.865   6.062  0.3668 -0.1950  0.1971
14952TIP3    H166347  -0.057   0.887   6.127 -0.4783  1.2329 -1.1018
14952TIP3    H266348  -0.036   0.870   5.978  2.0380  0.5325 -0.7064
14953TIP3   OH266349   5.826   6.256   0.463  0.0345 -0.2516 -0.0199
14953TIP3    H166350   5.754   6.239   0.523 -0.9139 -0.2286 -1.1424
14953TIP3    H266351   5.868   6.335   0.498  0.0958 -0.7786  1.1497
14954TIP3   OH266352   3.604   4.949  12.607 -0.2987 -1.0659  0.3640
14954TIP3    H166353   3.612   5.037  12.570 -0.6353  0.0264  2.7968
14954TIP3    H266354   3.549   4.961  12.685 -1.0233 -3.5717  0.2825
14955TIP3   OH266355   3.320   1.551  17.094  0.0172  0.3910 -0.2287
14955TIP3    H166356   3.331   1.644  17.075  0.7083  0.1408 -1.0625
14955TIP3    H266357   3.284   1.514  17.014  0.4534 -0.2004 -0.1557
14956TIP3   OH266358   6.033   5.266  16.387  0.4543  0.1597 -0.1905
14956TIP3    H166359   6.075   5.185  16.359 -0.6563 -1.1166  1.7376
14956TIP3    H266360   5.946   5.239  16.418 -0.3756  2.2446 -0.6334
14957TIP3   OH266361   0.115   0.222  12.598  0.0935 -0.2338  0.3350
14957TIP3    H166362   0.196   0.263  12.569 -1.0849  1.7393 -0.2540
14957TIP3    H266363   0.114   0.237  12.693 -0.7370  1.8789  0.0076
14958TIP3   OH266364   3.995   5.135   3.893  0.3006 -0.1401 -0.0848
14958TIP3    H166365   3.934   5.131   3.967  0.6026 -1.1529  0.1149
14958TIP3    H266366   4.081   5.120   3.932  0.6423  0.9171 -0.4205
14959TIP3   OH266367   0.915   2.720   2.094  0.2628 -0.0507 -0.1071
14959TIP3    H166368   0.852   2.777   2.139 -0.1428  0.2112 -1.0097
14959TIP3    H266369   0.998   2.767   2.100  0.0994  0.2413 -0.1185
14960TIP3   OH266370   2.371   1.025  11.492  0.1916  0.2797 -0.1106
14960TIP3    H166371   2.467   1.024  11.500  0.2959  2.2197 -0.7062
14960TIP3    H266372   2.349   0.938  11.459  1.6903 -0.4185  0.6745
14961TIP3   OH266373   4.933   4.012  12.618 -0.3825 -0.1010  0.4182
14961TIP3    H166374   4.841   4.033  12.633 -0.3630 -0.6158  1.2894
14961TIP3    H266375   4.965   3.983  12.704  0.6415  0.2812  0.1661
14962TIP3   OH266376   1.449   5.420   5.422  0.1807  0.0388  1.0523
14962TIP3    H166377   1.496   5.467   5.353 -0.8500 -1.2710 -0.5844
14962TIP3    H266378   1.510   5.419   5.496  2.3732 -0.7983 -0.6906
14963TIP3   OH266379   2.273   1.402  15.949 -0.3685 -0.3262 -0.2174
14963TIP3    H166380   2.276   1.438  15.861 -1.3772  0.0107 -0.1253
14963TIP3    H266381   2.288   1.477  16.007  0.5864 -0.5984 -0.1086
14964TIP3   OH266382   3.268   4.327  12.673 -0.1717 -0.0972 -0.5847
14964TIP3    H166383   3.192   4.276  12.642 -1.1682  0.5582  0.7439
14964TIP3    H266384   3.327   4.261  12.709  0.8627 -0.8501 -3.4835
14965TIP3   OH266385   1.363   5.815   1.892  0.0569 -0.2191 -0.1336
14965TIP3    H166386   1.383   5.896   1.847 -0.6933 -1.3781 -2.6200
14965TIP3    H266387   1.432   5.754   1.865 -0.4234 -0.9447  0.2418
14966TIP3   OH266388   4.948   6.427  15.313  0.7081 -0.0340 -0.3555
14966TIP3    H166389   4.992   6.504  15.351  1.7227 -0.3352 -0.9001
14966TIP3    H266390   4.956   6.359  15.381 -0.2104  0.3416  0.1355
14967TIP3   OH266391   2.820   4.513   6.089 -0.2365  0.2628 -0.0375
14967TIP3    H166392   2.785   4.586   6.140  0.0390  0.5934 -0.3124
14967TIP3    H266393   2.767   4.438   6.114  0.0174  0.3792  0.8764
14968TIP3   OH266394   0.184   3.861  17.235  0.4488 -0.0817 -0.4822
14968TIP3    H166395   0.120   3.820  17.176  0.5800 -1.7393  0.4824
14968TIP3    H266396   0.137   3.932  17.277  0.0844  0.5275 -1.9113
14969TIP3   OH266397   5.540   1.134   0.244 -0.8375  0.1522 -0.2327
14969TIP3    H166398   5.452   1.161   0.270 -0.8996 -0.1392 -0.1394
14969TIP3    H266399   5.557   1.054   0.295 -0.4148  0.3578 -0.0441
14970TIP3   OH266400   2.184   0.840   4.151 -0.1247  0.6633  0.0484
14970TIP3    H166401   2.211   0.749   4.156  0.1314  0.8365  2.1285
14970TIP3    H266402   2.089   0.837   4.137 -0.3269  0.0790  1.5113
14971TIP3   OH266403   2.172   0.900   2.443  0.4255  0.0457 -0.1668
14971TIP3    H166404   2.105   0.854   2.393  0.8492 -1.6627  0.8163
14971TIP3    H266405   2.135   0.987   2.459 -2.2643 -1.4323  1.8599
14972TIP3   OH266406   0.480   6.690   0.062 -0.5560  0.3802 -0.2318
14972TIP3    H166407   0.497   6.719   0.151 -1.0664  0.3054 -0.1084
14972TIP3    H266408   0.402   6.739   0.035 -1.2265 -0.6174 -0.1394
14973TIP3   OH266409   0.555   3.361  13.092 -0.3025 -0.6470  0.2216
14973TIP3    H166410   0.648   3.351  13.115 -0.6937 -1.2121  1.6403
14973TIP3    H266411   0.556   3.401  13.005  1.2666 -0.3380  0.3607
14974TIP3   OH266412   3.460   1.836   2.023  0.0852 -0.4065 -0.4440
14974TIP3    H166413   3.391   1.877   1.969 -0.2233  0.3488  0.5026
14974TIP3    H266414   3.513   1.787   1.961 -0.6531 -0.0779 -1.3501
14975TIP3   OH266415   0.128   5.875   2.132 -0.3562  0.5565  0.3786
14975TIP3    H166416   0.147   5.817   2.205 -2.5303 -0.2637  0.3290
14975TIP3    H266417   0.209   5.876   2.080  0.8667  0.3658  2.2388
14976TIP3   OH266418   4.098   5.025  13.524  0.3614 -0.3647 -0.7673
14976TIP3    H166419   4.188   5.005  13.498 -0.4772 -0.7687 -3.6212
14976TIP3    H266420   4.098   5.120  13.540  1.3481 -0.4068 -0.4868
14977TIP3   OH266421   1.642   4.287  14.304  0.7056  0.7585 -0.5812
14977TIP3    H166422   1.550   4.274  14.279  0.3696  0.1075  0.9044
14977TIP3    H266423   1.684   4.320  14.225 -0.7225  0.6594 -1.4062
14978TIP3   OH266424   5.123   2.438  17.205  0.2644 -0.5566  0.2388
14978TIP3    H166425   5.197   2.482  17.162 -1.2412  1.3027 -0.5482
14978TIP3    H266426   5.095   2.371  17.143  0.1162  0.0022 -0.3111
14979TIP3   OH266427   4.290   4.709  12.355  0.0730  0.6261  0.0814
14979TIP3    H166428   4.200   4.697  12.386  0.6139 -1.0416  1.0737
14979TIP3    H266429   4.300   4.646  12.284  0.8947 -0.2301  0.9394
14980TIP3   OH266430   2.832   0.918  11.699 -0.4448 -0.2769  0.6494
14980TIP3    H166431   2.853   0.831  11.666  1.3420  0.1463  0.6468
14980TIP3    H266432   2.905   0.940  11.757 -1.3419  0.8446  1.3739
14981TIP3   OH266433   6.319   1.115   3.743  0.3428 -0.2774 -0.2270
14981TIP3    H166434   6.245   1.167   3.774 -0.4405  0.0409 -2.5324
14981TIP3    H266435   6.343   1.155   3.660  2.4704 -1.0142  0.0036
14982TIP3   OH266436   1.497   0.057  11.654  0.1528 -0.2854  0.0699
14982TIP3    H166437   1.533   0.144  11.674 -2.2067  1.0007 -1.0508
14982TIP3    H266438   1.504   0.051  11.558 -1.9248 -0.2934 -0.0956
14983TIP3   OH266439   3.165   6.768  14.267  0.1654  0.1356 -0.6512
14983TIP3    H166440   3.216   6.699  14.311 -0.1830  0.6112  0.5246
14983TIP3    H266441   3.074   6.738  14.273  0.0901  0.3271 -0.8308
14984TIP3   OH266442   2.783   0.201   0.729 -0.7106  0.2243 -0.0496
14984TIP3    H166443   2.766   0.127   0.672 -0.5573 -0.6769  1.0681
14984TIP3    H266444   2.870   0.232   0.702 -1.3795  0.9351 -1.4999
14985TIP3   OH266445   5.734   3.137  13.664  0.5929  0.4643 -0.8990
14985TIP3    H166446   5.818   3.116  13.706 -0.6023  0.6035  1.6635
14985TIP3    H266447   5.703   3.052  13.632 -0.9624 -0.7410  3.3399
14986TIP3   OH266448   0.281   5.646   0.489  0.0202 -0.3852 -0.0887
14986TIP3    H166449   0.340   5.680   0.422 -2.6259  1.5071 -1.5811
14986TIP3    H266450   0.224   5.585   0.443  1.5786 -3.1882  1.5968
14987TIP3   OH266451   5.415   3.798  16.005  0.9324  0.1017  0.1819
14987TIP3    H166452   5.489   3.848  15.971  1.0038  0.4391  0.8196
14987TIP3    H266453   5.343   3.861  16.010  1.1225  0.2430  1.3258
14988TIP3   OH266454   3.561   2.389   2.202 -0.2769  0.3316  0.5114
14988TIP3    H166455   3.588   2.479   2.186  1.8421 -0.5531 -1.0949
14988TIP3    H266456   3.631   2.352   2.256 -0.2987 -0.8066 -0.2190
14989TIP3   OH266457   2.175   2.140   0.988 -0.2577  0.6435  0.2957
14989TIP3    H166458   2.111   2.072   0.968 -1.0976  0.8336  2.2370
14989TIP3    H266459   2.253   2.092   1.015  0.0213  0.4334 -0.8466
14990TIP3   OH266460   0.145   4.276   1.960  0.4334  0.6775  0.0161
14990TIP3    H166461   0.206   4.301   1.890 -1.9597  0.5678 -2.1769
14990TIP3    H266462   0.141   4.354   2.015  2.8955  0.5251  0.5013
14991TIP3   OH266463   1.479   4.105  14.832  0.0628  0.0417  0.3229
14991TIP3    H166464   1.479   4.149  14.747  0.9215  1.0740  0.8314
14991TIP3    H266465   1.563   4.059  14.835 -0.0651 -0.1795  0.5200
14992TIP3   OH266466   4.144   0.529   0.557  0.5777 -0.1266  0.1983
14992TIP3    H166467   4.102   0.604   0.597  1.6929  0.5697  0.0823
14992TIP3    H266468   4.095   0.514   0.476  1.1447  1.2662 -0.4106
14993TIP3   OH266469   4.759   5.982   3.102 -0.3505  0.2796 -0.0036
14993TIP3    H166470   4.773   6.045   3.030  2.1175  0.7785  0.8453
14993TIP3    H266471   4.741   6.036   3.178 -1.1808 -0.1811  0.1314
14994TIP3   OH266472   1.948   4.821  12.435  0.0834  0.0368  0.8264
14994TIP3    H166473   1.943   4.799  12.341  0.8409  1.0378  0.5454
14994TIP3    H266474   1.863   4.793  12.470 -0.7028  0.8141 -0.4147
14995TIP3   OH266475   3.658   3.017  13.886  0.2150 -0.1340  0.0699
14995TIP3    H166476   3.707   3.086  13.842  0.2607 -1.6478 -2.3700
14995TIP3    H266477   3.721   2.946  13.897 -1.1702 -1.8570 -2.5072
14996TIP3   OH266478   1.467   2.394   6.460 -0.0209  0.6778 -0.1411
14996TIP3    H166479   1.552   2.355   6.438  0.7877  2.6772 -0.6165
14996TIP3    H266480   1.424   2.328   6.515  0.8292 -1.3955 -1.9107
14997TIP3   OH266481   1.273   4.845   0.837  0.3733  0.0369  0.5695
14997TIP3    H166482   1.277   4.756   0.802  1.4152 -0.1548  1.1535
14997TIP3    H266483   1.181   4.858   0.859  0.1579 -0.7741  0.1692
14998TIP3   OH266484   6.700   2.470  14.530  0.0414 -0.0449 -0.0819
14998TIP3    H166485   6.714   2.379  14.503  0.2171 -0.3840  1.1269
14998TIP3    H266486   6.630   2.466  14.594  0.9175  0.5106  0.9275
14999TIP3   OH266487   5.433   4.192  13.675 -0.1032  0.8146  0.1848
14999TIP3    H166488   5.463   4.143  13.598  0.8713 -0.5077  1.3787
14999TIP3    H266489   5.491   4.164  13.745 -3.4679 -1.0669  2.3646
15000TIP3   OH266490   6.563   4.382  11.108  0.3260  0.4435  0.2176
15000TIP3    H166491   6.517   4.306  11.073  0.7955  0.5323 -0.6307
15000TIP3    H266492   6.640   4.346  11.153  0.5923  0.4124 -0.2556
15001TIP3   OH266493   2.559   3.201  15.713  0.2515  0.4527 -0.0793
15001TIP3    H166494   2.578   3.264  15.782  1.3039  1.9238 -1.6753
15001TIP3    H266495   2.497   3.140  15.753 -0.7173  2.4343  1.5391
15002TIP3   OH266496   5.338   4.580   2.550 -0.3085 -0.0886  0.3863
15002TIP3    H166497   5.315   4.533   2.470 -0.6839  0.1025  0.3796
15002TIP3    H266498   5.430   4.559   2.565 -0.0636  0.4003 -0.4508
15003TIP3   OH266499   3.300   5.052   4.345  0.2246 -0.0436  0.0337
15003TIP3    H166500   3.372   4.989   4.357  2.6633  2.3063 -1.7296
15003TIP3    H266501   3.274   5.041   4.254 -1.9384 -1.0930  0.7480
15004TIP3   OH266502   0.830   2.156   4.513  0.2315  0.2506  0.7949
15004TIP3    H166503   0.754   2.194   4.470  0.6892  0.8188  0.4858
15004TIP3    H266504   0.793   2.095   4.577 -0.4541 -1.2887 -1.0139
15005TIP3   OH266505   0.377   6.566  16.424 -0.7783  0.3457 -0.0841
15005TIP3    H166506   0.399   6.554  16.517 -0.1628 -0.6956 -0.3605
15005TIP3    H266507   0.350   6.658  16.418 -4.9740 -0.6207  1.9509
15006TIP3   OH266508   1.555   5.287   4.123  0.3850  0.4929 -0.1738
15006TIP3    H166509   1.495   5.328   4.061  1.0615  0.2482 -0.9994
15006TIP3    H266510   1.563   5.351   4.194 -0.4325  0.7542 -0.3161
15007TIP3   OH266511   5.751   6.710   4.613 -0.4542 -0.1553  0.1011
15007TIP3    H166512   5.683   6.685   4.551  1.7631 -2.7880 -1.3616
15007TIP3    H266513   5.804   6.775   4.567 -2.2443  2.4167  1.4842
15008TIP3   OH266514   0.111   2.801   3.234 -0.2450  0.7212  0.2380
15008TIP3    H166515   0.063   2.883   3.244 -0.5294  0.6689 -0.6089
15008TIP3    H266516   0.198   2.818   3.269 -1.2450  0.4675  2.9114
15009TIP3   OH266517   6.344   5.290   3.662 -0.2139  0.0363 -0.3671
15009TIP3    H166518   6.295   5.295   3.580  0.9243  0.2317 -1.0437
15009TIP3    H266519   6.383   5.203   3.661 -1.2899 -0.4638  0.6044
15010TIP3   OH266520   3.245   4.447   3.197  0.5294  0.2208 -0.5067
15010TIP3    H166521   3.166   4.495   3.171 -0.0098 -0.2893  0.1684
15010TIP3    H266522   3.285   4.501   3.264  0.4230  0.1841 -0.4126
15011TIP3   OH266523   5.117   3.517  14.922 -0.3607  0.0936 -0.1014
15011TIP3    H166524   5.083   3.575  14.991 -0.3019 -1.9567  1.7142
15011TIP3    H266525   5.149   3.440  14.970  0.0826 -1.1838 -2.4116
15012TIP3   OH266526   4.946   1.298  14.126  0.3072  0.1223 -0.2967
15012TIP3    H166527   4.886   1.362  14.165 -0.4789 -1.5095  1.2006
15012TIP3    H266528   5.005   1.274  14.197  1.0481 -0.3084 -1.0470
15013TIP3   OH266529   5.583   3.969  12.093 -0.6861  0.3278 -0.1676
15013TIP3    H166530   5.615   4.043  12.145 -0.9343  0.4109 -0.1333
15013TIP3    H266531   5.662   3.919  12.072 -0.6937 -0.2899  1.1975
15014TIP3   OH266532   2.677   4.881   3.359 -0.1780  0.3410 -0.1656
15014TIP3    H166533   2.705   4.947   3.424  0.3867  0.0802 -0.1374
15014TIP3    H266534   2.587   4.859   3.384 -0.9271  2.2385 -1.1030
15015TIP3   OH266535   4.515   4.999  12.144  0.3551 -0.4483  0.6119
15015TIP3    H166536   4.547   4.925  12.196  0.4534  0.5023  1.9514
15015TIP3    H266537   4.445   5.036  12.197 -0.0725  0.0771 -0.3184
15016TIP3   OH266538   4.896   0.239  11.916  0.7540 -0.2670 -0.0221
15016TIP3    H166539   4.853   0.167  11.870  0.4094  1.1243 -1.9413
15016TIP3    H266540   4.988   0.234  11.888  0.7827 -0.1312  0.0502
15017TIP3   OH266541   0.340   0.732  15.180 -0.4392 -0.3756  0.2748
15017TIP3    H166542   0.406   0.716  15.247 -0.0065 -2.1499 -0.5174
15017TIP3    H266543   0.290   0.806  15.212 -0.1761 -1.1121  2.4977
15018TIP3   OH266544   3.907   1.027  15.115  0.2255  0.4553 -0.4209
15018TIP3    H166545   3.860   0.944  15.124  0.8347  0.1887  0.3424
15018TIP3    H266546   3.999   1.005  15.133  0.2556  1.4622  0.7802
15019TIP3   OH266547   2.512   2.942   6.300 -0.6828  0.0290 -0.1391
15019TIP3    H166548   2.422   2.916   6.318  0.1527 -1.9349  1.4508
15019TIP3    H266549   2.554   2.946   6.386  1.0182 -0.1263 -0.9287
15020TIP3   OH266550   2.029   3.645  11.470 -0.1117  0.3416  0.2316
15020TIP3    H166551   1.961   3.688  11.522 -0.4540 -0.0261  0.0897
15020TIP3    H266552   2.039   3.701  11.393 -0.6971  0.0628 -0.0480
15021TIP3   OH266553   2.092   0.147  11.819 -0.3524 -0.1353  0.1464
15021TIP3    H166554   2.075   0.074  11.759  0.0868 -0.5481  0.5182
15021TIP3    H266555   2.187   0.145  11.831 -0.3581  0.4265  0.2500
15022TIP3   OH266556   3.196   4.582   1.761 -0.2492 -0.3392 -0.1126
15022TIP3    H166557   3.117   4.528   1.755  0.5374 -1.5835  0.4179
15022TIP3    H266558   3.243   4.547   1.837 -0.0966  1.6305  0.7389
15023TIP3   OH266559   3.798   3.174  14.764  0.0939 -0.3849 -0.7915
15023TIP3    H166560   3.773   3.083  14.777  0.8720 -0.5922 -0.7795
15023TIP3    H266561   3.835   3.176  14.675 -3.7291  0.7070 -2.4697
15024TIP3   OH266562   5.264   4.623   3.876 -0.3453  0.1986 -0.2668
15024TIP3    H166563   5.178   4.594   3.844 -0.6859  1.5678 -0.6118
15024TIP3    H266564   5.268   4.716   3.854  1.1519  0.1931 -0.0686
15025TIP3   OH266565   4.889   0.521  10.751 -0.5184 -0.3613 -0.1846
15025TIP3    H166566   4.871   0.428  10.735  0.6621 -0.5765 -0.3235
15025TIP3    H266567   4.911   0.525  10.845 -1.8082 -0.0156  0.1102
15026TIP3   OH266568   5.024   2.615  15.182 -0.9456 -0.4452  0.1297
15026TIP3    H166569   4.933   2.608  15.213 -1.1151 -0.4262 -0.3555
15026TIP3    H266570   5.060   2.690  15.230 -1.3197 -0.1782 -0.0039
15027TIP3   OH266571   2.186   1.372  14.339  0.1449  0.1238  1.1424
15027TIP3    H166572   2.212   1.429  14.267  0.5931  0.7465  1.7810
15027TIP3    H266573   2.194   1.283  14.305 -0.2117  0.4384  0.2494
15028TIP3   OH266574   0.198   1.128   1.198  0.4650  0.1227  0.5384
15028TIP3    H166575   0.152   1.208   1.172  0.0807 -0.2804 -0.0413
15028TIP3    H266576   0.289   1.156   1.210  0.5431  0.4315 -0.7161
15029TIP3   OH266577   1.333   2.641  16.182  0.0701 -0.6472 -0.4079
15029TIP3    H166578   1.420   2.613  16.208 -0.7588 -0.8560  2.2252
15029TIP3    H266579   1.290   2.560  16.153  0.3843 -0.7078 -0.7184
15030TIP3   OH266580   3.805   4.695  11.206  0.0165 -0.1145 -0.2405
15030TIP3    H166581   3.784   4.715  11.115 -1.9149 -2.9968 -0.4872
15030TIP3    H266582   3.852   4.612  11.202  2.0398  0.8897  1.2636
15031TIP3   OH266583   5.275   1.732   4.255  0.3945 -0.3627  0.3485
15031TIP3    H166584   5.337   1.709   4.324 -0.4868  0.7511  1.5374
15031TIP3    H266585   5.269   1.653   4.201  0.3209 -1.6234  2.1369
15032TIP3   OH266586   6.530   2.013  15.156 -0.8501 -0.0821  0.0238
15032TIP3    H166587   6.525   2.069  15.078  0.8021 -2.2023 -1.6950
15032TIP3    H266588   6.614   2.035  15.196 -1.8213  1.1949  1.3798
15033TIP3   OH266589   0.406   6.613  13.841 -0.1472  0.4045  0.8246
15033TIP3    H166590   0.374   6.665  13.767  3.4592 -0.7311 -1.6516
15033TIP3    H266591   0.390   6.522  13.815  0.7643  0.0073  1.6094
15034TIP3   OH266592   3.199   5.975   0.043 -0.0761  0.0960 -0.1129
15034TIP3    H166593   3.282   6.022   0.042 -0.3467  0.5742 -1.5484
15034TIP3    H266594   3.184   5.953   0.135  1.0463  1.0491  0.2989
15035TIP3   OH266595   3.979   5.707  11.712  0.0858  0.4535  0.2067
15035TIP3    H166596   3.939   5.708  11.625  0.6220  0.9184 -0.0390
15035TIP3    H266597   4.029   5.788  11.716 -0.0515  0.5062  1.0067
15036TIP3   OH266598   4.418   6.511  11.686  0.6272  0.1436  0.0666
15036TIP3    H166599   4.411   6.511  11.590 -1.5699 -0.7563  0.1895
15036TIP3    H266600   4.341   6.561  11.714 -1.3099 -3.4351  1.4638
15037TIP3   OH266601   0.959   0.082  13.446  0.3203  0.0229  0.6371
15037TIP3    H166602   0.950   0.144  13.374 -0.4016  0.6526  1.2630
15037TIP3    H266603   0.983  -0.001  13.403  0.5585  0.5482 -0.2597
15038TIP3   OH266604   2.003   3.852   2.823 -0.1020 -0.5036  0.3078
15038TIP3    H166605   2.036   3.769   2.857  2.7644  0.0608 -0.9439
15038TIP3    H266606   2.024   3.916   2.892  0.6340 -0.3140 -0.0762
15039TIP3   OH266607   5.282   4.106  14.786 -0.2393 -0.0477 -0.2005
15039TIP3    H166608   5.286   4.083  14.693 -1.0674 -2.1819  0.2763
15039TIP3    H266609   5.190   4.097  14.810  0.2135 -1.0444  1.2084
15040TIP3   OH266610   2.512   0.177  15.251 -0.0019  0.0709 -0.2469
15040TIP3    H166611   2.583   0.176  15.187 -1.5557 -0.0991 -2.0203
15040TIP3    H266612   2.509   0.268  15.281  0.4316  0.2687 -0.7803
15041TIP3   OH266613   5.367   2.521  14.883  0.0634 -0.2302  0.5258
15041TIP3    H166614   5.395   2.592  14.941 -0.7185 -0.8994  1.7427
15041TIP3    H266615   5.287   2.487  14.924 -0.8958 -0.2517 -1.3256
15042TIP3   OH266616   1.844   1.862  13.158  0.6713 -0.2967 -0.1663
15042TIP3    H166617   1.755   1.867  13.123  0.1955 -1.9721  0.7467
15042TIP3    H266618   1.869   1.770  13.147  0.6192 -0.8288  3.4924
15043TIP3   OH266619   4.528   3.996   1.883 -0.3102  0.1118  0.1051
15043TIP3    H166620   4.547   3.903   1.891 -0.9810 -0.0959 -0.6550
15043TIP3    H266621   4.522   4.012   1.789 -1.8742  0.5670  0.2659
15044TIP3   OH266622   5.628   6.736   0.675 -0.5395  0.1214 -0.0988
15044TIP3    H166623   5.658   6.827   0.675  1.4863 -0.5167 -0.2033
15044TIP3    H266624   5.599   6.720   0.586 -0.4634  0.5320 -0.1968
15045TIP3   OH266625   6.009   6.200   5.548  0.5081  0.1716 -0.2931
15045TIP3    H166626   6.083   6.153   5.586  1.2757  2.3231  0.9972
15045TIP3    H266627   6.040   6.229   5.462  0.5684 -0.3508 -0.4477
15046TIP3   OH266628   3.099   2.944   0.101  0.4206 -0.1894 -0.5209
15046TIP3    H166629   3.004   2.954   0.093  0.1204 -0.6447  2.0076
15046TIP3    H266630   3.119   2.865   0.051 -0.7927 -1.0328  0.2789
15047TIP3   OH266631   4.239   3.439  12.895  0.1989 -0.1168 -0.1785
15047TIP3    H166632   4.167   3.379  12.878 -0.5391  0.4960  0.7395
15047TIP3    H266633   4.318   3.389  12.872 -0.4828 -0.9207 -0.8120
15048TIP3   OH266634   0.191   3.431   5.140 -0.2952 -0.4726  0.3441
15048TIP3    H166635   0.218   3.432   5.048 -1.8247 -1.8094 -0.1454
15048TIP3    H266636   0.219   3.346   5.173 -0.9277 -0.5415  0.7348
15049TIP3   OH266637   5.884   4.252   3.591  0.0874 -0.9197  0.3110
15049TIP3    H166638   5.848   4.321   3.647 -0.5103 -0.2413 -0.8732
15049TIP3    H266639   5.957   4.294   3.545 -0.9250 -0.7486 -1.1826
15050TIP3   OH266640   5.797   3.126   4.862 -0.6884  0.0208 -0.4046
15050TIP3    H166641   5.789   3.054   4.925 -0.5019 -1.5435 -2.1349
15050TIP3    H266642   5.853   3.190   4.906  1.6532 -2.2417  0.0179
15051TIP3   OH266643   2.450   4.129   5.745 -0.2261  0.1176 -0.3273
15051TIP3    H166644   2.388   4.194   5.714 -0.1278 -0.2246 -1.2566
15051TIP3    H266645   2.535   4.173   5.742 -0.4580  0.6901  1.2519
15052TIP3   OH266646   0.518   2.021   5.383 -0.2683 -0.4867 -0.3315
15052TIP3    H166647   0.464   2.062   5.450  0.2658 -1.6611  0.8433
15052TIP3    H266648   0.591   2.081   5.371 -0.0137 -0.5935  0.6415
15053TIP3   OH266649   3.440   3.591   4.859 -0.1160  0.1624 -0.0281
15053TIP3    H166650   3.514   3.631   4.813 -0.3365  0.0035 -0.5157
15053TIP3    H266651   3.456   3.611   4.952  0.6281 -0.0252 -0.1147
15054TIP3   OH266652   4.248   4.744   1.967  0.1913  0.1325 -0.3824
15054TIP3    H166653   4.313   4.680   1.995 -1.8838 -2.8064 -1.9978
15054TIP3    H266654   4.175   4.733   2.028 -0.6162  0.2008 -1.3150
15055TIP3   OH266655   1.183   5.528   2.034  0.4019  0.2361 -0.4445
15055TIP3    H166656   1.138   5.600   1.990 -1.8993 -0.6960  0.3076
15055TIP3    H266657   1.153   5.534   2.125  1.0517 -0.9899 -0.1520
15056TIP3   OH266658   3.006   1.385  12.755 -0.0828 -0.1183 -0.5372
15056TIP3    H166659   3.017   1.447  12.683  1.1123 -2.1239 -2.1531
15056TIP3    H266660   3.089   1.335  12.756 -0.5647 -0.8983  1.4385
15057TIP3   OH266661   4.419   0.284  15.816 -0.3084 -0.0396  0.6864
15057TIP3    H166662   4.424   0.345  15.743  1.2022 -0.3082  0.5496
15057TIP3    H266663   4.496   0.229  15.807 -1.5182 -1.8326  0.9550
15058TIP3   OH266664   0.795   4.836   3.766  0.1958  0.1411  0.6327
15058TIP3    H166665   0.720   4.831   3.707  0.7960  1.0154 -0.2332
15058TIP3    H266666   0.834   4.748   3.762 -0.2093 -0.0299  0.3162
15059TIP3   OH266667   1.376   0.813  10.465 -0.4105  0.5964  0.3779
15059TIP3    H166668   1.283   0.791  10.454  0.0148 -1.6316  1.0013
15059TIP3    H266669   1.422   0.745  10.415  0.9519  0.3153  2.0048
15060TIP3   OH266670   4.132   4.561  10.845  0.4346 -0.1659 -0.2901
15060TIP3    H166671   4.083   4.492  10.801  0.2568  0.3193 -0.8726
15060TIP3    H266672   4.224   4.539  10.828  0.4053 -0.7410  0.2820
15061TIP3   OH266673   5.481   1.021   0.682  0.0701 -0.6167  0.3599
15061TIP3    H166674   5.524   0.989   0.762 -0.0022 -1.1265  0.1940
15061TIP3    H266675   5.523   0.972   0.611 -0.2875 -0.6001  0.1372
15062TIP3   OH266676   2.517   1.256  15.461  1.0813  0.2562  0.2722
15062TIP3    H166677   2.575   1.180  15.449  2.4451  1.3649 -0.1968
15062TIP3    H266678   2.466   1.260  15.381  1.6039  0.3372 -0.0580
15063TIP3   OH266679   5.518   1.595  14.262  0.8386  0.5139 -0.4870
15063TIP3    H166680   5.476   1.517  14.224  0.3213  0.0770  0.9400
15063TIP3    H266681   5.549   1.645  14.187  0.5421 -0.7311 -1.4499
15064TIP3   OH266682   0.699   4.085  12.990  0.3806  0.0296 -0.0839
15064TIP3    H166683   0.603   4.079  12.988  0.2937  0.5674  1.5051
15064TIP3    H266684   0.722   4.116  12.903 -1.0356  1.3609 -0.0277
15065TIP3   OH266685   4.488   3.594   2.710 -0.0858 -0.1899  0.2787
15065TIP3    H166686   4.401   3.593   2.670 -0.0990 -1.7021  0.3129
15065TIP3    H266687   4.543   3.643   2.649 -0.4821 -1.0615 -0.7794
15066TIP3   OH266688   4.205   5.101   5.166  0.0071 -0.1751 -0.1428
15066TIP3    H166689   4.230   5.157   5.092 -0.3275 -0.4159 -0.4395
15066TIP3    H266690   4.223   5.155   5.244  0.6047 -0.0211 -0.3873
15067TIP3   OH266691   0.200   3.013  14.912  0.3742 -0.2283  0.5045
15067TIP3    H166692   0.115   2.984  14.877  0.4414  0.0923  0.0733
15067TIP3    H266693   0.213   2.959  14.990 -0.0167 -0.5923  0.3212
15068TIP3   OH266694   1.556   2.882   5.719  0.2980  0.1476 -0.2988
15068TIP3    H166695   1.638   2.903   5.764  0.3151 -0.5106 -0.0067
15068TIP3    H266696   1.495   2.858   5.790 -0.0150  0.2106 -0.5432
15069TIP3   OH266697   6.193   5.396  12.815  0.0348  0.1178  0.3522
15069TIP3    H166698   6.206   5.419  12.907  1.8580  2.9189 -0.5433
15069TIP3    H266699   6.231   5.470  12.767 -1.2782 -1.1135 -2.6399
15070TIP3   OH266700   3.985   2.839   3.281  0.0259  0.0725  0.1912
15070TIP3    H166701   4.050   2.831   3.210  0.6430  1.7456  0.5469
15070TIP3    H266702   4.015   2.776   3.347 -0.7793 -1.7937 -1.1850
15071TIP3   OH266703   2.127   3.744  12.042 -0.2966 -0.0348  0.0519
15071TIP3    H166704   2.212   3.788  12.045 -0.1667 -0.2734 -0.2086
15071TIP3    H266705   2.116   3.709  12.131  0.4066 -1.0186 -0.2399
15072TIP3   OH266706   0.042   0.251  12.093  0.4616  0.0975  0.0996
15072TIP3    H166707  -0.013   0.316  12.050  0.2044  0.9150  1.6096
15072TIP3    H266708   0.126   0.295  12.105  0.8714 -0.5066 -0.5530
15073TIP3   OH266709   1.806   5.716  14.720  0.0793  0.5724 -0.6716
15073TIP3    H166710   1.756   5.739  14.642  2.8314  0.2303 -2.6118
15073TIP3    H266711   1.894   5.749  14.703  0.9258 -0.1201  2.0121
15074TIP3   OH266712   2.337   6.768   0.990  0.0797  0.5693 -0.2567
15074TIP3    H166713   2.368   6.858   1.004  2.1158 -0.2334  0.4959
15074TIP3    H266714   2.356   6.750   0.898 -0.7999  1.0695 -0.5456
15075TIP3   OH266715   4.042   0.746  13.193  0.0119  0.0949  0.4190
15075TIP3    H166716   4.022   0.689  13.119  1.8694 -0.2584  0.1681
15075TIP3    H266717   3.970   0.809  13.195 -1.4211 -1.4924 -0.0585
15076TIP3   OH266718   2.494   4.256  14.812  0.1861  0.2310  0.2341
15076TIP3    H166719   2.525   4.312  14.741 -0.2130  1.3454  0.9327
15076TIP3    H266720   2.413   4.218  14.778 -1.4346  2.8242  1.0525
15077TIP3   OH266721   5.256   1.530   5.306  0.2201 -0.2160 -0.0125
15077TIP3    H166722   5.228   1.494   5.389 -0.2418 -1.0195 -0.5115
15077TIP3    H266723   5.341   1.489   5.289  0.6155  0.4310  0.3592
15078TIP3   OH266724   1.003   6.588   3.836 -0.4083 -0.3230  0.0717
15078TIP3    H166725   0.927   6.539   3.804 -1.1959  0.4319  0.7515
15078TIP3    H266726   1.066   6.583   3.765 -0.4718 -2.3235  0.1257
15079TIP3   OH266727   4.924   5.745   0.996  0.1588  0.0526 -0.7147
15079TIP3    H166728   4.863   5.801   0.949 -1.4560 -2.0928 -1.2312
15079TIP3    H266729   5.009   5.787   0.984 -0.8533  1.7902 -1.9995
15080TIP3   OH266730   2.894   2.445  14.948 -0.7638  0.6880  0.4534
15080TIP3    H166731   2.917   2.367  14.997  2.0744  0.2117 -1.5098
15080TIP3    H266732   2.915   2.518  15.006 -0.1799  0.0538  1.0377
15081TIP3   OH266733   4.563   3.865   1.418  0.4001 -0.0392  0.5776
15081TIP3    H166734   4.479   3.850   1.461  0.6977  1.2886  1.6482
15081TIP3    H266735   4.577   3.786   1.365 -0.5489 -1.1556  1.9673
15082TIP3   OH266736   2.792   4.432  13.377  0.0488 -0.4793  0.3991
15082TIP3    H166737   2.740   4.359  13.342 -0.6151  0.6492 -1.0289
15082TIP3    H266738   2.739   4.509  13.359  0.8936  0.3954  1.6192
15083TIP3   OH266739   1.282   5.132   1.707  0.2965 -0.0937  0.0446
15083TIP3    H166740   1.275   5.055   1.764  0.6648  1.0919  1.7007
15083TIP3    H266741   1.261   5.206   1.763  0.5635  1.0848 -1.3882
15084TIP3   OH266742   4.492   3.310   3.651  0.1411  0.5876 -0.2541
15084TIP3    H166743   4.497   3.316   3.555  0.1988  2.0805 -0.1749
15084TIP3    H266744   4.549   3.380   3.682 -1.4046  1.4102  0.8453
15085TIP3   OH266745   1.308   2.060  11.660 -0.2022  0.1359 -0.0041
15085TIP3    H166746   1.228   2.008  11.667 -0.3756  0.2554 -0.9867
15085TIP3    H266747   1.308   2.091  11.569  0.2962  1.2076  0.3553
15086TIP3   OH266748   5.244   4.682  16.447  0.3269 -0.5361  0.5407
15086TIP3    H166749   5.311   4.653  16.509  0.1487 -0.8522  0.5875
15086TIP3    H266750   5.189   4.742  16.496  0.3848 -0.5268  0.5931
15087TIP3   OH266751   2.483   0.556  10.500  0.1432 -0.4890  0.1218
15087TIP3    H166752   2.390   0.563  10.477  0.0486  1.5108  1.0196
15087TIP3    H266753   2.529   0.574  10.418 -0.2478 -0.3989 -0.0786
15088TIP3   OH266754   3.917   5.168  16.348 -0.1924 -0.1032 -0.1996
15088TIP3    H166755   3.847   5.140  16.289 -0.7636  1.0084 -0.0767
15088TIP3    H266756   3.880   5.157  16.436  0.1256 -0.3795 -0.1003
15089TIP3   OH266757   6.568   2.268   5.579  0.0873 -0.3652 -0.5341
15089TIP3    H166758   6.605   2.182   5.559  0.1315 -0.5934  0.5112
15089TIP3    H266759   6.611   2.295   5.660 -1.2434 -0.1730  0.1310
15090TIP3   OH266760   6.565   1.485   4.429  0.0476 -0.2421 -0.3337
15090TIP3    H166761   6.495   1.493   4.364  0.4360  0.4352 -0.6698
15090TIP3    H266762   6.552   1.559   4.487 -0.0818 -0.6487  0.1621
15091TIP3   OH266763   6.436   5.070  12.705  0.4856  0.1646  0.0245
15091TIP3    H166764   6.503   5.002  12.715 -0.2971 -0.5948  0.1336
15091TIP3    H266765   6.391   5.072  12.789 -0.2211  0.0363 -0.3460
15092TIP3   OH266766   6.060   3.644  15.439  0.5755  0.1413 -0.3507
15092TIP3    H166767   5.984   3.633  15.495  1.6529 -2.0543  0.7382
15092TIP3    H266768   6.055   3.735  15.410 -1.7991  0.3689  0.6318
15093TIP3   OH266769   0.820   2.241   0.611 -0.2748 -0.0787 -0.4768
15093TIP3    H166770   0.836   2.276   0.523 -1.1272  2.2676  0.2595
15093TIP3    H266771   0.823   2.318   0.668 -0.2861 -1.5010  1.4850
15094TIP3   OH266772   6.328   0.275  14.822  0.0529 -0.5245  0.7261
15094TIP3    H166773   6.295   0.296  14.909 -1.6454  1.3280 -0.2982
15094TIP3    H266774   6.272   0.204  14.792 -2.0335  1.4712 -0.3337
15095TIP3   OH266775   3.463   4.465  16.871  0.0068 -0.0638 -0.4419
15095TIP3    H166776   3.520   4.390  16.853 -1.4007 -1.8134  2.0359
15095TIP3    H266777   3.375   4.435  16.848 -0.3361  1.5297 -1.2849
15096TIP3   OH266778   1.941   6.586  16.416 -0.1874 -0.0396  0.8492
15096TIP3    H166779   1.863   6.572  16.363 -0.7271 -0.0999  1.6556
15096TIP3    H266780   1.908   6.612  16.502  0.6796  0.0302  1.1716
15097TIP3   OH266781   2.674   6.755  12.395  0.0597  0.3672 -0.7015
15097TIP3    H166782   2.668   6.691  12.467  0.5706  0.0723 -0.9201
15097TIP3    H266783   2.690   6.701  12.317  3.8210  0.9640 -0.4227
15098TIP3   OH266784   0.607   6.642  16.587  0.4573 -0.2979 -0.1143
15098TIP3    H166785   0.689   6.673  16.628 -0.1180  0.3340  0.5936
15098TIP3    H266786   0.553   6.615  16.661  1.1521 -3.6241 -0.7441
15099TIP3   OH266787   4.067   2.932   5.606  0.5861  0.1827  0.3820
15099TIP3    H166788   3.982   2.888   5.613  0.5473  0.3602  1.0689
15099TIP3    H266789   4.048   3.013   5.557  0.3254  0.3090  0.6886
15100TIP3   OH266790   0.103   6.778  12.094  0.2638 -0.0894  0.0081
15100TIP3    H166791   0.059   6.859  12.069  1.2218  0.5709  0.4318
15100TIP3    H266792   0.189   6.806  12.125  1.3157 -1.4385 -1.6105
15101TIP3   OH266793   6.326   2.868   1.236 -0.0939  0.6295  0.1382
15101TIP3    H166794   6.323   2.781   1.275 -1.7627  0.4653 -0.3444
15101TIP3    H266795   6.400   2.864   1.175  0.0659 -0.3162  0.3779
15102TIP3   OH266796   5.621   6.218  15.925  0.4867  0.3328  0.3427
15102TIP3    H166797   5.582   6.151  15.869  1.1945  0.0901  0.1355
15102TIP3    H266798   5.572   6.211  16.007 -0.3497  0.4833 -0.1375
15103TIP3   OH266799   0.356   4.672  13.351  0.1415 -0.1923 -0.3274
15103TIP3    H166800   0.397   4.736  13.293 -0.8592  2.5774  1.9137
15103TIP3    H266801   0.303   4.618  13.292  0.6893  1.2838 -2.2587
15104TIP3   OH266802   6.361   2.947   0.907  0.3165  0.2836  0.1979
15104TIP3    H166803   6.291   3.001   0.944  0.0980 -0.4560  0.8982
15104TIP3    H266804   6.442   2.983   0.943  0.0373 -1.0994  2.3334
15105TIP3   OH266805   3.750   5.590   2.552  0.1841  0.1868  0.5477
15105TIP3    H166806   3.730   5.503   2.520 -2.4651  0.5980  0.9862
15105TIP3    H266807   3.762   5.643   2.473  0.6931 -0.3108  0.2846
15106TIP3   OH266808   6.400   4.623   0.265  0.0083 -0.1922  0.1079
15106TIP3    H166809   6.397   4.532   0.297 -2.1721 -0.6272 -1.2285
15106TIP3    H266810   6.422   4.615   0.172 -1.8942  0.5423 -0.4124
15107TIP3   OH266811   6.288   0.828   1.006  0.0904 -0.5147  0.4106
15107TIP3    H166812   6.346   0.894   1.045 -0.1979  0.0415 -0.0994
15107TIP3    H266813   6.322   0.744   1.038  0.4241 -0.1168  1.1084
15108TIP3   OH266814   3.304   5.727  10.183  0.0393  0.1944 -0.0297
15108TIP3    H166815   3.278   5.697  10.096 -1.7588 -0.2854  0.6503
15108TIP3    H266816   3.222   5.743  10.229  0.9666  0.9933  1.4053
15109TIP3   OH266817   0.715   2.561   6.110 -0.2936 -0.1667  0.1109
15109TIP3    H166818   0.746   2.498   6.175  2.0684  0.7975 -0.0136
15109TIP3    H266819   0.700   2.641   6.160  1.8322  0.6684 -0.5313
15110TIP3   OH266820   6.795   6.254   5.449  0.3469  0.3447 -0.3848
15110TIP3    H166821   6.765   6.202   5.375  0.1816  1.4113 -1.0872
15110TIP3    H266822   6.890   6.253   5.443  0.4423 -1.9222  1.0557
15111TIP3   OH266823   6.577   0.544  13.125 -0.0352  0.4044  0.2984
15111TIP3    H166824   6.571   0.458  13.166 -2.4572 -0.3445 -1.5215
15111TIP3    H266825   6.515   0.599  13.173 -1.4541  0.0340 -1.0687
15112TIP3   OH266826   0.606   3.306   4.496  0.0566 -0.0769 -0.3040
15112TIP3    H166827   0.575   3.218   4.474 -0.3469  0.4100 -1.7508
15112TIP3    H266828   0.627   3.346   4.412  4.0841 -0.1463  0.5546
15113TIP3   OH266829   5.123   2.952  14.974 -0.3274  0.1578  0.1429
15113TIP3    H166830   5.131   2.906  15.058 -0.9727 -0.9012 -0.3744
15113TIP3    H266831   5.211   2.947  14.936  0.0232  0.8300  0.8477
15114TIP3   OH266832   2.293   5.623  14.368 -0.0507 -0.1546 -0.0142
15114TIP3    H166833   2.325   5.535  14.387  1.0435  0.4876  1.1779
15114TIP3    H266834   2.320   5.676  14.443 -1.9663  0.8944 -0.0255
15115TIP3   OH266835   0.700   5.886  14.931 -0.3251 -0.6887  0.6250
15115TIP3    H166836   0.694   5.801  14.975  1.1735 -0.4863  1.2721
15115TIP3    H266837   0.615   5.898  14.890 -0.7269 -2.2786  0.9447
15116TIP3   OH266838   6.553   4.810   3.958 -0.3767  0.1894  0.7532
15116TIP3    H166839   6.647   4.794   3.967  0.3164  1.3220 -3.3293
15116TIP3    H266840   6.514   4.723   3.954  0.7650 -0.3118  0.2902
15117TIP3   OH266841   2.956   4.400   1.094 -0.3596 -0.2814 -0.0039
15117TIP3    H166842   3.049   4.406   1.116 -0.5053 -1.9727  1.1615
15117TIP3    H266843   2.911   4.405   1.178 -1.1829 -1.8388 -0.3258
15118TIP3   OH266844   5.901   4.311  14.455 -0.2600  0.2572 -0.9157
15118TIP3    H166845   5.874   4.249  14.522  1.1653 -0.9889 -1.4641
15118TIP3    H266846   5.837   4.382  14.461 -1.5511 -0.9603  0.1387
15119TIP3   OH266847   5.638   2.266  16.880  0.1879  0.0434 -0.2408
15119TIP3    H166848   5.582   2.223  16.945  0.8620 -1.0720 -0.3865
15119TIP3    H266849   5.582   2.333  16.841 -0.5982 -0.0866  0.6351
15120TIP3   OH266850   1.456   4.487   3.059 -0.1307  0.8861  0.1328
15120TIP3    H166851   1.544   4.501   3.025 -1.2786  0.8314 -2.9995
15120TIP3    H266852   1.469   4.429   3.135  2.3549 -0.7682 -1.4574
15121TIP3   OH266853   1.960   2.950   1.015  0.1610  0.4441  0.7372
15121TIP3    H166854   2.027   2.982   1.076  1.0254  0.4653 -0.2155
15121TIP3    H266855   1.967   3.007   0.939 -1.1055  0.5917  0.7204
15122TIP3   OH266856   0.881   5.060  14.674 -0.3366  0.2336 -0.3854
15122TIP3    H166857   0.860   5.133  14.615 -1.5543  0.4169  0.2780
15122TIP3    H266858   0.803   5.005  14.673  0.3606 -0.7728 -0.4273
15123TIP3   OH266859   2.616   1.996  12.002  0.4752  0.1546  0.7571
15123TIP3    H166860   2.657   1.919  11.962  1.1081  1.9630 -2.2624
15123TIP3    H266861   2.686   2.062  12.004 -0.5315  1.2154  1.6535
15124TIP3   OH266862   1.534   4.637  13.051 -0.1945 -0.4152  0.9806
15124TIP3    H166863   1.616   4.687  13.055  0.9061 -1.9997 -0.7692
15124TIP3    H266864   1.491   4.656  13.134  1.5635  1.1035  1.5948
15125TIP3   OH266865   2.134   3.768  11.232  0.0055  0.1273 -0.2836
15125TIP3    H166866   2.169   3.796  11.148  0.6801 -0.8499 -0.3271
15125TIP3    H266867   2.202   3.790  11.296  0.2129 -0.6971 -0.2164
15126TIP3   OH266868   3.312   1.578  13.428 -0.0714 -0.3760 -0.7827
15126TIP3    H166869   3.232   1.614  13.464 -0.7546 -0.3530 -2.2851
15126TIP3    H266870   3.301   1.483  13.435  0.0795 -0.3600 -0.3296
15127TIP3   OH266871   1.978   6.508   5.064 -0.0089  0.0308 -0.6822
15127TIP3    H166872   1.921   6.431   5.055 -0.4583  0.4052 -1.0655
15127TIP3    H266873   1.947   6.568   4.997 -0.2114  0.8893  0.1628
15128TIP3   OH266874   2.721   2.870   1.442  0.8324  0.0255 -0.2842
15128TIP3    H166875   2.651   2.819   1.483  1.8686 -1.4702 -0.3077
15128TIP3    H266876   2.714   2.957   1.480 -0.3048 -0.4367  0.5706
15129TIP3   OH266877   6.407   2.862  15.305 -0.2549  0.6361  0.1538
15129TIP3    H166878   6.333   2.810  15.273 -0.6019  0.7647  0.7409
15129TIP3    H266879   6.367   2.929  15.361  0.3667  0.2277  1.0969
15130TIP3   OH266880   5.753   6.361   6.838 -0.3500  0.5948  0.7447
15130TIP3    H166881   5.733   6.350   6.745  1.1731  1.3963  0.3095
15130TIP3    H266882   5.845   6.337   6.846 -0.5811  0.1291  2.1313
15131TIP3   OH266883   4.142   5.790  15.138 -0.1199 -0.1939  0.4658
15131TIP3    H166884   4.180   5.744  15.213  0.0246 -1.4632 -0.3654
15131TIP3    H266885   4.124   5.878  15.170  1.8757 -0.0979  1.4138
15132TIP3   OH266886   3.747   6.782   1.152  0.2325 -0.2660 -0.0677
15132TIP3    H166887   3.675   6.811   1.095  0.7765  0.8650 -0.1933
15132TIP3    H266888   3.770   6.695   1.120 -0.2136 -0.0968 -0.8591
15133TIP3   OH266889   0.939   0.814   0.850 -0.2431 -0.2137 -0.0740
15133TIP3    H166890   0.847   0.837   0.837 -0.3838 -0.6441  0.1524
15133TIP3    H266891   0.937   0.747   0.918  0.2701  0.0724  0.2240
15134TIP3   OH266892   2.680   4.631   2.693 -0.1183 -0.0628  0.1939
15134TIP3    H166893   2.698   4.619   2.787 -0.6153  1.8192  0.5423
15134TIP3    H266894   2.640   4.718   2.687 -1.8298 -0.9296 -1.5382
15135TIP3   OH266895   0.908   6.617  14.951  0.4178  0.4610 -0.4370
15135TIP3    H166896   0.952   6.670  14.885 -1.1838  2.2908 -0.0712
15135TIP3    H266897   0.817   6.648  14.950 -0.1483 -1.0963  0.9942
15136TIP3   OH266898   1.721   6.748   2.027  0.4024 -0.3990  0.2492
15136TIP3    H166899   1.643   6.800   2.004  1.2931  0.3626 -1.1288
15136TIP3    H266900   1.698   6.705   2.109 -1.1749  0.4673  0.2783
15137TIP3   OH266901   0.670   0.712  16.691  0.5441  0.1560  0.7137
15137TIP3    H166902   0.594   0.681  16.741 -1.1786  1.2726 -1.1392
15137TIP3    H266903   0.636   0.785  16.640  2.9908  0.9087  0.1381
15138TIP3   OH266904   5.665   1.227  12.709  0.4082  0.0533  0.0812
15138TIP3    H166905   5.712   1.282  12.772  0.4868 -0.7969  0.7887
15138TIP3    H266906   5.722   1.152  12.696 -0.1897 -0.3900 -0.0104
15139TIP3   OH266907   4.645   0.452  12.477  0.2188 -0.0157 -0.4874
15139TIP3    H166908   4.655   0.512  12.551  0.8374 -1.0471  0.2923
15139TIP3    H266909   4.701   0.489  12.409 -2.3243  2.3337 -1.3674
15140TIP3   OH266910   4.162   1.612   2.522 -0.7394  0.1054 -0.4264
15140TIP3    H166911   4.176   1.701   2.553  0.1289 -0.0319 -0.4120
15140TIP3    H266912   4.172   1.618   2.427  0.4034 -0.1653 -0.3338
15141TIP3   OH266913   5.605   4.522   3.157 -0.1578 -0.1965 -0.6671
15141TIP3    H166914   5.614   4.542   3.064 -0.8986  1.6959 -0.3690
15141TIP3    H266915   5.654   4.592   3.201 -0.4942 -0.6043  0.3706
15142TIP3   OH266916   0.290   5.149  15.163 -0.0158 -0.5590 -0.2650
15142TIP3    H166917   0.247   5.075  15.120  1.3811 -0.2846 -2.1793
15142TIP3    H266918   0.378   5.151  15.126  1.4390 -0.6078  3.0107
15143TIP3   OH266919   2.046   5.782   4.211 -0.5906 -0.4403  0.5246
15143TIP3    H166920   2.061   5.828   4.129  1.4746  0.7238  1.5160
15143TIP3    H266921   2.134   5.769   4.248 -1.5171 -0.2814  2.8883
15144TIP3   OH266922   2.981   6.634  15.069  0.3586 -0.3102  0.6325
15144TIP3    H166923   3.047   6.663  15.132 -0.7051 -1.1769  2.1867
15144TIP3    H266924   2.901   6.625  15.121 -1.0041  0.7355 -1.2105
15145TIP3   OH266925   2.506   5.387  14.344 -0.2691  0.5076  0.5073
15145TIP3    H166926   2.519   5.391  14.439  1.3198 -2.2396  0.4752
15145TIP3    H266927   2.559   5.312  14.316 -1.2613  0.8446 -2.4593
15146TIP3   OH266928   3.519   5.909  11.172  0.7102  0.2611 -0.4899
15146TIP3    H166929   3.443   5.861  11.204  0.2932  0.3297 -1.3749
15146TIP3    H266930   3.577   5.842  11.136  0.9593  0.2356 -0.0481
15147TIP3   OH266931   2.702   1.165  11.856  0.1252 -0.2694 -0.0892
15147TIP3    H166932   2.662   1.096  11.803  1.6247  0.3931 -2.1574
15147TIP3    H266933   2.711   1.127  11.943 -1.5869 -1.7009 -0.5207
15148TIP3   OH266934   5.795   1.655   2.216 -0.2662 -0.2627 -0.3633
15148TIP3    H166935   5.859   1.665   2.145 -1.4796 -0.5432 -1.5032
15148TIP3    H266936   5.786   1.561   2.227  0.4103 -0.2186  0.6222
15149TIP3   OH266937   5.132   0.870  14.753  0.7450 -0.5708 -0.2573
15149TIP3    H166938   5.162   0.919  14.829 -2.1308 -2.5708  2.2953
15149TIP3    H266939   5.083   0.933  14.700 -0.0726  0.0963  1.2734
15150TIP3   OH266940   4.680   2.815   5.207  0.3313 -0.1804 -0.7161
15150TIP3    H166941   4.737   2.863   5.266  0.1154  0.4908 -1.0488
15150TIP3    H266942   4.665   2.731   5.251  3.3155 -1.2437 -1.5914
15151TIP3   OH266943   5.765   3.246   5.517 -0.2773  0.6473  0.1212
15151TIP3    H166944   5.712   3.249   5.437 -0.5908  2.4777  0.3646
15151TIP3    H266945   5.784   3.154   5.530 -1.7460  0.1528 -1.0732
15152TIP3   OH266946   5.989   0.297  11.718 -0.3800 -0.8446 -0.1070
15152TIP3    H166947   5.896   0.278  11.724  0.1793 -2.9300  3.6244
15152TIP3    H266948   6.031   0.212  11.705  1.2095 -0.4108  1.8406
15153TIP3   OH266949   2.859   3.438   1.657  0.6109  0.3789  0.1925
15153TIP3    H166950   2.942   3.431   1.610  1.4173 -0.5608  1.7087
15153TIP3    H266951   2.837   3.348   1.680  0.5120  0.8610  2.0726
15154TIP3   OH266952   3.163   3.562   0.826  0.1110  0.2318 -0.1256
15154TIP3    H166953   3.212   3.557   0.744  0.7367 -0.6550  0.3041
15154TIP3    H266954   3.198   3.492   0.880 -1.7509 -0.5268  0.1255
15155TIP3   OH266955   4.349   5.828   4.195  0.5151 -0.3590  0.4945
15155TIP3    H166956   4.262   5.853   4.225  0.7684  0.0521  0.8992
15155TIP3    H266957   4.403   5.906   4.212  0.5926  0.0006 -1.3179
15156TIP3   OH266958   1.119   5.206  13.588 -0.2691 -0.3927 -0.3290
15156TIP3    H166959   1.159   5.234  13.506  0.0578 -0.5237 -0.2131
15156TIP3    H266960   1.187   5.218  13.654 -0.3973 -0.6786 -0.1431
15157TIP3   OH266961   0.910   5.586  12.007  0.3318  0.2928  0.9347
15157TIP3    H166962   0.982   5.529  11.980 -0.0995 -1.1107  2.6603
15157TIP3    H266963   0.944   5.632  12.083  0.5973  2.2375 -0.3210
15158TIP3   OH266964   5.246   6.112  10.877  0.0816  1.0716  0.6411
15158TIP3    H166965   5.168   6.166  10.887 -0.4079  0.1196  2.2021
15158TIP3    H266966   5.303   6.162  10.819 -1.7529  1.7009 -0.6473
15159TIP3   OH266967   3.569   1.403   3.873  0.1232  0.4764  0.5058
15159TIP3    H166968   3.536   1.340   3.938  1.7386 -1.7464 -0.7566
15159TIP3    H266969   3.604   1.475   3.925 -1.7454  0.3650  1.9916
15160TIP3   OH266970   4.558   2.404  11.149 -0.1694 -0.2953 -0.0397
15160TIP3    H166971   4.527   2.370  11.065  0.8460 -0.6156 -0.2875
15160TIP3    H266972   4.630   2.463  11.127 -1.9411  2.1253  0.3801
15161TIP3   OH266973   0.500   6.481   2.852  0.3890  0.0864 -0.6867
15161TIP3    H166974   0.530   6.553   2.797 -0.2109 -0.3119 -1.5517
15161TIP3    H266975   0.404   6.484   2.846  0.3675 -0.9612 -0.9769
15162TIP3   OH266976   2.305   2.073  13.420  0.7154 -0.1639  0.5560
15162TIP3    H166977   2.385   2.097  13.374 -0.9987  0.2017 -2.4481
15162TIP3    H266978   2.247   2.148  13.407 -1.4208 -1.9639 -0.7558
15163TIP3   OH266979   5.535   3.128  15.718  0.1315  0.4104 -0.3612
15163TIP3    H166980   5.565   3.122  15.809  1.0080 -0.9837 -0.7172
15163TIP3    H266981   5.597   3.074  15.669 -1.1010  0.0757 -1.5907
15164TIP3   OH266982   4.413   4.584  14.026  0.2245 -0.2383 -0.2116
15164TIP3    H166983   4.418   4.611  13.934 -0.6678 -2.2257 -0.8576
15164TIP3    H266984   4.465   4.503  14.030  1.0397  0.3342  1.2403
15165TIP3   OH266985   2.344   3.209   1.596  0.2496  0.3322 -0.1972
15165TIP3    H166986   2.412   3.277   1.592  0.2002  0.3126 -1.9721
15165TIP3    H266987   2.371   3.153   1.669  1.4259  1.0751 -0.0346
15166TIP3   OH266988   5.367   2.125   0.847  0.1527  0.4910  0.5410
15166TIP3    H166989   5.287   2.106   0.798  0.4911 -0.6569  0.4162
15166TIP3    H266990   5.350   2.090   0.935  1.6523 -2.5889 -0.3251
15167TIP3   OH266991   0.962   5.992   3.082  0.4182  0.2358 -0.3696
15167TIP3    H166992   0.994   5.958   2.999 -2.2052 -0.3430 -1.2059
15167TIP3    H266993   0.910   6.068   3.058  0.3307  0.5600  0.8252
15168TIP3   OH266994   5.826   4.817   4.949 -0.1632 -0.1520  0.2957
15168TIP3    H166995   5.846   4.736   4.996 -1.1631  0.5923  2.0618
15168TIP3    H266996   5.750   4.796   4.895 -1.1153 -0.1074  1.5946
15169TIP3   OH266997   2.363   2.132   2.687 -0.1128 -0.3742  0.3151
15169TIP3    H166998   2.446   2.176   2.701 -0.9145  1.9928 -2.0143
15169TIP3    H266999   2.303   2.174   2.749 -0.1063 -0.4939  0.4025
15170TIP3   OH267000   5.901   4.984   4.531  0.8711 -0.3410 -0.0290
15170TIP3    H167001   5.837   4.918   4.557  1.3477 -1.1851 -0.9924
15170TIP3    H267002   5.986   4.943   4.546  1.1638 -0.3090 -1.5170
15171TIP3   OH267003   2.076   4.213   3.908  0.1255  0.2992  0.1760
15171TIP3    H167004   1.990   4.204   3.949 -0.0500 -0.9404 -0.4306
15171TIP3    H267005   2.061   4.195   3.816  0.9570  0.5669 -0.0223
15172TIP3   OH267006   1.919   3.994   6.004 -0.1837 -0.0341  0.1230
15172TIP3    H167007   1.946   4.084   5.987 -0.6086 -0.0557 -0.6775
15172TIP3    H267008   1.999   3.950   6.032  0.1018  0.5033  0.1542
15173TIP3   OH267009   5.312   3.081   4.339  0.4625  0.1658  0.3436
15173TIP3    H167010   5.294   3.034   4.257  0.2421  0.0018  0.4883
15173TIP3    H267011   5.226   3.100   4.376  0.5735 -0.1241  0.7475
15174TIP3   OH267012   0.946   0.175  15.644  0.3532 -0.2353 -0.4110
15174TIP3    H167013   0.919   0.117  15.715  1.4544  1.1519  1.1888
15174TIP3    H267014   0.878   0.243  15.641 -0.8319 -1.4478 -2.1514
15175TIP3   OH267015   6.401   6.088   3.270 -0.2891  0.1331  0.4685
15175TIP3    H167016   6.349   6.165   3.294 -2.3041 -0.8590 -0.5937
15175TIP3    H267017   6.397   6.085   3.175  0.7998 -0.6105  0.4439
15176TIP3   OH267018   5.661   0.683  16.493 -0.4435  0.6123  0.2147
15176TIP3    H167019   5.607   0.667  16.571 -1.6930 -0.9789 -0.9286
15176TIP3    H267020   5.750   0.690  16.526 -0.9809  0.1067  1.8197
15177TIP3   OH267021   3.859   1.570  16.483 -0.1619  0.9287 -0.1138
15177TIP3    H167022   3.939   1.590  16.433 -0.8237  2.4620 -0.5929
15177TIP3    H267023   3.839   1.652  16.529 -0.4575  0.0098  1.4286
15178TIP3   OH267024   0.190   2.859  15.972  0.0054  0.2283 -0.3917
15178TIP3    H167025   0.103   2.892  15.992  0.6870  1.5467  0.4887
15178TIP3    H267026   0.248   2.907  16.031  0.9904 -2.9994  1.3997
15179TIP3   OH267027   6.408   1.682  13.321 -0.4264 -0.5145  0.3777
15179TIP3    H167028   6.482   1.622  13.334 -0.5905 -0.8258 -0.1130
15179TIP3    H267029   6.395   1.722  13.407  0.2951 -0.4779  0.4777
15180TIP3   OH267030   2.329   4.306   2.171 -0.4752  0.2392  0.1309
15180TIP3    H167031   2.254   4.345   2.126 -0.6555  0.2375  0.4320
15180TIP3    H267032   2.291   4.243   2.231 -0.3055  1.1197  1.1707
15181TIP3   OH267033   5.709   3.819   2.124 -0.0436  0.1395  0.2150
15181TIP3    H167034   5.720   3.731   2.160 -0.5043  0.6424  1.5912
15181TIP3    H267035   5.787   3.832   2.069  1.6045  0.0622  2.4822
15182TIP3   OH267036   0.380   5.463   3.540  0.1564 -0.2661 -0.0716
15182TIP3    H167037   0.290   5.485   3.517  0.5735  0.8529 -0.7027
15182TIP3    H267038   0.431   5.491   3.465  1.4186  2.3857  1.6665
15183TIP3   OH267039   1.316   0.055  16.276  0.5056  0.1675 -0.1817
15183TIP3    H167040   1.380   0.101  16.223 -0.8098  1.2612 -0.8527
15183TIP3    H267041   1.318   0.100  16.361 -0.4565  1.1848 -0.6904
15184TIP3   OH267042   1.361   2.468   3.431 -0.5052 -0.2161  0.0878
15184TIP3    H167043   1.444   2.440   3.392 -0.5565  1.0276 -0.9429
15184TIP3    H267044   1.310   2.501   3.357 -1.4654  0.1202  0.8973
15185TIP3   OH267045   4.026   2.708  14.425 -0.2012  0.6624 -0.3658
15185TIP3    H167046   4.008   2.643  14.494  1.1296 -0.6504 -1.2041
15185TIP3    H267047   3.992   2.668  14.345 -0.4263  1.5223 -0.6970
15186TIP3   OH267048   0.927   2.850   4.386 -0.2422 -0.0116 -0.4702
15186TIP3    H167049   0.984   2.916   4.347 -1.5272  0.1418 -2.1512
15186TIP3    H267050   0.853   2.843   4.326 -1.4233 -1.0733  1.0489
15187TIP3   OH267051   4.479   5.435   1.794  0.0123 -0.0469  0.2718
15187TIP3    H167052   4.448   5.344   1.800 -0.0580  0.0619  1.7688
15187TIP3    H267053   4.560   5.429   1.743 -0.0811 -0.9289  0.2110
15188TIP3   OH267054   0.831   0.386   6.111  0.1470 -0.3119 -0.0717
15188TIP3    H167055   0.900   0.412   6.049 -0.2019 -1.2171 -0.8472
15188TIP3    H267056   0.830   0.456   6.176  2.0509 -0.4655  0.1488
15189TIP3   OH267057   4.820   1.483   1.543 -0.8695 -0.5873 -0.4381
15189TIP3    H167058   4.842   1.432   1.621 -3.1223  0.7818  1.1763
15189TIP3    H267059   4.734   1.451   1.517 -2.2845  2.1814  0.5380
15190TIP3   OH267060   2.182   5.737   6.114  0.2836 -0.0769  0.2560
15190TIP3    H167061   2.126   5.812   6.093 -1.3001 -2.1255 -3.3372
15190TIP3    H267062   2.127   5.682   6.170  0.3659  0.0097  0.4242
15191TIP3   OH267063   5.867   1.730   3.693 -0.1445 -0.4135 -0.4703
15191TIP3    H167064   5.923   1.705   3.767  0.6099  1.3061 -0.4157
15191TIP3    H267065   5.895   1.673   3.622 -2.1815 -3.4233  1.0197
15192TIP3   OH267066   0.217   2.439   0.851 -0.1835 -0.4409  0.2029
15192TIP3    H167067   0.227   2.366   0.790 -2.4612  1.7471 -2.9136
15192TIP3    H267068   0.125   2.433   0.880 -0.9469  2.2674 -1.5605
15193TIP3   OH267069   1.152   2.754  11.322 -0.2806 -0.1626  0.5065
15193TIP3    H167070   1.227   2.813  11.325 -0.5916  0.2013  1.4339
15193TIP3    H267071   1.098   2.787  11.251 -0.6353  0.8952  1.2586
15194TIP3   OH267072   4.311   3.965  10.924 -1.1790  0.4026 -0.3701
15194TIP3    H167073   4.248   4.031  10.896 -4.5755 -2.3584  0.3310
15194TIP3    H267074   4.336   3.920  10.844 -2.5671 -0.4863 -0.3340
15195TIP3   OH267075   3.056   4.730  14.021  0.1835  0.1218  0.6029
15195TIP3    H167076   3.080   4.792  14.090  1.3149 -0.1581  0.4769
15195TIP3    H267077   3.103   4.650  14.043 -1.4508 -0.7901  0.8938
15196TIP3   OH267078   3.191   4.328  16.960  0.1169  0.2263  0.0607
15196TIP3    H167079   3.138   4.251  16.982  1.1184 -0.4396  0.1689
15196TIP3    H267080   3.249   4.339  17.036  0.7197  0.4403 -0.4313
15197TIP3   OH267081   3.141   5.641   4.200 -0.6877 -0.2560  0.1069
15197TIP3    H167082   3.125   5.694   4.122  1.2577 -1.7589 -1.3603
15197TIP3    H267083   3.179   5.702   4.264  0.1411  0.4250 -1.0247
15198TIP3   OH267084   1.238   1.125  11.534 -0.3901  0.5357 -0.2456
15198TIP3    H167085   1.309   1.060  11.531 -0.2151  0.7118  0.0176
15198TIP3    H267086   1.266   1.187  11.601 -1.5034 -0.1990  0.9081
15199TIP3   OH267087   5.682   3.192   3.071 -0.0418 -0.2551 -0.4341
15199TIP3    H167088   5.604   3.159   3.028 -2.2241 -0.8746  3.7658
15199TIP3    H267089   5.734   3.114   3.090 -0.4796 -0.2831  0.6553
15200TIP3   OH267090   2.317   6.716  15.997 -0.2330  0.3624 -0.6053
15200TIP3    H167091   2.400   6.763  16.002 -0.8267  1.3421  0.1359
15200TIP3    H267092   2.306   6.677  16.084 -1.8180  2.4585  0.2040
15201TIP3   OH267093   3.656   6.186   2.141  0.0679 -0.3884 -0.1879
15201TIP3    H167094   3.619   6.269   2.109  0.7235  0.1036  0.3198
15201TIP3    H267095   3.744   6.183   2.103 -0.2927 -1.3040 -0.9608
15202TIP3   OH267096   0.500   5.799  16.619 -0.0968 -0.4608 -0.9681
15202TIP3    H167097   0.450   5.792  16.701  0.4853  1.7961 -0.3772
15202TIP3    H267098   0.438   5.837  16.557 -0.5467 -2.2012 -1.6205
15203TIP3   OH267099   5.870   1.583   1.652  0.1662  0.5538 -0.0552
15203TIP3    H167100   5.923   1.553   1.726  0.7209  0.7297 -0.3786
15203TIP3    H267101   5.919   1.556   1.575  0.8773  2.5841 -0.3568
15204TIP3   OH267102   4.514   1.642   4.819 -0.3905 -0.2339  0.3296
15204TIP3    H167103   4.436   1.603   4.858 -1.1297  0.5780 -0.2813
15204TIP3    H267104   4.536   1.715   4.877 -1.5383  1.0244 -0.7449
15205TIP3   OH267105   3.382   4.743   4.694  0.0427  0.5470  0.3606
15205TIP3    H167106   3.394   4.685   4.769 -1.0617  1.2902  1.1232
15205TIP3    H267107   3.470   4.754   4.658  0.2767 -1.5977  0.1976
15206TIP3   OH267108   1.442   0.217  12.631 -0.0116 -0.6490  0.3059
15206TIP3    H167109   1.481   0.236  12.545 -0.0258 -0.6061  0.3097
15206TIP3    H267110   1.428   0.303  12.671  0.1813 -0.6787  0.4348
15207TIP3   OH267111   0.833   1.268  14.987 -0.6390 -0.9790  0.5734
15207TIP3    H167112   0.802   1.231  14.904 -1.1007  1.7517 -0.5444
15207TIP3    H267113   0.754   1.304  15.027 -0.2248 -1.2807  1.6799
15208TIP3   OH267114   1.190   3.124  16.769 -0.3979  0.5000 -0.6860
15208TIP3    H167115   1.108   3.079  16.787  0.4588 -0.4522  0.9539
15208TIP3    H267116   1.257   3.055  16.773  0.8146  1.7427  0.9326
15209TIP3   OH267117   5.690   5.790  12.769  0.1075  0.1655  0.0767
15209TIP3    H167118   5.663   5.879  12.793  0.3462  0.2762 -0.0676
15209TIP3    H267119   5.775   5.801  12.727  0.1260 -0.1298  0.0372
15210TIP3   OH267120   2.088   0.861   2.962 -0.3410  0.3389 -0.5428
15210TIP3    H167121   1.996   0.869   2.987 -0.8239 -1.3651 -1.6777
15210TIP3    H267122   2.086   0.842   2.868  1.2555  2.0421 -0.9706
15211TIP3   OH267123   2.575   0.968  13.180  0.5093  0.2106  0.0517
15211TIP3    H167124   2.621   1.026  13.119  1.6973 -0.1445  0.5995
15211TIP3    H267125   2.616   0.985  13.265  0.9162 -1.4590  0.2154
15212TIP3   OH267126   3.808   3.896   1.542  0.1101  0.3576 -0.4033
15212TIP3    H167127   3.833   3.974   1.591 -0.0055  0.6048 -0.7385
15212TIP3    H267128   3.876   3.832   1.564 -0.2581  0.2757  0.5315
15213TIP3   OH267129   3.123   2.931   1.332  0.3188 -0.2341 -0.2229
15213TIP3    H167130   3.161   2.885   1.406  0.3630 -1.7567 -1.1781
15213TIP3    H267131   3.187   2.998   1.310 -0.3766  1.2456  2.0592
15214TIP3   OH267132   6.702   4.860  12.178 -0.4876 -0.1912 -0.3794
15214TIP3    H167133   6.729   4.816  12.097 -0.0791  0.0507 -0.3746
15214TIP3    H267134   6.615   4.895  12.158 -1.1031 -1.5563 -0.1716
15215TIP3   OH267135   2.549   4.323   0.244 -0.0342  0.0182 -0.1415
15215TIP3    H167136   2.640   4.348   0.227  0.0174 -0.1197 -0.0654
15215TIP3    H267137   2.513   4.395   0.296 -0.2907  0.6060 -1.1212
15216TIP3   OH267138   3.505   1.230  15.835  0.2564  0.1070 -0.0366
15216TIP3    H167139   3.465   1.144  15.848 -0.2532 -0.0311 -2.2878
15216TIP3    H267140   3.437   1.292  15.863 -1.0666 -0.1561 -2.5210
15217TIP3   OH267141   2.344   0.253  16.006 -0.3971 -0.5316  0.3044
15217TIP3    H167142   2.285   0.233  15.933 -1.1669 -0.4952  0.9058
15217TIP3    H267143   2.332   0.180  16.067 -0.9685  0.2287  1.1283
15218TIP3   OH267144   4.306   3.930   5.166 -0.0401  0.1092  0.5362
15218TIP3    H167145   4.365   3.925   5.090 -1.0726  0.5785 -0.3081
15218TIP3    H267146   4.247   3.855   5.155 -1.8846  1.6745 -0.5745
15219TIP3   OH267147   5.403   3.767   4.344 -0.6914  0.5314 -0.1595
15219TIP3    H167148   5.313   3.783   4.316 -1.0852  0.2500  0.9166
15219TIP3    H267149   5.397   3.690   4.400  0.4304 -0.3009 -1.1686
15220TIP3   OH267150   2.404   3.555  14.482 -0.3905  0.3510  0.3289
15220TIP3    H167151   2.494   3.549  14.449 -1.3819 -0.5496 -2.3567
15220TIP3    H267152   2.408   3.624  14.548  2.3404  0.1050  0.5108
15221TIP3   OH267153   2.836   0.857   4.992 -0.2776 -0.1606  0.4034
15221TIP3    H167154   2.847   0.920   4.920 -1.4956 -0.8930 -0.4572
15221TIP3    H267155   2.785   0.905   5.057 -0.6548 -0.0301  0.0218
15222TIP3   OH267156   4.903   2.306  12.665 -0.5186 -0.3980 -0.1755
15222TIP3    H167157   4.875   2.242  12.600 -0.6780  0.2444 -0.7385
15222TIP3    H267158   4.871   2.271  12.748 -0.0392 -1.3732 -0.4026
15223TIP3   OH267159   2.715   3.352  17.290  0.4163 -0.0003 -0.4235
15223TIP3    H167160   2.809   3.341  17.307  0.3920  0.0992 -0.2228
15223TIP3    H267161   2.710   3.380  17.198  0.5038 -1.2852 -0.8366
15224TIP3   OH267162   3.420   3.646  12.125  0.5874  0.4561  0.6810
15224TIP3    H167163   3.512   3.645  12.152  0.3807  0.4051  1.4000
15224TIP3    H267164   3.372   3.643  12.207 -0.0597 -0.6268  0.2698
15225TIP3   OH267165   2.378   5.194   0.471 -0.2310 -0.2177  0.1297
15225TIP3    H167166   2.358   5.192   0.377 -0.7881 -0.0390  0.2441
15225TIP3    H267167   2.314   5.133   0.509  0.4295 -0.7969  0.3082
15226TIP3   OH267168   4.247   1.647   4.559 -0.1188  0.0542 -0.1238
15226TIP3    H167169   4.264   1.669   4.651  0.7921  1.7101 -0.6729
15226TIP3    H267170   4.204   1.724   4.523 -0.2978 -0.5081 -1.1467
15227TIP3   OH267171   3.337   2.531  15.572 -0.4034  0.7682  0.2769
15227TIP3    H167172   3.350   2.570  15.658 -2.8424  0.9923  0.5963
15227TIP3    H267173   3.318   2.605  15.514  0.6113  0.5622 -0.3387
15228TIP3   OH267174   0.074   4.720   5.758  0.2567 -0.6391  0.1933
15228TIP3    H167175   0.165   4.723   5.785 -0.0643  3.0653  1.1075
15228TIP3    H267176   0.027   4.688   5.836  0.3345  1.4681  1.1322
15229TIP3   OH267177   6.110   5.288  13.222  0.3055 -0.3462 -0.6801
15229TIP3    H167178   6.166   5.355  13.183  1.4343 -0.6952  0.3047
15229TIP3    H267179   6.152   5.205  13.201 -2.6246 -1.0351 -4.4189
15230TIP3   OH267180   6.371   3.274   4.900  0.2112  0.4063  0.2261
15230TIP3    H167181   6.407   3.216   4.967  0.8905  0.5189 -0.0356
15230TIP3    H267182   6.277   3.256   4.900  0.3892 -0.5062  0.3221
15231TIP3   OH267183   1.936   3.040  15.894 -0.4517 -0.1052 -0.1557
15231TIP3    H167184   1.864   3.002  15.944 -2.4706  0.4645 -2.5574
15231TIP3    H267185   1.958   2.973  15.830 -0.3264  0.6095 -0.8597
15232TIP3   OH267186   1.404   2.217  13.779  0.5472  0.1534  0.1477
15232TIP3    H167187   1.430   2.144  13.724 -3.5106 -0.7298 -0.7951
15232TIP3    H267188   1.416   2.294  13.723 -0.5371 -0.4270 -0.9282
15233TIP3   OH267189   1.441   3.689   1.386  0.0794 -0.0108  0.0785
15233TIP3    H167190   1.441   3.596   1.363  1.9582 -0.0539  0.1829
15233TIP3    H267191   1.360   3.702   1.435  0.1797 -1.7656  0.7392
15234TIP3   OH267192   4.495   6.026  10.788 -0.0354 -0.0577 -0.0813
15234TIP3    H167193   4.438   6.103  10.780 -1.8253 -1.1106  2.1903
15234TIP3    H267194   4.500   5.991  10.699 -1.0487  1.3696 -0.7253
15235TIP3   OH267195   5.969   2.209   4.404  0.3832  0.1644 -0.5200
15235TIP3    H167196   5.936   2.211   4.493  0.0222 -0.4533 -0.6410
15235TIP3    H267197   5.985   2.301   4.383 -0.0803  0.3635 -0.0246
15236TIP3   OH267198   6.390   1.726   2.396 -0.0327 -0.3929 -0.0536
15236TIP3    H167199   6.395   1.661   2.326 -0.5395  0.1344 -0.5822
15236TIP3    H267200   6.456   1.791   2.373  1.7440 -1.6384  1.4349
15237TIP3   OH267201   5.967   4.654   6.535  0.7721  0.0395 -0.1291
15237TIP3    H167202   6.004   4.711   6.603 -1.8312  1.2503  0.3240
15237TIP3    H267203   5.938   4.714   6.466 -0.0898 -0.9062 -0.5982
15238TIP3   OH267204   1.128   3.090  12.419  0.2865  0.0318  0.5069
15238TIP3    H167205   1.159   3.147  12.489 -0.1638  0.9199 -0.0023
15238TIP3    H267206   1.193   3.020  12.415  1.3886  1.0344  0.4870
15239TIP3   OH267207   0.039   1.558   5.298  0.1376 -0.2135  0.0366
15239TIP3    H167208   0.021   1.566   5.391 -1.0758 -0.1749 -0.1860
15239TIP3    H267209   0.022   1.646   5.263 -2.4413 -0.9710 -0.6926
15240TIP3   OH267210   3.406   3.783   2.602 -0.8655  0.1916 -0.0192
15240TIP3    H167211   3.418   3.689   2.613 -0.2368  0.2040 -0.5136
15240TIP3    H267212   3.485   3.821   2.641  0.1837  0.3598 -2.1956
15241TIP3   OH267213   0.020   0.730  12.629 -0.1449 -0.1968  0.2337
15241TIP3    H167214   0.114   0.717  12.642  0.0457 -0.2428 -1.1912
15241TIP3    H267215  -0.020   0.686  12.704  0.9877  0.3540  1.1913
15242TIP3   OH267216   3.617   2.946  14.778 -0.1600 -0.5239  0.0885
15242TIP3    H167217   3.556   2.983  14.841 -0.0619  0.6333 -0.4941
15242TIP3    H267218   3.574   2.865  14.748 -1.5809  0.4522 -0.5676
15243TIP3   OH267219   1.671   1.712   5.582  0.3845  0.4011  0.3139
15243TIP3    H167220   1.736   1.643   5.564 -0.0058  0.2709 -0.6326
15243TIP3    H267221   1.678   1.771   5.507  0.7703  1.4488  1.1560
15244TIP3   OH267222   3.037   0.440   0.651 -0.8287 -0.0677 -0.4498
15244TIP3    H167223   3.020   0.346   0.645 -2.2162  0.0241  1.4663
15244TIP3    H267224   3.109   0.448   0.714 -1.6334  0.2049  0.4538
15245TIP3   OH267225   5.311   4.394  12.328 -0.2849 -0.1955  0.0672
15245TIP3    H167226   5.349   4.340  12.396 -0.0704  1.2132  1.0938
15245TIP3    H267227   5.360   4.373  12.249  1.2013  0.0489  0.9148
15246TIP3   OH267228   1.091   6.709   6.736 -0.0734  0.5700  0.3739
15246TIP3    H167229   1.103   6.698   6.641  0.5139  1.1990  0.3659
15246TIP3    H267230   1.145   6.786   6.757 -0.9467  0.9917  1.0591
15247TIP3   OH267231   5.466   6.083  12.420 -0.0213 -0.3029 -0.1144
15247TIP3    H167232   5.513   6.013  12.376  0.3053  0.2105 -0.6004
15247TIP3    H267233   5.408   6.119  12.353  1.2526  1.1880 -0.4688
15248TIP3   OH267234   3.233   0.517   0.358 -0.2396  0.3792 -0.0218
15248TIP3    H167235   3.294   0.535   0.286 -1.9742  1.1375 -1.3303
15248TIP3    H267236   3.275   0.446   0.407  0.9198 -0.2369 -1.8437
15249TIP3   OH267237   4.748   1.596  14.509 -0.0390  0.6824  0.7598
15249TIP3    H167238   4.722   1.665  14.448 -0.5201  0.9831  1.3020
15249TIP3    H267239   4.730   1.514  14.461  2.5438  0.9332 -0.7123
15250TIP3   OH267240   5.047   3.324   0.682  0.4445  0.0632  0.2650
15250TIP3    H167241   4.980   3.282   0.736  0.7523 -0.9095 -0.0944
15250TIP3    H267242   5.127   3.316   0.733  0.6076 -0.2690 -0.0424
15251TIP3   OH267243   5.978   6.487  11.964 -1.1252  0.0866 -0.1389
15251TIP3    H167244   5.950   6.412  11.911  1.1434 -0.5478 -0.4621
15251TIP3    H267245   6.073   6.489  11.955 -1.0260  2.0945  1.1084
15252TIP3   OH267246   3.906   0.858   2.033  0.4189 -0.4165 -0.1098
15252TIP3    H167247   3.836   0.793   2.022  0.7221 -0.7120 -0.2783
15252TIP3    H267248   3.986   0.807   2.039  0.5130 -0.1498  1.2301
15253TIP3   OH267249   4.977   4.666  14.531  0.0095 -0.4390  0.1286
15253TIP3    H167250   4.979   4.578  14.493 -0.6861 -0.2515 -0.3534
15253TIP3    H267251   5.067   4.697  14.524  0.2900 -1.1575  0.4211
15254TIP3   OH267252   5.644   2.414   4.795  0.3499  0.5485 -0.5259
15254TIP3    H167253   5.728   2.442   4.831  0.0683  1.7635 -0.8038
15254TIP3    H267254   5.657   2.322   4.772  1.3731  0.5323  0.1072
15255TIP3   OH267255   2.603   0.634  16.880 -0.1821  0.1165 -0.0347
15255TIP3    H167256   2.564   0.710  16.838  0.8959  0.4906 -0.3900
15255TIP3    H267257   2.592   0.563  16.816 -1.0137  0.0185  0.2174
15256TIP3   OH267258   0.341   4.289   5.350  0.2578  0.4164  0.1711
15256TIP3    H167259   0.348   4.332   5.435  1.5224 -0.9652  0.7983
15256TIP3    H267260   0.373   4.200   5.366 -2.8305 -0.9510 -0.9467
15257TIP3   OH267261   5.260   0.302  16.497  0.4462 -0.5732  0.5551
15257TIP3    H167262   5.240   0.259  16.580 -0.0337 -3.1841 -0.8713
15257TIP3    H267263   5.177   0.339  16.467  0.4422 -0.3626  0.8276
15258TIP3   OH267264   3.719   5.560  13.216  0.3914 -0.1311  0.2869
15258TIP3    H167265   3.724   5.640  13.165 -0.1660  0.3785  1.0178
15258TIP3    H267266   3.804   5.518  13.203  0.4631  0.2751 -0.5817
15259TIP3   OH267267   2.276   2.889  14.163 -0.3080 -0.0150  0.7099
15259TIP3    H167268   2.220   2.948  14.112  0.1845 -0.7052 -0.6458
15259TIP3    H267269   2.224   2.871  14.242  0.4789  4.0470  2.3172
15260TIP3   OH267270   0.976   0.162   2.977  0.1159  0.2751 -0.2378
15260TIP3    H167271   0.884   0.183   2.958  0.2947  0.0678 -1.3978
15260TIP3    H267272   1.025   0.238   2.946  0.4399 -0.1921 -0.9007
15261TIP3   OH267273   4.291   6.308  10.586  0.3914 -0.5052  0.2294
15261TIP3    H167274   4.304   6.259  10.505  2.2473 -1.9791  1.3729
15261TIP3    H267275   4.312   6.399  10.563  2.0434 -1.0953 -0.6894
15262TIP3   OH267276   2.317   2.833   4.704  0.0508 -0.3724 -0.2079
15262TIP3    H167277   2.226   2.806   4.717  0.1186  0.0768  1.3054
15262TIP3    H267278   2.366   2.788   4.773  0.7555  0.5201 -0.1071
15263TIP3   OH267279   0.832   1.404  11.555 -0.3610 -0.5010 -0.4532
15263TIP3    H167280   0.858   1.401  11.463  0.3227 -0.8716 -0.2567
15263TIP3    H267281   0.915   1.407  11.602 -0.6444 -2.9694  0.2477
15264TIP3   OH267282   1.052   1.592  11.654 -0.2148 -0.0120  0.1231
15264TIP3    H167283   1.053   1.659  11.586  0.6633 -1.0332 -0.8818
15264TIP3    H267284   1.135   1.606  11.702 -1.4511  1.5871  1.8860
15265TIP3   OH267285   3.258   4.116   6.654 -0.6375 -0.8375  0.2102
15265TIP3    H167286   3.207   4.195   6.670  1.2012  0.3830  0.0916
15265TIP3    H267287   3.306   4.134   6.573  0.8516 -1.5382  0.9242
15266TIP3   OH267288   6.408   6.605  14.401  0.2415  0.4532  0.2377
15266TIP3    H167289   6.459   6.660  14.342 -0.6625 -0.2766 -1.2638
15266TIP3    H267290   6.368   6.667  14.463  0.0485  1.3690 -0.7965
15267TIP3   OH267291   5.790   2.873   3.268 -0.3267  0.2090 -0.6814
15267TIP3    H167292   5.759   2.913   3.350 -0.3473  3.5143 -2.2279
15267TIP3    H267293   5.873   2.833   3.292 -1.6454 -1.3077  1.5753
15268TIP3   OH267294   1.906   1.233  11.491 -0.2714 -0.1058  0.6439
15268TIP3    H167295   1.977   1.182  11.450 -0.7223 -0.5368  0.3920
15268TIP3    H267296   1.933   1.324  11.482  0.0532 -0.2473  0.1694
15269TIP3   OH267297   5.484   1.128   4.352  0.3817  0.0837 -0.2330
15269TIP3    H167298   5.510   1.119   4.444  0.5080 -1.3819 -0.3935
15269TIP3    H267299   5.551   1.185   4.314  1.6688 -1.1975  0.0597
15270TIP3   OH267300   4.186   5.475  13.850  0.0750 -0.1823  0.8126
15270TIP3    H167301   4.125   5.411  13.886  0.8282 -1.1452  0.4040
15270TIP3    H267302   4.264   5.466  13.905  0.4302 -0.0956  0.3264
15271TIP3   OH267303   6.391   0.173   0.338 -0.0421 -0.1507 -0.3624
15271TIP3    H167304   6.372   0.082   0.359 -3.5506  0.8433  1.2430
15271TIP3    H267305   6.324   0.197   0.274 -0.1492  1.7014  0.3987
15272TIP3   OH267306   6.806   4.082  15.720 -0.2523  0.1193  0.3958
15272TIP3    H167307   6.748   4.112  15.650  0.1541  0.7757  0.3307
15272TIP3    H267308   6.812   3.987  15.707  0.6440  0.3598 -1.1062
15273TIP3   OH267309   6.443   5.342  15.498 -0.2790 -0.3432  0.3476
15273TIP3    H167310   6.381   5.366  15.566 -0.3658 -0.0962  0.1828
15273TIP3    H267311   6.396   5.356  15.416 -0.0033 -0.1457  0.2217
15274TIP3   OH267312   2.316   4.532  10.590  0.3408 -0.2417  0.6242
15274TIP3    H167313   2.321   4.566  10.501  0.5887 -2.7133 -0.3384
15274TIP3    H267314   2.406   4.511  10.613  0.1094 -0.9151  0.9286
15275TIP3   OH267315   5.202   1.951   2.645 -0.1675  0.0107  0.1916
15275TIP3    H167316   5.198   1.904   2.728  0.0116 -0.6013 -0.1482
15275TIP3    H267317   5.125   2.008   2.646 -0.1630  0.0141  0.7783
15276TIP3   OH267318   3.859   1.176  13.023 -0.4997 -0.0490  0.1814
15276TIP3    H167319   3.771   1.188  12.989 -0.1413  1.6514 -0.2088
15276TIP3    H267320   3.910   1.246  12.982  0.4721  0.5663  2.3497
15277TIP3   OH267321   3.835   4.682   3.681 -0.4257  0.3123  0.6728
15277TIP3    H167322   3.878   4.645   3.604  0.2995  2.3959  0.0415
15277TIP3    H267323   3.905   4.723   3.731 -1.3088  1.5224  0.9471
15278TIP3   OH267324   4.829   5.649  12.258  0.3120  0.2305 -0.3342
15278TIP3    H167325   4.819   5.588  12.185 -0.6975 -1.6559  1.3442
15278TIP3    H267326   4.744   5.646  12.303  1.1532  0.8362  1.3133
15279TIP3   OH267327   2.366   0.121   1.406 -0.1980 -0.1442 -0.1447
15279TIP3    H167328   2.398   0.087   1.322  2.3528 -1.6374  1.3489
15279TIP3    H267329   2.406   0.208   1.414  0.2260 -0.3416 -0.1144
15280TIP3   OH267330   6.675   0.293  16.539  0.1044 -0.3806  0.0524
15280TIP3    H167331   6.653   0.299  16.446  1.0170  0.3331 -0.1217
15280TIP3    H267332   6.760   0.249  16.541  1.2733  1.8180  0.3786
15281TIP3   OH267333   0.031   0.774  11.950 -0.6854  0.0835  0.7221
15281TIP3    H167334   0.010   0.728  11.868 -0.6162  2.9205 -0.9441
15281TIP3    H267335   0.100   0.836  11.926 -1.0782  1.3835  2.8086
15282TIP3   OH267336   2.568   3.918   1.697 -0.0975  0.1082  0.3559
15282TIP3    H167337   2.497   3.904   1.760 -0.1895  1.9357  0.6882
15282TIP3    H267338   2.592   4.010   1.708  0.8653  0.0717 -1.2751
15283TIP3   OH267339   3.298   6.175  10.479  0.1857 -0.1738  0.7993
15283TIP3    H167340   3.383   6.153  10.516  0.2424 -0.1913  0.6547
15283TIP3    H267341   3.306   6.156  10.386  0.4034  0.9466  0.5826
15284TIP3   OH267342   4.704   2.306   4.540 -0.4888  0.2842  0.4195
15284TIP3    H167343   4.642   2.378   4.554  0.0915  1.2839 -1.8273
15284TIP3    H267344   4.685   2.243   4.609 -2.1794  1.8249  1.3841
15285TIP3   OH267345   3.251   0.905   3.652 -0.0449  0.0915 -0.1176
15285TIP3    H167346   3.321   0.902   3.718  1.0391 -1.4828 -1.2827
15285TIP3    H267347   3.173   0.876   3.698  0.4995 -0.0247  0.7413
15286TIP3   OH267348   2.391   6.549   0.094  0.1568  0.0528  0.7688
15286TIP3    H167349   2.423   6.480   0.037 -2.4687  0.7536 -1.6552
15286TIP3    H267350   2.339   6.504   0.160  0.9732 -0.5150  1.0380
15287TIP3   OH267351   6.324   3.401   0.409  0.0643  0.0860  0.3130
15287TIP3    H167352   6.406   3.352   0.404 -0.2324 -0.3560 -0.2572
15287TIP3    H267353   6.259   3.344   0.369 -0.2696  0.9779 -0.4308
15288TIP3   OH267354   2.330   1.640  14.721  0.5328 -0.5010 -0.3883
15288TIP3    H167355   2.408   1.684  14.756  0.2238 -3.1461  3.8993
15288TIP3    H267356   2.256   1.684  14.762 -0.0166 -1.4873 -0.3006
15289TIP3   OH267357   3.056   6.489  11.866 -0.1365  0.2513 -0.1716
15289TIP3    H167358   3.090   6.404  11.838 -0.4447 -0.0049  0.2251
15289TIP3    H267359   3.059   6.485  11.962 -1.3778  0.1787 -0.1252
15290TIP3   OH267360   1.864   2.047   0.740  0.3546  0.2091  0.0452
15290TIP3    H167361   1.933   1.988   0.770  0.3341 -0.2287 -0.7437
15290TIP3    H267362   1.784   1.994   0.747  0.0201  0.8864  1.4548
15291TIP3   OH267363   5.331   5.878  11.786  0.1120 -0.3844  0.1894
15291TIP3    H167364   5.389   5.845  11.855 -0.8980  0.5352  1.5217
15291TIP3    H267365   5.244   5.846  11.811 -0.4286  0.8651 -0.0757
15292TIP3   OH267366   2.296   3.999  16.089 -0.2908 -0.3178 -0.2794
15292TIP3    H167367   2.379   4.028  16.053 -0.2017 -0.7339 -0.4169
15292TIP3    H267368   2.230   4.043  16.036 -0.2015  2.6358  1.9156
15293TIP3   OH267369   5.941   4.633  10.356 -0.1115  0.1484 -0.0385
15293TIP3    H167370   6.006   4.578  10.312  1.3037  2.5276 -1.0183
15293TIP3    H267371   5.979   4.650  10.442  0.7097  1.6664 -0.6665
15294TIP3   OH267372   0.385   6.542   4.708  0.2499 -0.8982  0.3665
15294TIP3    H167373   0.334   6.467   4.679  2.6420 -2.2041 -0.5427
15294TIP3    H267374   0.365   6.550   4.802 -0.4878 -2.2662  0.3283
15295TIP3   OH267375   0.227   0.813   3.427 -0.0824  0.1150  0.0064
15295TIP3    H167376   0.276   0.820   3.345  0.3760 -1.5201  0.1188
15295TIP3    H267377   0.145   0.771   3.402  0.0060 -0.2698  0.3656
15296TIP3   OH267378   5.907   5.267  16.947  0.0395 -0.0563  0.1796
15296TIP3    H167379   5.842   5.266  16.878  0.6145  0.6188 -0.3871
15296TIP3    H267380   5.863   5.309  17.021 -0.5222 -0.6275  0.1661
15297TIP3   OH267381   0.378   6.588  16.715 -0.1354 -0.0741 -0.5174
15297TIP3    H167382   0.322   6.663  16.737  0.3288  0.3861 -0.9155
15297TIP3    H267383   0.375   6.533  16.793 -0.0418  0.6226 -0.0181
15298TIP3   OH267384   3.745   4.216   5.906 -0.0298 -0.0747 -0.5212
15298TIP3    H167385   3.770   4.166   5.984  0.3926  3.0317  1.4237
15298TIP3    H267386   3.816   4.200   5.844  1.1583 -0.2582  0.8376
15299TIP3   OH267387   3.187   4.082  16.645 -0.2272  0.0675 -0.0014
15299TIP3    H167388   3.213   4.017  16.580 -0.7466 -2.4211  2.2023
15299TIP3    H267389   3.266   4.098  16.696 -0.4215  0.1972  0.2621
15300TIP3   OH267390   0.197   1.881  13.328  0.0640 -0.3517 -0.2189
15300TIP3    H167391   0.246   1.892  13.246  0.4892 -1.5299 -0.1454
15300TIP3    H267392   0.263   1.890  13.396 -0.1547 -0.0996 -0.0436
15301TIP3   OH267393   0.946   6.010  17.172 -0.6865  0.3697 -0.0374
15301TIP3    H167394   0.962   6.087  17.118 -1.7692  0.1523 -0.6786
15301TIP3    H267395   0.939   5.937  17.110 -0.2590 -0.1505  0.5212
15302TIP3   OH267396   5.754   6.147  11.301 -0.0022 -0.6883  0.2405
15302TIP3    H167397   5.659   6.157  11.293 -0.1289  0.0874  2.4107
15302TIP3    H267398   5.789   6.173  11.215 -1.6616  0.0962 -0.2060
15303TIP3   OH267399   4.890   5.063  11.266 -0.1507  0.1310 -0.2453
15303TIP3    H167400   4.830   4.991  11.246 -0.4779 -0.2720  2.0727
15303TIP3    H267401   4.834   5.132  11.299  0.4155  0.6107 -0.2873
15304TIP3   OH267402   3.260   3.004   4.568  0.1592 -0.6906 -0.8563
15304TIP3    H167403   3.265   3.037   4.478 -0.6972  0.3040 -0.5454
15304TIP3    H267404   3.348   3.020   4.604  0.0352  0.3810 -1.0107
15305TIP3   OH267405   6.157   1.535  16.874 -0.6768 -1.0575  0.4498
15305TIP3    H167406   6.118   1.449  16.862 -0.8372 -0.9417  0.1331
15305TIP3    H267407   6.228   1.539  16.810 -0.6392 -0.9706  0.4965
15306TIP3   OH267408   2.021   4.808   3.542 -0.0708  0.2993 -0.2947
15306TIP3    H167409   1.943   4.807   3.598  0.2963 -1.0717  0.2216
15306TIP3    H267410   1.993   4.852   3.462 -1.6016 -0.8931 -0.4354
15307TIP3   OH267411   4.434   6.573   3.490 -0.0796 -0.0144 -0.4559
15307TIP3    H167412   4.419   6.482   3.466 -2.0818  0.6992 -2.0379
15307TIP3    H267413   4.511   6.599   3.439  0.5976 -0.8492  0.1271
15308TIP3   OH267414   5.489   2.722  15.510 -0.0983  0.0666  0.0995
15308TIP3    H167415   5.576   2.760  15.520  0.0831 -0.2797 -0.1637
15308TIP3    H267416   5.504   2.637  15.469 -0.6935  0.8724 -1.8861
15309TIP3   OH267417   1.676   2.488   1.031  0.6576 -0.0880 -0.0415
15309TIP3    H167418   1.598   2.496   0.977  1.0868  1.7051 -0.4495
15309TIP3    H267419   1.720   2.410   0.999 -0.5650 -0.6722 -0.3308
15310TIP3   OH267420   1.191   0.359  11.873  0.7370  0.3394 -0.1651
15310TIP3    H167421   1.098   0.380  11.888  1.0495  1.9117 -0.2669
15310TIP3    H267422   1.199   0.267  11.897 -1.2906 -0.3974 -2.1190
15311TIP3   OH267423   0.721   2.456  13.160 -0.3863  0.0945  0.0161
15311TIP3    H167424   0.626   2.453  13.170 -0.2353 -0.5348  1.4267
15311TIP3    H267425   0.744   2.548  13.175 -0.4146 -0.3888  3.6834
15312TIP3   OH267426   3.501   0.802  12.451  0.5642  0.3416 -0.1996
15312TIP3    H167427   3.428   0.858  12.427  1.0405  0.3963 -1.5436
15312TIP3    H267428   3.470   0.754  12.528  0.5297  3.2311  1.6662
15313TIP3   OH267429   3.272   6.346   0.033  0.0535  0.2759  0.0062
15313TIP3    H167430   3.340   6.321   0.096  0.2355 -1.8077 -0.9653
15313TIP3    H267431   3.190   6.317   0.073  0.0889 -0.2794 -0.3096
15314TIP3   OH267432   3.439   6.050   1.853 -0.2219 -0.0024  0.0939
15314TIP3    H167433   3.390   6.124   1.887 -0.6088  0.2317 -0.9546
15314TIP3    H267434   3.383   5.974   1.869 -1.2637  0.3573 -1.7525
15315TIP3   OH267435   5.216   5.616   0.255  0.3226  0.7512 -0.5443
15315TIP3    H167436   5.163   5.663   0.320  0.1226  1.0947 -0.9574
15315TIP3    H267437   5.274   5.560   0.308 -0.7812  0.0118 -0.1044
15316TIP3   OH267438   0.278   2.611  14.982  0.3323 -0.2451  0.1849
15316TIP3    H167439   0.309   2.634  14.894  1.7158  1.0434  0.9947
15316TIP3    H267440   0.342   2.548  15.014  0.7094  0.4926  0.8829
15317TIP3   OH267441   1.255   6.309   0.541 -0.2917  0.4638  0.3348
15317TIP3    H167442   1.212   6.392   0.523 -2.2827 -1.0719 -2.2124
15317TIP3    H267443   1.184   6.248   0.560  1.1392 -0.7333  2.0707
15318TIP3   OH267444   6.726   2.331   4.927  0.1248 -0.2051  0.2479
15318TIP3    H167445   6.637   2.361   4.909  0.7144  0.9049 -0.8861
15318TIP3    H267446   6.770   2.336   4.843  1.9799  1.7596  1.2976
15319TIP3   OH267447   4.663   4.262  14.164 -0.9371  0.1960 -0.1510
15319TIP3    H167448   4.660   4.193  14.230 -0.3837  1.0350  0.7661
15319TIP3    H267449   4.649   4.343  14.214  5.5349  1.5048 -0.0286
15320TIP3   OH267450   1.957   3.829  16.129  0.2663 -0.0203 -0.1127
15320TIP3    H167451   1.892   3.823  16.198 -1.4854 -1.2676 -1.8157
15320TIP3    H267452   2.034   3.785  16.164 -0.1708  0.4883  1.5127
15321TIP3   OH267453   3.439   2.303   0.974 -0.2032 -0.1763  0.0200
15321TIP3    H167454   3.412   2.365   1.042 -0.2372 -0.4119  0.2231
15321TIP3    H267455   3.395   2.333   0.895 -0.0478  0.1860  0.0695
15322TIP3   OH267456   4.763   1.981   3.254 -0.0464 -0.6700  0.5929
15322TIP3    H167457   4.759   2.041   3.179 -1.1404 -0.4217  0.8331
15322TIP3    H267458   4.818   1.908   3.224 -1.6831 -1.3053 -1.0010
15323TIP3   OH267459   3.450   6.241   5.469  0.0211 -0.0946  0.2809
15323TIP3    H167460   3.467   6.149   5.450  1.9328  0.6088 -1.7326
15323TIP3    H267461   3.434   6.281   5.383 -1.9196  1.2590  1.2240
15324TIP3   OH267462   2.212   2.938   2.374  0.4815  0.5200  0.6216
15324TIP3    H167463   2.205   2.942   2.279 -0.2957 -1.4358  0.5717
15324TIP3    H267464   2.300   2.971   2.393  0.0309  2.5530 -0.6144
15325TIP3   OH267465   5.814   5.334   2.809 -0.0554 -0.0589 -0.5357
15325TIP3    H167466   5.788   5.256   2.759 -1.0690  0.1239 -0.3136
15325TIP3    H267467   5.817   5.404   2.745 -2.3596  0.3900 -0.1894
15326TIP3   OH267468   1.557   5.888   1.422  0.1063  0.3094 -0.4611
15326TIP3    H167469   1.632   5.868   1.366  1.1478  1.3853  0.5268
15326TIP3    H267470   1.485   5.836   1.385  0.9259  0.5017 -2.3950
15327TIP3   OH267471   4.500   4.863   4.214  0.5696 -0.8359  0.5528
15327TIP3    H167472   4.592   4.864   4.240  1.1542 -1.2576 -1.4228
15327TIP3    H267473   4.454   4.903   4.288  2.4375  0.2681  1.1566
15328TIP3   OH267474   1.103   6.009  13.196  0.0906 -0.5038 -0.1423
15328TIP3    H167475   1.155   6.087  13.177  1.3014 -1.0665  0.7877
15328TIP3    H267476   1.125   5.948  13.125  1.1568 -0.9494  0.5570
15329TIP3   OH267477   0.049   1.973   1.065  0.9258 -0.1537  0.5683
15329TIP3    H167478   0.016   1.885   1.044 -1.8050  0.2413  2.9036
15329TIP3    H267479  -0.019   2.032   1.033  1.7212  0.9994  0.9993
15330TIP3   OH267480   3.971   4.142  17.176 -0.3577  0.4633  0.3636
15330TIP3    H167481   3.997   4.221  17.223 -0.5379  2.4330 -2.6461
15330TIP3    H267482   3.877   4.154  17.161 -0.2845 -0.0756 -0.5403
15331TIP3   OH267483   5.050   4.884  16.882 -0.2388  0.5022 -0.6016
15331TIP3    H167484   4.972   4.830  16.893 -0.3921  0.9879  0.7208
15331TIP3    H267485   5.025   4.971  16.913  0.1383  1.2435 -2.3497
15332TIP3   OH267486   6.158   2.819  17.096 -0.2186 -0.1852 -0.0426
15332TIP3    H167487   6.186   2.905  17.066 -2.7119  0.5789 -0.2593
15332TIP3    H267488   6.076   2.834  17.142 -1.0787 -2.5429 -0.7229
15333TIP3   OH267489   2.338   0.696  14.964  0.6408 -0.2525 -0.2417
15333TIP3    H167490   2.345   0.603  14.942 -1.2061 -0.5100  0.1774
15333TIP3    H267491   2.290   0.735  14.890  0.2336  0.1126  0.2105
15334TIP3   OH267492   5.639   1.528  15.665  0.4512 -0.3806 -0.2389
15334TIP3    H167493   5.686   1.554  15.585  1.3749 -0.5760  0.2343
15334TIP3    H267494   5.574   1.466  15.635  0.5339 -0.1555 -0.9003
15335TIP3   OH267495   2.574   3.895   5.255 -0.5680  0.2486 -0.3102
15335TIP3    H167496   2.568   3.802   5.276  1.7076 -0.1171 -1.0408
15335TIP3    H267497   2.652   3.925   5.302 -0.7324  1.5653 -0.8362
15336TIP3   OH267498   2.348   1.350  10.793 -0.2621 -0.2628 -0.0902
15336TIP3    H167499   2.423   1.397  10.758 -0.4618 -1.3027 -2.0103
15336TIP3    H267500   2.347   1.370  10.886  1.4827  0.9918 -0.3375
15337TIP3   OH267501   5.327   3.943   4.846  0.5312  0.8892 -0.2037
15337TIP3    H167502   5.327   3.978   4.935  1.5084 -0.3990  0.3014
15337TIP3    H267503   5.418   3.948   4.818  0.8807 -2.2334  0.2687
15338TIP3   OH267504   3.382   5.466   2.062  0.6588  0.3071 -0.0443
15338TIP3    H167505   3.294   5.482   2.094 -0.3358 -1.1395 -1.9993
15338TIP3    H267506   3.438   5.517   2.121 -1.3979  0.7044  1.6208
15339TIP3   OH267507   2.647   1.771  17.257 -0.2318 -0.2833  0.4877
15339TIP3    H167508   2.585   1.712  17.214 -2.4657  1.6973  0.9447
15339TIP3    H267509   2.652   1.739  17.347 -2.9337  1.3456  1.2537
15340TIP3   OH267510   6.463   6.386   1.134 -0.0511 -0.4064  0.1919
15340TIP3    H167511   6.543   6.334   1.137 -0.2586 -0.7836 -0.5954
15340TIP3    H267512   6.493   6.476   1.119  0.1826 -0.6639 -0.8873
15341TIP3   OH267513   1.374   3.389   5.122  0.3163  1.2202  0.0303
15341TIP3    H167514   1.381   3.381   5.027 -3.2873 -1.0969 -0.1634
15341TIP3    H267515   1.416   3.309   5.156  1.2807  1.8703  0.3817
15342TIP3   OH267516   0.958   3.723  16.377  0.1956  0.0178  0.1981
15342TIP3    H167517   0.917   3.768  16.304 -0.8081 -0.9880  0.1255
15342TIP3    H267518   0.978   3.792  16.441 -0.8383  0.6199 -0.1268
15343TIP3   OH267519   5.584   1.008  11.406  0.2170 -0.1021 -0.1584
15343TIP3    H167520   5.674   1.014  11.375 -0.1379 -1.1634 -1.4220
15343TIP3    H267521   5.533   0.984  11.329 -0.7554 -2.2912  1.1214
15344TIP3   OH267522   3.308   3.312   0.421 -0.0790  0.4217  0.1213
15344TIP3    H167523   3.262   3.255   0.482  0.6004 -0.1030  0.1564
15344TIP3    H267524   3.391   3.333   0.465  0.5623 -0.2405 -0.7563
15345TIP3   OH267525   2.822   4.861  16.453 -0.3459 -0.4114  0.2439
15345TIP3    H167526   2.913   4.874  16.481 -0.4049  1.7639 -0.4668
15345TIP3    H267527   2.823   4.779  16.404  0.6311 -1.9604  2.7658
15346TIP3   OH267528   6.151   2.777   6.023  0.2114 -0.3179 -0.2655
15346TIP3    H167529   6.096   2.784   6.101 -0.9990 -0.9986 -1.0280
15346TIP3    H267530   6.226   2.833   6.040 -0.5548  0.3397  0.9592
15347TIP3   OH267531   2.689   0.836  12.483 -0.1513  0.0235  1.0546
15347TIP3    H167532   2.739   0.755  12.487 -0.4046 -0.1537  0.6828
15347TIP3    H267533   2.610   0.813  12.434 -0.1488  0.5353  0.8102
15348TIP3   OH267534   3.554   1.596  15.746 -0.4392  0.1893  0.0774
15348TIP3    H167535   3.489   1.656  15.710 -0.4006 -0.2781 -0.7765
15348TIP3    H267536   3.517   1.566  15.829 -0.8467  0.7111  0.0852
15349TIP3   OH267537   3.865   0.645  12.614  0.3658 -0.0517  0.4795
15349TIP3    H167538   3.896   0.645  12.523  2.1249  2.1123  1.0066
15349TIP3    H267539   3.945   0.632  12.666 -0.3518  0.4727  1.7356
15350TIP3   OH267540   5.629   0.063   4.755  0.1746  0.1840  0.2352
15350TIP3    H167541   5.639   0.020   4.840 -0.7482  1.9129  1.2746
15350TIP3    H267542   5.687   0.016   4.696 -1.2510 -2.8597  1.1435
15351TIP3   OH267543   3.283   4.411  16.135  0.0216  0.8740 -0.7172
15351TIP3    H167544   3.235   4.494  16.133 -0.2099  0.7631  0.1888
15351TIP3    H267545   3.278   4.382  16.226  1.6737  0.7629 -0.6607
15352TIP3   OH267546   5.408   5.907   5.952 -0.0999  0.0380  0.0789
15352TIP3    H167547   5.480   5.917   6.015  1.2277  0.4147 -1.4592
15352TIP3    H267548   5.448   5.861   5.878 -1.4296  0.3616 -0.8466
15353TIP3   OH267549   4.526   4.720  15.011  0.2974  0.8315 -0.5573
15353TIP3    H167550   4.484   4.802  15.034 -2.2952 -0.1600 -1.5636
15353TIP3    H267551   4.513   4.712  14.916 -0.1080 -1.0357 -0.3719
15354TIP3   OH267552   5.063   2.396  14.445  0.3982 -0.5295  0.6317
15354TIP3    H167553   4.980   2.424  14.407 -0.5100 -1.4918  1.8936
15354TIP3    H267554   5.088   2.319  14.394  0.2438 -0.5704  0.6198
15355TIP3   OH267555   2.112   2.968  16.141 -0.3042  0.0818  0.9920
15355TIP3    H167556   2.166   3.047  16.141 -0.6657  0.3284  0.7097
15355TIP3    H267557   2.028   2.997  16.177 -0.2310 -0.3127  1.4798
15356TIP3   OH267558   6.581   3.429  14.129 -0.0868  0.1951 -0.5064
15356TIP3    H167559   6.669   3.433  14.092  0.4721 -1.5421  0.5813
15356TIP3    H267560   6.527   3.392  14.059  0.6467 -1.5435 -0.1711
15357TIP3   OH267561   2.648   5.398   1.787 -0.1594  0.4847  0.0631
15357TIP3    H167562   2.713   5.417   1.720  0.2494  1.2416  0.6641
15357TIP3    H267563   2.677   5.316   1.827  0.7584  1.1091  0.7130
15358TIP3   OH267564   4.945   3.681   3.692  0.4357  0.2826 -0.1577
15358TIP3    H167565   4.940   3.601   3.744  0.0427  0.9685  0.8678
15358TIP3    H267566   4.963   3.651   3.603 -0.3114 -0.9735  0.1147
15359TIP3   OH267567   3.386   3.450   4.551 -0.1849  0.4336 -0.1224
15359TIP3    H167568   3.367   3.541   4.572 -0.0693  0.5516 -0.5291
15359TIP3    H267569   3.302   3.406   4.559  0.0839  0.2179  1.8908
15360TIP3   OH267570   5.052   0.870   4.239 -0.2213  0.4055 -0.4005
15360TIP3    H167571   4.998   0.933   4.190  0.8238  0.9151 -0.9142
15360TIP3    H267572   4.998   0.791   4.242 -0.5770  0.5772 -1.8158
15361TIP3   OH267573   2.464   6.685   3.366 -0.1086  0.0925 -0.0945
15361TIP3    H167574   2.446   6.633   3.288 -0.1953  0.0765 -0.0644
15361TIP3    H267575   2.551   6.659   3.394  1.1291  2.1809 -1.8634
15362TIP3   OH267576   5.413   2.783   1.196  0.7421  0.1658  0.5099
15362TIP3    H167577   5.408   2.764   1.102 -1.5774 -4.7265  1.4809
15362TIP3    H267578   5.323   2.777   1.227  1.4622  1.7850  3.0863
15363TIP3   OH267579   6.260   4.318  14.265 -0.4418 -0.1552  0.6843
15363TIP3    H167580   6.219   4.400  14.292  0.3243  0.6061 -0.3827
15363TIP3    H267581   6.350   4.343  14.244 -0.2950 -1.2158  0.0300
15364TIP3   OH267582   3.063   3.226  16.330 -0.7819  0.4932 -0.0407
15364TIP3    H167583   2.987   3.283  16.337 -1.7039 -0.5922 -1.0741
15364TIP3    H267584   3.134   3.283  16.303 -1.2393  1.4961  0.8301
15365TIP3   OH267585   6.354   3.781  17.155 -0.2980  0.2039 -0.3439
15365TIP3    H167586   6.432   3.833  17.133 -0.5783  1.0475  0.6443
15365TIP3    H267587   6.285   3.815  17.098 -0.5397  1.0778  0.4688
15366TIP3   OH267588   2.084   3.399  14.435 -0.2235  0.3000  0.1796
15366TIP3    H167589   2.064   3.388  14.528 -1.1380 -0.3918 -0.0845
15366TIP3    H267590   2.094   3.309  14.402 -2.2462  0.4207 -0.8645
15367TIP3   OH267591   4.262   6.339  16.482 -0.4748  1.1460 -0.3390
15367TIP3    H167592   4.325   6.409  16.465  0.8434  0.4616  1.5215
15367TIP3    H267593   4.201   6.378  16.546  0.7826  0.3414  1.3841
15368TIP3   OH267594   0.093   0.247  17.065 -0.5254 -0.2302 -0.5301
15368TIP3    H167595   0.027   0.252  16.996 -0.7732 -0.6114 -0.3240
15368TIP3    H267596   0.044   0.263  17.146 -0.0166  1.5574 -0.5394
15369TIP3   OH267597   0.505   0.276  11.773  0.4469  0.6281  0.7637
15369TIP3    H167598   0.516   0.319  11.857 -1.4616 -2.4568  2.6965
15369TIP3    H267599   0.593   0.247  11.749  1.1994  2.6009  1.0547
15370TIP3   OH267600   5.472   2.418   0.551  0.1646  0.2821  0.0142
15370TIP3    H167601   5.471   2.370   0.468 -2.0907 -0.7114  0.5885
15370TIP3    H267602   5.561   2.405   0.585  0.2386 -1.6680 -0.8903
15371TIP3   OH267603   5.866   4.485   1.891 -0.2616 -0.0409 -0.3986
15371TIP3    H167604   5.813   4.469   1.969 -1.8615 -2.0911 -1.8554
15371TIP3    H267605   5.885   4.579   1.894 -2.7882  0.4651  0.9008
15372TIP3   OH267606   3.401   5.214  14.405 -0.0177  0.1404 -0.4325
15372TIP3    H167607   3.333   5.246  14.464  1.7199 -0.3333  1.8843
15372TIP3    H267608   3.443   5.292  14.370 -0.0074  0.4175  0.2038
15373TIP3   OH267609   5.666   4.722   1.187 -0.5436 -0.5017  0.5708
15373TIP3    H167610   5.604   4.654   1.212  0.0939 -1.0036  0.8080
15373TIP3    H267611   5.748   4.696   1.230 -0.5577  0.9656  1.5109
15374TIP3   OH267612   1.566   0.925   5.219  0.2348  0.6100 -0.0680
15374TIP3    H167613   1.570   1.020   5.231  1.4619  0.5507  0.1270
15374TIP3    H267614   1.658   0.899   5.209 -0.1468 -0.4569 -0.8952
15375TIP3   OH267615   2.844   1.133  12.670  0.0474  0.1598 -0.0435
15375TIP3    H167616   2.844   1.219  12.629  0.4962  0.5210  0.6994
15375TIP3    H267617   2.756   1.124  12.706 -0.8155 -0.7465 -2.2588
15376TIP3   OH267618   5.766   6.563   4.241 -0.4729 -0.1818 -0.0467
15376TIP3    H167619   5.832   6.496   4.223 -1.8177 -1.3065 -0.9210
15376TIP3    H267620   5.784   6.632   4.177 -0.3117 -0.6182 -0.4804
15377TIP3   OH267621   0.208   0.543  17.156 -0.2175  0.1162 -0.2436
15377TIP3    H167622   0.192   0.631  17.190  0.2507  0.1023  0.0191
15377TIP3    H267623   0.153   0.486  17.212 -0.2925  0.2079 -0.2234
15378TIP3   OH267624   1.154   6.664  14.514  0.1122  0.1995 -0.1070
15378TIP3    H167625   1.181   6.672  14.605  1.1847  1.1388 -0.4915
15378TIP3    H267626   1.058   6.672  14.516  0.0387 -0.8174  1.0309
15379TIP3   OH267627   3.824   0.506   2.448 -0.5283  0.3910  0.1694
15379TIP3    H167628   3.731   0.522   2.466 -0.3445 -0.0307  1.5348
15379TIP3    H267629   3.826   0.479   2.356 -1.5728  1.8826 -0.3268
15380TIP3   OH267630   3.854   1.203  17.062 -0.0835  0.7066  0.2455
15380TIP3    H167631   3.889   1.291  17.073  0.3136  0.7443 -1.2337
15380TIP3    H267632   3.767   1.216  17.024 -0.2230  0.4664  0.4766
15381TIP3   OH267633   0.977   0.255   1.108  0.2402  0.2092  0.7392
15381TIP3    H167634   0.897   0.288   1.149  0.0716 -0.1808  0.7303
15381TIP3    H267635   1.047   0.277   1.170  0.3423  1.9194  0.0457
15382TIP3   OH267636   2.216   2.968  15.182  0.0554 -0.5337 -0.1593
15382TIP3    H167637   2.138   2.912  15.173 -0.8179  0.8143 -1.1212
15382TIP3    H267638   2.268   2.925  15.250 -0.7430 -2.3539 -0.6470
15383TIP3   OH267639   6.192   1.193   2.885  0.1573  0.1764  0.3699
15383TIP3    H167640   6.234   1.164   2.966  2.0445  1.8177  0.0116
15383TIP3    H267641   6.149   1.275   2.908 -0.7917 -0.2416  0.1217
15384TIP3   OH267642   6.196   5.941   0.388 -0.1892 -0.5393  0.0885
15384TIP3    H167643   6.266   5.925   0.451  0.0659  1.1301  0.2479
15384TIP3    H267644   6.119   5.960   0.441  0.0675  1.0485 -0.0658
15385TIP3   OH267645   2.727   3.840  10.880  0.5661 -0.1222  0.2123
15385TIP3    H167646   2.799   3.903  10.867  1.1037 -0.8577 -0.3751
15385TIP3    H267647   2.771   3.758  10.903  0.0058 -1.0450 -1.9253
15386TIP3   OH267648   3.968   5.975  12.099  0.1719 -0.3073 -0.4505
15386TIP3    H167649   4.025   5.963  12.175 -0.5680  2.1606  0.5437
15386TIP3    H267650   3.912   5.897  12.098  1.0616 -0.9771  0.7663
15387TIP3   OH267651   5.825   1.966  14.012  0.0261  0.5047 -0.5176
15387TIP3    H167652   5.838   1.873  14.033 -2.6540 -0.5328 -3.0509
15387TIP3    H267653   5.788   2.003  14.092  1.9696 -0.3858  0.8222
15388TIP3   OH267654   0.137   2.356  11.820  0.3272  0.4572  0.4861
15388TIP3    H167655   0.194   2.399  11.884  2.2894 -1.4698  0.0932
15388TIP3    H267656   0.196   2.331  11.748 -1.4577  0.6217 -1.0912
15389TIP3   OH267657   2.524   6.291   4.627  0.1646 -0.2223  0.0133
15389TIP3    H167658   2.578   6.222   4.665 -0.1089 -0.1757  0.4843
15389TIP3    H267659   2.477   6.329   4.701  2.1227  2.0939  0.1306
15390TIP3   OH267660   4.850   4.108  11.560 -0.8731 -0.2884 -0.9707
15390TIP3    H167661   4.901   4.076  11.635 -0.4310  0.8882 -0.7644
15390TIP3    H267662   4.873   4.200  11.552 -1.3795 -0.2536 -2.1915
15391TIP3   OH267663   1.286   4.523   2.506  0.3238 -0.3074  0.2321
15391TIP3    H167664   1.241   4.606   2.491  0.3865 -0.2639  0.2828
15391TIP3    H267665   1.309   4.491   2.419  2.4011  0.8842  0.3187
15392TIP3   OH267666   5.271   4.024  15.956  0.3103 -0.1321  0.7969
15392TIP3    H167667   5.328   4.096  15.981  0.3675 -0.4986  1.7494
15392TIP3    H267668   5.230   4.053  15.875 -0.5881  1.4915  1.7916
15393TIP3   OH267669   1.758   1.951  14.933 -0.0440 -0.1556  0.0315
15393TIP3    H167670   1.686   1.991  14.884  0.7213 -0.6695 -1.5471
15393TIP3    H267671   1.719   1.925  15.016 -1.0879  1.8345  0.2132
15394TIP3   OH267672   1.466   4.469  13.568  0.2951  0.0451  0.5691
15394TIP3    H167673   1.373   4.489  13.584  0.4759  0.4571  1.1200
15394TIP3    H267674   1.486   4.400  13.631  0.5009  0.3360  0.8261
15395TIP3   OH267675   4.404   0.689   1.160  0.6227 -0.4916  0.2757
15395TIP3    H167676   4.437   0.683   1.071  0.7261 -0.7852  0.3357
15395TIP3    H267677   4.340   0.618   1.168 -0.0188  0.0610  0.1653
15396TIP3   OH267678   1.254   2.611   5.020  0.2768  0.1658  0.1415
15396TIP3    H167679   1.315   2.614   5.094 -0.5133 -2.0608  0.9220
15396TIP3    H267680   1.188   2.547   5.046 -1.7651  1.6925 -1.1857
15397TIP3   OH267681   0.029   6.560   1.954  0.2483  0.3917  0.6313
15397TIP3    H167682   0.034   6.570   1.859 -0.2626 -1.1540  0.4262
15397TIP3    H267683  -0.000   6.645   1.986  1.1918  1.1643 -0.5228
15398TIP3   OH267684   5.794   2.603  11.263 -0.1144 -1.1703  0.2256
15398TIP3    H167685   5.794   2.616  11.168  2.8954 -0.5824  0.2386
15398TIP3    H267686   5.703   2.617  11.290 -0.6520  0.5022 -2.3299
15399TIP3   OH267687   2.086   4.031   0.322 -0.3090  0.0360  0.4645
15399TIP3    H167688   2.099   3.990   0.237 -1.7206  0.9845 -0.2511
15399TIP3    H267689   2.013   3.983   0.361  0.9704 -1.0183  1.5589
15400TIP3   OH267690   1.897   0.746  12.575  0.2407  0.4144  1.0244
15400TIP3    H167691   1.812   0.749  12.530  0.2935 -0.3478  0.8643
15400TIP3    H267692   1.874   0.746  12.668  0.1208  1.6862  1.0026
15401TIP3   OH267693   5.609   6.614   5.895  0.0720 -0.2167  0.2399
15401TIP3    H167694   5.630   6.644   5.806  0.6162 -0.1991  0.3740
15401TIP3    H267695   5.532   6.558   5.883  1.3724 -1.8533 -0.5096
15402TIP3   OH267696   1.390   3.817  12.204  0.8425 -0.5239 -0.8363
15402TIP3    H167697   1.406   3.856  12.118 -2.5820 -1.0287 -1.7798
15402TIP3    H267698   1.310   3.766  12.193 -0.1944  0.1117  2.8888
15403TIP3   OH267699   4.576   6.029  13.112  0.0425 -0.3652  0.5586
15403TIP3    H167700   4.563   6.119  13.083  1.0920  0.1190  1.5454
15403TIP3    H267701   4.633   5.990  13.044 -2.3153 -1.0129 -1.1117
15404TIP3   OH267702   4.673   4.632   5.052 -0.7143 -0.1499  0.3177
15404TIP3    H167703   4.631   4.549   5.031 -2.0992  1.0318 -1.6866
15404TIP3    H267704   4.631   4.660   5.134 -3.5543  0.7835 -1.4006
15405TIP3   OH267705   4.797   2.228   2.783 -0.3817  0.5916 -0.5218
15405TIP3    H167706   4.731   2.210   2.716 -1.2938  1.4786  0.1344
15405TIP3    H267707   4.877   2.189   2.748 -0.8087  1.1994 -2.2069
15406TIP3   OH267708   5.639   2.130  13.577  0.0237  0.3785 -0.6535
15406TIP3    H167709   5.687   2.204  13.615 -1.3576  2.2257 -2.3882
15406TIP3    H267710   5.624   2.071  13.651 -1.5727  3.3001  1.4509
15407TIP3   OH267711   4.017   5.297   0.928 -0.1073  0.2382 -0.1010
15407TIP3    H167712   4.010   5.384   0.888 -0.8320  1.0997  1.8361
15407TIP3    H267713   4.070   5.311   1.006 -0.8064 -0.9296  0.5904
15408TIP3   OH267714   1.598   4.246   6.199 -0.4488 -0.5375 -0.2329
15408TIP3    H167715   1.692   4.259   6.185 -0.3538 -1.1701 -0.1833
15408TIP3    H267716   1.559   4.254   6.112 -0.5637  1.4735 -0.0248
15409TIP3   OH267717   6.151   1.342  14.470  0.4505  0.1028  0.6003
15409TIP3    H167718   6.175   1.381  14.554 -0.5121  0.4350  0.7173
15409TIP3    H267719   6.057   1.354  14.463  0.3102 -1.1492  0.1023
15410TIP3   OH267720   1.496   5.024  15.293  0.5407  0.4066 -0.0244
15410TIP3    H167721   1.412   5.054  15.260  1.3391  3.2880  0.3893
15410TIP3    H267722   1.485   4.930  15.306 -2.1440  0.5067 -1.3097
15411TIP3   OH267723   1.845   4.831   4.440  0.7300 -0.6390 -0.1980
15411TIP3    H167724   1.868   4.738   4.432  0.2016 -0.8443  0.5764
15411TIP3    H267725   1.749   4.831   4.441  0.6912  0.1017 -2.3468
15412TIP3   OH267726   2.256   4.987   1.484  0.3375 -0.2903 -0.1971
15412TIP3    H167727   2.300   4.911   1.446 -0.9171 -0.8015 -0.6488
15412TIP3    H267728   2.327   5.045   1.511  1.3047 -1.6030  0.1121
15413TIP3   OH267729   4.619   3.999  14.268  0.7237 -1.1928  1.1897
15413TIP3    H167730   4.582   3.920  14.229  0.1204  0.4287 -1.6685
15413TIP3    H267731   4.710   4.000  14.237  0.3437 -0.0811  0.0856
15414TIP3   OH267732   0.865   5.701  12.937 -0.3433 -0.2359  0.5162
15414TIP3    H167733   0.821   5.664  12.860 -2.5182 -0.8488  2.0241
15414TIP3    H267734   0.823   5.786  12.950  1.5897  0.8897 -0.2722
15415TIP3   OH267735   5.973   1.836  14.597  0.4327  0.1852  0.3153
15415TIP3    H167736   6.047   1.869  14.649  0.2943  1.8774 -0.5289
15415TIP3    H267737   5.996   1.857  14.506 -0.2616 -0.9119 -0.1287
15416TIP3   OH267738   0.472   3.087   0.932 -0.0992  0.4019  0.2566
15416TIP3    H167739   0.494   3.012   0.876 -0.4848  1.2857 -1.0776
15416TIP3    H267740   0.430   3.149   0.874  0.2239  1.6743  1.3668
15417TIP3   OH267741   3.681   6.532  15.453  0.1182 -0.2546 -0.0691
15417TIP3    H167742   3.775   6.546  15.447  0.0211  0.1832 -0.5343
15417TIP3    H267743   3.642   6.596  15.393 -0.5592  0.6990  1.3590
15418TIP3   OH267744   1.924   0.062  13.809  0.1520  0.1977 -0.4427
15418TIP3    H167745   1.864  -0.004  13.774  1.3477 -1.0589 -0.1911
15418TIP3    H267746   2.011   0.027  13.790  0.8097  1.4775  0.1474
15419TIP3   OH267747   1.928   2.569   0.171 -0.0111 -0.5708  0.4870
15419TIP3    H167748   1.903   2.661   0.168 -0.2296 -0.6778 -1.4439
15419TIP3    H267749   1.994   2.564   0.240 -0.4168  0.9189  0.9882
15420TIP3   OH267750   3.985   0.767  14.610 -0.1740  0.5639 -0.2935
15420TIP3    H167751   3.967   0.681  14.573 -0.1958  0.2583  0.4159
15420TIP3    H267752   3.946   0.829  14.548 -0.9037  0.0292 -0.3693
15421TIP3   OH267753   5.897   0.697  16.641 -0.1004  0.1795 -0.2371
15421TIP3    H167754   5.883   0.664  16.730 -0.0543 -1.9600 -0.9817
15421TIP3    H267755   5.920   0.789  16.652 -0.3551  0.0013  1.9451
15422TIP3   OH267756   0.060   2.346  16.079  0.4499 -0.5719 -0.6077
15422TIP3    H167757   0.126   2.369  16.146 -2.3931  1.3923  1.6470
15422TIP3    H267758   0.086   2.396  16.002 -0.3145  3.0807  1.3705
15423TIP3   OH267759   0.658   0.569  13.038  0.3631  0.2728 -0.4575
15423TIP3    H167760   0.640   0.507  13.109 -2.8668  0.3597 -1.1214
15423TIP3    H267761   0.696   0.645  13.082 -1.9460  0.4747  1.2537
15424TIP3   OH267762   0.254   3.216  13.826  0.0278 -0.0227  0.6981
15424TIP3    H167763   0.318   3.156  13.865  0.0383  0.3942  1.3410
15424TIP3    H267764   0.211   3.257  13.901 -0.7387 -0.0290  0.2646
15425TIP3   OH267765   0.314   5.336   2.441  0.7259  0.2024  0.5004
15425TIP3    H167766   0.329   5.419   2.486  2.7365 -0.2969  0.8015
15425TIP3    H267767   0.318   5.270   2.510  0.0778 -0.2263  0.1297
15426TIP3   OH267768   1.616   6.222  14.959  0.1758  0.5336  0.6927
15426TIP3    H167769   1.545   6.254  14.904  0.8978  1.7059  0.4281
15426TIP3    H267770   1.687   6.203  14.899  0.1524 -0.4954  0.9752
15427TIP3   OH267771   0.961   6.010  11.841 -0.1739 -0.2201 -0.1687
15427TIP3    H167772   0.979   5.969  11.756 -0.0096  0.6040 -0.5431
15427TIP3    H267773   0.940   6.101  11.819 -0.1187 -0.0018  0.6742
15428TIP3   OH267774   4.242   4.162   2.712 -0.0328 -0.1192 -0.5367
15428TIP3    H167775   4.197   4.184   2.631 -2.0241  2.8672  1.3002
15428TIP3    H267776   4.175   4.123   2.768  1.3992 -2.4869 -0.3734
15429TIP3   OH267777   1.918   0.058  12.039  0.5639 -0.4728  0.1121
15429TIP3    H167778   1.988   0.007  12.078  2.1661  1.0620 -0.7099
15429TIP3    H267779   1.957   0.099  11.962 -0.8349  1.4980  0.3977
15430TIP3   OH267780   5.589   5.941  12.169 -0.2898  0.2079  0.3750
15430TIP3    H167781   5.663   5.998  12.148 -1.4824  1.0755 -1.6525
15430TIP3    H267782   5.617   5.854  12.141 -0.4593  0.7436 -1.5501
15431TIP3   OH267783   3.122   6.540  15.903  0.1656  0.5418 -0.2636
15431TIP3    H167784   3.174   6.490  15.967 -0.5103  0.9882  0.6474
15431TIP3    H267785   3.082   6.473  15.848 -0.9036  0.0447  1.0793
15432TIP3   OH267786   2.859   0.191  11.553  0.0702 -0.1002  0.1943
15432TIP3    H167787   2.816   0.119  11.507  1.4075 -1.2152  0.6729
15432TIP3    H267788   2.949   0.189  11.522  0.4092  0.5948  1.1310
15433TIP3   OH267789   0.698   4.329   4.906  0.2043 -0.5198 -0.0544
15433TIP3    H167790   0.788   4.332   4.876  0.9337  0.0241  2.0892
15433TIP3    H267791   0.646   4.359   4.831  1.9785  1.1870 -0.6206
15434TIP3   OH267792   6.479   1.577  11.760  0.3291 -0.0863 -0.9041
15434TIP3    H167793   6.563   1.547  11.725  0.3696  0.6676 -1.4818
15434TIP3    H267794   6.414   1.547  11.698  0.0380 -1.6853  0.1543
15435TIP3   OH267795   1.693   3.367  12.795 -0.1078  0.4497 -0.2795
15435TIP3    H167796   1.633   3.325  12.734  2.2634 -0.4501 -2.1007
15435TIP3    H267797   1.689   3.460  12.773  1.2486  0.0610 -2.3937
15436TIP3   OH267798   2.946   2.182  12.693  0.5253 -0.0246 -0.6791
15436TIP3    H167799   3.004   2.221  12.758 -1.2769  0.7081  0.5203
15436TIP3    H267800   2.951   2.088  12.710  1.0549  0.0668 -0.3275
15437TIP3   OH267801   3.805   3.033  13.029  0.2290 -0.1003 -0.3487
15437TIP3    H167802   3.725   3.007  12.983 -0.1819  1.1206 -0.3570
15437TIP3    H267803   3.815   3.126  13.007  1.6363 -0.2371 -0.3264
15438TIP3   OH267804   5.203   6.412  13.783  0.0505 -0.1891  0.0405
15438TIP3    H167805   5.245   6.473  13.844  0.3681 -0.9876  0.6201
15438TIP3    H267806   5.263   6.338  13.777 -0.7165 -0.8131 -0.0359
15439TIP3   OH267807   3.287   6.058  12.036  0.2734  0.2302  0.1137
15439TIP3    H167808   3.340   6.022  12.107  0.9294  1.3014  0.1756
15439TIP3    H267809   3.342   6.050  11.958  0.0608  0.2595 -0.0402
15440TIP3   OH267810   4.093   5.341  17.140 -0.0913  0.1676  0.5749
15440TIP3    H167811   4.074   5.434  17.143  0.5646  0.3131  0.3334
15440TIP3    H267812   4.009   5.298  17.154 -0.4711  0.7960  0.2066
15441TIP3   OH267813   6.574   1.004   3.522  0.4310  0.1191 -0.2108
15441TIP3    H167814   6.670   1.010   3.523  0.4329  0.3760 -1.1491
15441TIP3    H267815   6.551   0.978   3.611  1.3520  0.3871  0.1175
15442TIP3   OH267816   3.879   0.014   0.127 -0.1360  0.3624  0.6217
15442TIP3    H167817   3.895   0.107   0.143 -0.9666  0.4169  1.1890
15442TIP3    H267818   3.841   0.011   0.039 -0.2739  0.5761  0.6748
15443TIP3   OH267819   0.154   3.925  13.580  0.1166  0.1584 -0.3065
15443TIP3    H167820   0.105   3.855  13.623 -2.0954  0.9752 -1.4047
15443TIP3    H267821   0.244   3.912  13.608 -0.4594 -2.3576  0.5171
15444TIP3   OH267822   2.345   2.020  14.590  0.2766  0.1266 -0.1911
15444TIP3    H167823   2.274   2.070  14.630  1.4952  1.1842  0.7025
15444TIP3    H267824   2.405   2.086  14.556  1.0712 -0.7414 -0.5189
15445TIP3   OH267825   0.421   4.748   3.913 -0.5592  0.2272 -0.3135
15445TIP3    H167826   0.400   4.841   3.913 -0.2495  0.3109  1.2608
15445TIP3    H267827   0.336   4.704   3.908 -0.7113  0.5790 -0.9509
15446TIP3   OH267828   2.470   3.475   5.598 -0.6170 -0.2531  0.4013
15446TIP3    H167829   2.509   3.534   5.662 -0.0293  0.7328 -0.8465
15446TIP3    H267830   2.482   3.388   5.636 -0.1198  0.2993  1.5418
15447TIP3   OH267831   4.879   3.278   2.105 -0.1651 -0.4826 -0.8118
15447TIP3    H167832   4.940   3.206   2.092 -0.4187 -0.5439 -1.6870
15447TIP3    H267833   4.932   3.357   2.094  0.1789 -0.5233  0.4623
15448TIP3   OH267834   4.944   3.462   4.846  0.1688 -0.3748  0.2929
15448TIP3    H167835   4.989   3.397   4.901 -1.0389  0.3168  2.1767
15448TIP3    H267836   4.855   3.427   4.837 -0.1211  0.3686  0.2478
15449TIP3   OH267837   0.145   3.812  16.792 -0.3622 -0.2695  0.4476
15449TIP3    H167838   0.175   3.723  16.778  0.7337 -0.0616  1.4371
15449TIP3    H267839   0.216   3.867  16.759 -0.3425  0.2313  1.3123
15450TIP3   OH267840   2.762   5.497   1.552 -0.0612  0.4149 -0.1900
15450TIP3    H167841   2.834   5.556   1.572  0.7030 -0.8975  1.0609
15450TIP3    H267842   2.762   5.488   1.457  0.1514  1.9845 -0.3422
15451TIP3   OH267843   4.540   3.627  11.500  0.3568 -0.7073 -0.1509
15451TIP3    H167844   4.510   3.689  11.434  0.1016 -2.1116 -1.3780
15451TIP3    H267845   4.459   3.591  11.538  0.4854 -1.8065 -0.9020
15452TIP3   OH267846   1.471   1.485   1.151  0.2750  0.1417 -0.4722
15452TIP3    H167847   1.474   1.514   1.060  1.7477  2.4513  0.2780
15452TIP3    H267848   1.556   1.511   1.187  1.0635 -3.7347  0.7041
15453TIP3   OH267849   6.426   4.319   2.702  0.8989 -0.0031 -0.0470
15453TIP3    H167850   6.411   4.331   2.608  1.7320 -0.5441 -0.2573
15453TIP3    H267851   6.406   4.226   2.717  0.4975  0.1474  0.3672
15454TIP3   OH267852   1.382   3.632  16.642 -0.0913 -0.2111  0.3650
15454TIP3    H167853   1.476   3.613  16.644  0.5617  2.8495  1.9340
15454TIP3    H267854   1.371   3.693  16.570 -1.0599 -1.2709 -0.4052
15455TIP3   OH267855   5.393   3.597  11.008  0.5150  0.1212 -0.7556
15455TIP3    H167856   5.425   3.664  10.947  1.2411  0.3641 -0.1240
15455TIP3    H267857   5.392   3.516  10.957  1.9966  0.1413 -0.8349
15456TIP3   OH267858   0.121   2.673  13.488  0.3864 -0.5473 -0.1804
15456TIP3    H167859   0.217   2.675  13.488  0.3807  0.3824 -1.8554
15456TIP3    H267860   0.099   2.582  13.510  1.6298 -0.5238  1.2224
15457TIP3   OH267861   6.454   6.320  17.098 -0.2986 -0.0027 -0.3643
15457TIP3    H167862   6.424   6.238  17.059 -0.1607  1.2153 -3.2044
15457TIP3    H267863   6.430   6.387  17.033  1.0751  1.9884  1.1240
15458TIP3   OH267864   4.301   4.052  12.003 -0.1644  0.2145 -0.1834
15458TIP3    H167865   4.369   4.080  11.941  0.3909 -0.1175  0.2857
15458TIP3    H267866   4.235   4.122  11.997 -0.0271  0.2835 -1.0099
15459TIP3   OH267867   4.004   2.099   4.137  0.1266 -0.2637  0.0122
15459TIP3    H167868   4.092   2.118   4.167 -0.5766 -2.2099  3.6889
15459TIP3    H267869   4.013   2.022   4.081  0.6488 -1.6340  1.9018
15460TIP3   OH267870   5.446   2.960   5.675  0.4315 -0.9259 -0.3886
15460TIP3    H167871   5.412   2.980   5.763 -1.9653  2.6526 -2.0144
15460TIP3    H267872   5.540   2.973   5.682 -0.0258  1.9577  1.0371
15461TIP3   OH267873   0.765   1.791  14.381 -0.0214  0.6403 -1.0797
15461TIP3    H167874   0.824   1.821  14.450  1.0056 -0.4978 -1.4393
15461TIP3    H267875   0.812   1.719  14.339 -0.9008  0.8975 -2.5467
15462TIP3   OH267876   3.052   3.403  11.475 -0.7253 -0.3194 -0.1022
15462TIP3    H167877   3.001   3.360  11.543 -1.9552  1.1485 -0.0728
15462TIP3    H267878   3.036   3.351  11.396 -1.1433 -0.6732  0.2155
15463TIP3   OH267879   3.485   2.957   6.383  0.5396 -0.5027  0.1624
15463TIP3    H167880   3.524   3.040   6.411  1.0207 -0.7947  0.3643
15463TIP3    H267881   3.406   2.983   6.335  1.6632  0.1680 -1.3856
15464TIP3   OH267882   6.154   0.103  14.678  0.6934  0.2128 -1.0506
15464TIP3    H167883   6.227   0.069  14.627  0.6027 -1.5415 -0.0529
15464TIP3    H267884   6.127   0.183  14.632  0.6896 -1.2527 -3.6517
15465TIP3   OH267885   2.154   0.145   5.490  0.1121 -0.9132  0.1825
15465TIP3    H167886   2.071   0.096   5.491 -0.0200 -0.6953  0.0459
15465TIP3    H267887   2.221   0.079   5.475 -0.1217 -0.9735 -0.5978
15466TIP3   OH267888   1.661   6.004  14.712  0.0451  0.1602  0.0158
15466TIP3    H167889   1.646   5.949  14.635  0.4950  1.0047 -0.6830
15466TIP3    H267890   1.755   6.018  14.713  0.0574  0.0282  0.8168
15467TIP3   OH267891   5.877   4.412   4.585 -0.2302  0.0542  0.1643
15467TIP3    H167892   5.787   4.428   4.556 -0.3424  0.3621  0.6682
15467TIP3    H267893   5.897   4.324   4.554 -0.2528  0.4667 -1.0651
15468TIP3   OH267894   4.023   0.806  12.826  0.4355  0.0836 -0.0879
15468TIP3    H167895   3.944   0.770  12.868 -0.6815 -0.8560 -2.8848
15468TIP3    H267896   4.010   0.901  12.827 -0.2745 -0.0138  0.3530
15469TIP3   OH267897   5.711   3.993   5.494 -0.0960 -0.6409 -0.2174
15469TIP3    H167898   5.708   3.906   5.456  0.9741 -0.7486 -0.0841
15469TIP3    H267899   5.804   4.006   5.517 -0.2320  0.5450 -0.2961
15470TIP3   OH267900   4.489   6.119  14.404 -0.4567 -0.3054  1.0291
15470TIP3    H167901   4.560   6.132  14.466  0.9130 -1.7668 -0.1818
15470TIP3    H267902   4.513   6.170  14.327 -0.6398 -0.9090  0.5631
15471TIP3   OH267903   4.864   0.342   4.171  0.1064  0.3935  0.6086
15471TIP3    H167904   4.899   0.279   4.234 -0.6030 -0.3950  0.2220
15471TIP3    H267905   4.773   0.316   4.160  0.0935  0.8523 -0.3538
15472TIP3   OH267906   1.957   3.933  16.576 -0.1453  0.5100  0.1655
15472TIP3    H167907   1.873   3.892  16.598  0.1532  1.0386  2.3840
15472TIP3    H267908   1.941   4.027  16.584  0.0947  0.7110 -1.5463
15473TIP3   OH267909   3.570   0.023   2.768  0.2018 -0.0495 -0.2268
15473TIP3    H167910   3.530  -0.053   2.724 -0.1666  0.0036  0.0107
15473TIP3    H267911   3.662   0.000   2.776  0.5262  0.4496 -2.1400
15474TIP3   OH267912   5.008   5.652  17.141  0.1032 -0.2794 -0.1835
15474TIP3    H167913   5.058   5.654  17.059 -2.3619  0.9301 -1.7349
15474TIP3    H267914   4.978   5.742  17.153 -1.8861 -1.0057  0.5534
15475TIP3   OH267915   5.070   6.488   3.358 -0.2330 -0.6007  0.3040
15475TIP3    H167916   5.132   6.561   3.352  0.1116 -0.9441 -0.2888
15475TIP3    H267917   5.080   6.456   3.448  0.5185 -0.7183  0.1790
15476TIP3   OH267918   0.379   1.979  14.212  0.4002 -0.1312  0.4226
15476TIP3    H167919   0.454   1.937  14.169  0.4888  1.5034 -1.0787
15476TIP3    H267920   0.304   1.959  14.156  0.0754 -0.0308  0.8156
15477TIP3   OH267921   3.403   0.623  11.514  0.0852 -0.3276  0.2581
15477TIP3    H167922   3.497   0.644  11.510  0.3912 -1.9770 -2.4475
15477TIP3    H267923   3.360   0.694  11.468  0.0745  0.0362  0.8270
15478TIP3   OH267924   2.618   5.493   2.960  0.5987  0.0456 -0.3025
15478TIP3    H167925   2.706   5.531   2.953  0.2180  0.7923 -1.0718
15478TIP3    H267926   2.604   5.484   3.055  1.5742 -0.2486 -0.1807
15479TIP3   OH267927   3.716   4.908  14.740 -0.3768  0.4410 -0.5269
15479TIP3    H167928   3.787   4.870  14.688 -0.2339  1.5760 -1.1740
15479TIP3    H267929   3.760   4.958  14.808 -0.5585  0.5039 -0.4556
15480TIP3   OH267930   0.201   2.728  14.615 -0.0127  0.5420 -0.2210
15480TIP3    H167931   0.251   2.658  14.573 -1.0068  0.1887 -0.8290
15480TIP3    H267932   0.232   2.808  14.572 -0.1146  0.3063 -0.7381
15481TIP3   OH267933   2.556   5.501  11.295 -0.8140 -0.4279  0.4414
15481TIP3    H167934   2.622   5.437  11.323  0.4878  0.0623 -1.3882
15481TIP3    H267935   2.473   5.455  11.304 -0.2859 -0.9470  3.1198
15482TIP3   OH267936   0.391   5.715  13.339 -0.0918 -0.0191  1.0342
15482TIP3    H167937   0.482   5.743  13.343 -0.7341  2.2859  0.1025
15482TIP3    H267938   0.366   5.727  13.248 -2.4416  3.1322  1.9981
15483TIP3   OH267939   0.642   5.396  15.076  0.4047  0.5963 -0.4563
15483TIP3    H167940   0.593   5.358  15.148 -1.6237 -1.8310 -3.0552
15483TIP3    H267941   0.732   5.365  15.089 -0.1072 -0.4747  0.5644
15484TIP3   OH267942   1.793   6.631  15.469  0.5248 -0.1127 -0.2347
15484TIP3    H167943   1.743   6.643  15.550  0.5084  0.1071 -0.2797
15484TIP3    H267944   1.884   6.644  15.495  0.6464 -1.4326  0.0413
15485TIP3   OH267945   0.478   5.008  15.432 -0.0855  0.4396 -0.2983
15485TIP3    H167946   0.388   5.001  15.402 -0.0936  0.2699 -0.2354
15485TIP3    H267947   0.482   4.952  15.509  0.2182 -0.0107 -0.6386
15486TIP3   OH267948   4.377   2.085   6.397  0.0408 -0.0430  0.2265
15486TIP3    H167949   4.415   2.093   6.485  1.8028 -1.2784 -0.4018
15486TIP3    H267950   4.423   2.151   6.345 -0.8977  0.5835  0.1708
15487TIP3   OH267951   2.350   5.586  13.631 -0.4574  0.0584 -0.2800
15487TIP3    H167952   2.285   5.519  13.612  1.0314 -1.5355  0.1595
15487TIP3    H267953   2.335   5.609  13.723 -0.2821 -0.4342 -0.1281
15488TIP3   OH267954   2.443   3.960  15.831 -0.3676 -0.4994  0.5858
15488TIP3    H167955   2.376   3.915  15.780  1.5055 -1.4925 -1.0133
15488TIP3    H267956   2.509   3.894  15.850  1.0389  0.8811  0.6589
15489TIP3   OH267957   2.024   0.754   2.157  0.0704 -0.5673  0.0242
15489TIP3    H167958   2.105   0.793   2.124 -0.0532 -0.2713  0.0637
15489TIP3    H267959   2.053   0.688   2.220  0.2745 -0.0748  0.4583
15490TIP3   OH267960   2.041   0.007   2.447  0.6857 -0.1426 -0.6634
15490TIP3    H167961   2.062   0.101   2.445 -0.9557  0.2306 -1.1105
15490TIP3    H267962   2.023  -0.011   2.539  0.0475  0.2128 -0.7122
15491TIP3   OH267963   5.940   6.600  14.196 -0.0223 -0.1551  0.5754
15491TIP3    H167964   6.032   6.578  14.204  0.1297  0.5165  0.6947
15491TIP3    H267965   5.922   6.596  14.102  0.5451  1.3636  0.3922
15492TIP3   OH267966   5.068   6.076  13.910 -0.5087 -0.5813  0.5890
15492TIP3    H167967   5.139   6.014  13.890  0.6372  1.0033 -0.4410
15492TIP3    H267968   5.006   6.063  13.839  0.5413  0.6069 -0.5750
15493TIP3   OH267969   6.782   6.356  12.282 -0.1836 -0.8638  0.0324
15493TIP3    H167970   6.869   6.318  12.293 -0.0424 -0.6112 -0.2134
15493TIP3    H267971   6.761   6.343  12.189 -1.0028 -2.2042  0.3962
15494TIP3   OH267972   0.046   6.157   2.903  0.0666  0.1068 -0.2918
15494TIP3    H167973  -0.029   6.099   2.887  0.1300 -0.0545  0.0089
15494TIP3    H267974   0.098   6.151   2.822 -0.0727 -0.0331 -0.3718
15495TIP3   OH267975   2.650   6.523   2.043  0.4142  0.2247 -0.1840
15495TIP3    H167976   2.556   6.544   2.045  0.1077 -1.1800  2.3624
15495TIP3    H267977   2.689   6.585   2.105  0.8538 -0.5338  0.3048
15496TIP3   OH267978   2.775   1.784  14.119 -0.5164 -0.3650  0.0785
15496TIP3    H167979   2.812   1.867  14.151 -0.4831  0.5107 -2.1792
15496TIP3    H267980   2.681   1.802  14.113 -0.1812  0.4947 -3.2055
15497TIP3   OH267981   4.847   3.279   1.476 -0.0310  0.3533 -0.1008
15497TIP3    H167982   4.835   3.210   1.410 -1.6981 -0.5564  1.1218
15497TIP3    H267983   4.908   3.241   1.539  0.4007  0.6687 -0.3208
15498TIP3   OH267984   0.555   4.852  11.025 -0.4969  0.3155 -0.3228
15498TIP3    H167985   0.500   4.815  10.956 -0.5192 -0.4788  0.1074
15498TIP3    H267986   0.619   4.906  10.979 -2.1029  1.8654 -0.7735
15499TIP3   OH267987   3.692   6.705   1.733  0.2966 -0.0345 -0.2159
15499TIP3    H167988   3.690   6.744   1.645  1.8842 -0.3167 -0.3914
15499TIP3    H267989   3.615   6.648   1.736 -0.9869  1.6188 -0.6416
15500TIP3   OH267990   4.135   4.940  16.541 -0.1560 -0.2899  0.3400
15500TIP3    H167991   4.217   4.891  16.536 -1.2718 -2.0147 -3.1852
15500TIP3    H267992   4.156   5.024  16.501 -0.0046 -0.6239 -0.2988
15501TIP3   OH267993   4.904   5.653   2.773  1.0201  0.0582  0.5434
15501TIP3    H167994   4.854   5.678   2.851  0.7895 -0.3916  0.5462
15501TIP3    H267995   4.848   5.679   2.700  1.7807  1.6048  0.4958
15502TIP3   OH267996   0.995   2.988   4.821 -0.3342 -0.3722 -0.1944
15502TIP3    H167997   1.075   2.942   4.849 -0.1864 -0.0432 -0.0799
15502TIP3    H267998   0.992   3.067   4.875 -0.1384  0.1834 -0.9862
15503TIP3   OH267999   6.506   0.828   1.380  0.3441 -0.7484  0.8229
15503TIP3    H168000   6.488   0.850   1.288 -0.0262 -0.1414  1.0295
15503TIP3    H268001   6.598   0.805   1.382  1.0934  2.0015  0.7775
15504TIP3   OH268002   2.295   4.944   1.941 -0.2807  0.0806  0.4447
15504TIP3    H168003   2.336   4.893   1.871  0.9682  1.3732  0.2013
15504TIP3    H268004   2.283   5.031   1.902 -1.5863  0.2259  1.1336
15505TIP3   OH268005   4.755   0.040   1.427 -0.0038  0.1969  0.3047
15505TIP3    H168006   4.717  -0.003   1.351  1.3437 -1.5358  0.5813
15505TIP3    H268007   4.795   0.119   1.393 -1.1032  0.4328 -0.4720
15506TIP3   OH268008   5.594   6.299   5.966 -0.1323  0.5711 -0.2643
15506TIP3    H168009   5.647   6.266   5.893 -0.6073  0.3948 -0.5329
15506TIP3    H268010   5.504   6.287   5.937 -0.4465 -3.1073  1.8675
15507TIP3   OH268011   6.077   1.863  13.586 -0.0697 -0.4502  0.4915
15507TIP3    H168012   6.060   1.769  13.586  0.0414 -0.4760  1.7683
15507TIP3    H268013   6.015   1.899  13.650  0.3764  0.2523  0.5407
15508TIP3   OH268014   5.988   2.334   0.034  0.2463 -0.3301 -0.1132
15508TIP3    H168015   5.979   2.341   0.128 -2.9365 -0.7778 -0.3384
15508TIP3    H268016   6.028   2.417   0.007 -1.0042  0.7734  1.3689
15509TIP3   OH268017   1.451   4.976   0.517 -0.5482 -0.3502  0.1950
15509TIP3    H168018   1.546   4.971   0.504 -0.4134  0.6887  0.7924
15509TIP3    H268019   1.421   4.886   0.504  0.5925 -0.8019  0.6292
15510TIP3   OH268020   5.748   6.018   3.341 -0.4085  0.0522 -0.0169
15510TIP3    H168021   5.708   6.078   3.278 -1.8788 -1.6150 -0.7012
15510TIP3    H268022   5.766   6.072   3.418 -0.7619  1.5877 -0.9980
15511TIP3   OH268023   2.266   4.794  14.215 -0.2161 -0.0143 -0.2380
15511TIP3    H168024   2.276   4.864  14.150 -0.8522 -0.2534 -0.5988
15511TIP3    H268025   2.341   4.737  14.200 -0.7551 -0.4649 -1.2567
15512TIP3   OH268026   0.326   2.801   3.446  0.1572  0.3158  0.2666
15512TIP3    H168027   0.305   2.731   3.507 -1.5397  0.1820 -0.4645
15512TIP3    H268028   0.416   2.826   3.469  0.0542 -0.7116  1.8459
15513TIP3   OH268029   0.855   1.339  13.326 -0.3073  0.3634  0.1623
15513TIP3    H168030   0.778   1.322  13.380  0.7341 -0.8849  1.2761
15513TIP3    H268031   0.927   1.300  13.374  0.7720 -0.0422 -1.7462
15514TIP3   OH268032   4.024   0.026  13.577 -0.2299  0.5649 -0.1781
15514TIP3    H168033   3.958  -0.043  13.577 -1.9018  2.0619  3.0483
15514TIP3    H268034   4.097  -0.011  13.627 -0.8502  0.8312  0.9538
15515TIP3   OH268035   1.628   3.363  13.120  0.1519  0.3823 -0.1962
15515TIP3    H168036   1.559   3.296  13.117 -0.1789  0.6742  0.6420
15515TIP3    H268037   1.637   3.392  13.029  1.7002 -2.1929 -0.9287
15516TIP3   OH268038   2.230   0.525  11.526 -0.4459  0.4323  0.1866
15516TIP3    H168039   2.229   0.501  11.433 -0.0165  0.1754  0.2471
15516TIP3    H268040   2.139   0.549  11.546 -0.9757 -1.5199  0.2082
15517TIP3   OH268041   0.320   3.531   0.148  0.2118 -0.3163 -0.8370
15517TIP3    H168042   0.372   3.600   0.108 -1.3793  0.6601 -1.2382
15517TIP3    H268043   0.243   3.522   0.092 -0.3761 -1.3128  0.0953
15518TIP3   OH268044   4.003   1.789   1.281  0.1933  0.0798 -0.4295
15518TIP3    H168045   4.030   1.876   1.310  0.1752 -0.4063  1.0861
15518TIP3    H268046   3.907   1.791   1.285  0.2195 -0.3608  0.7170
15519TIP3   OH268047   5.554   1.072   1.066 -0.4266 -0.2189  0.0246
15519TIP3    H168048   5.536   1.041   1.155 -0.0124 -0.6287 -0.0259
15519TIP3    H268049   5.648   1.089   1.066 -1.0331  3.4660  0.7761
15520TIP3   OH268050   2.349   6.812   5.095 -0.6362  0.2082  0.8222
15520TIP3    H168051   2.277   6.866   5.127 -1.0832 -0.0330  0.2468
15520TIP3    H268052   2.365   6.845   5.006 -0.1524  0.1408  0.8806
15521TIP3   OH268053   3.868   2.500   2.736  0.0548 -0.1340  0.1694
15521TIP3    H168054   3.882   2.428   2.674 -0.4727  1.9501 -2.4159
15521TIP3    H268055   3.775   2.523   2.726  0.3934  1.3936  0.4497
15522TIP3   OH268056   3.802   5.769   0.836 -0.1040 -0.4409 -0.5521
15522TIP3    H168057   3.738   5.787   0.768 -1.6115  3.1902  1.6724
15522TIP3    H268058   3.752   5.726   0.906  0.6315 -0.8316 -0.2611
15523TIP3   OH268059   1.650   5.655   1.062 -0.3758  0.4223 -0.1197
15523TIP3    H168060   1.556   5.646   1.051 -0.2637 -1.0820 -0.0399
15523TIP3    H268061   1.682   5.683   0.976 -0.7543 -0.3311 -0.5103
15524TIP3   OH268062   6.265   2.115   5.212 -0.0082  0.4449  0.0889
15524TIP3    H168063   6.193   2.113   5.149  0.9950 -0.8446 -1.0622
15524TIP3    H268064   6.284   2.208   5.224 -1.2643  0.7628 -0.2907
15525TIP3   OH268065   5.774   4.970   2.267 -0.7714 -0.1323 -0.2557
15525TIP3    H168066   5.691   5.005   2.299 -0.8234 -1.6488  1.2808
15525TIP3    H268067   5.753   4.933   2.181 -1.1721  1.6050 -0.9224
15526TIP3   OH268068   0.502   4.496   1.489 -0.4982 -0.1358  0.0518
15526TIP3    H168069   0.474   4.426   1.431  0.7992 -0.9760  0.4134
15526TIP3    H268070   0.513   4.572   1.431 -2.4225 -0.0605 -0.2492
15527TIP3   OH268071   4.607   2.098   0.161 -0.7995 -1.1161 -0.3073
15527TIP3    H168072   4.593   2.018   0.212  1.4839 -0.2519  1.7413
15527TIP3    H268073   4.592   2.169   0.224  0.1840  0.0074 -1.3188
15528TIP3   OH268074   6.488   4.548   3.081 -0.4088  0.1287 -0.4883
15528TIP3    H168075   6.441   4.560   2.999 -0.7180 -0.0157 -0.3302
15528TIP3    H268076   6.423   4.517   3.143 -0.0867 -0.1744 -0.2970
15529TIP3   OH268077   1.656   2.798  11.274  0.4675 -0.9292  0.0052
15529TIP3    H168078   1.724   2.839  11.327  0.7598 -0.6344 -0.5933
15529TIP3    H268079   1.602   2.871  11.244  0.4505 -1.0704 -0.3043
15530TIP3   OH268080   0.444   2.363  11.747 -0.3361  0.1409 -0.3939
15530TIP3    H168081   0.513   2.298  11.735 -0.7342 -0.4117  0.2769
15530TIP3    H268082   0.440   2.410  11.664  0.7872  0.1157 -0.4659
15531TIP3   OH268083   3.617   4.432  12.706 -0.0197 -0.1640 -0.5943
15531TIP3    H168084   3.536   4.478  12.684 -0.0373 -0.4688 -1.1965
15531TIP3    H268085   3.633   4.453  12.798 -2.0885 -2.0319  0.2578
15532TIP3   OH268086   0.218   1.994  13.987 -0.3955 -0.1599 -0.2228
15532TIP3    H168087   0.216   1.976  13.894  2.3876 -1.7528 -0.0342
15532TIP3    H268088   0.139   1.952  14.022 -0.0825 -1.8668 -1.4966
15533TIP3   OH268089   0.526   6.790   1.293  0.2203  0.3783  0.1144
15533TIP3    H168090   0.590   6.839   1.241  1.3305  0.9744  1.9700
15533TIP3    H268091   0.533   6.700   1.261 -0.1809  0.9878 -1.7515
15534TIP3   OH268092   1.359   1.787  13.156 -0.2462  0.6250  0.1131
15534TIP3    H168093   1.452   1.783  13.134  0.0249  1.0678  1.1395
15534TIP3    H268094   1.357   1.807  13.250 -1.3368 -2.3712  0.7864
15535TIP3   OH268095   3.631   2.554  14.338  0.5590  0.3926  0.2165
15535TIP3    H168096   3.585   2.503  14.272  1.1377 -0.5194  0.5027
15535TIP3    H268097   3.696   2.604  14.289  1.9594 -1.3636  0.2056
15536TIP3   OH268098   2.147   0.181   5.078  0.1510  0.5920  0.1087
15536TIP3    H168099   2.059   0.175   5.115 -0.2598  1.3503 -0.7541
15536TIP3    H268100   2.159   0.274   5.060  0.9061  0.4082 -0.3306
15537TIP3   OH268101   2.566   6.027  17.181 -0.3103  0.4056  0.2265
15537TIP3    H168102   2.477   5.998  17.162 -0.5892  1.1157  0.4378
15537TIP3    H268103   2.621   5.957  17.147 -0.9045  0.5187 -1.0096
15538TIP3   OH268104   1.411   0.610  14.757 -0.0939  0.1613  0.4271
15538TIP3    H168105   1.486   0.663  14.730  0.8117 -1.7872 -1.0584
15538TIP3    H268106   1.343   0.673  14.777  2.0885  1.9991  2.2864
15539TIP3   OH268107   5.111   3.965  16.174  0.1120 -0.1109 -0.5287
15539TIP3    H168108   5.109   4.036  16.238 -0.6311 -0.1600 -0.4960
15539TIP3    H268109   5.157   4.002  16.099 -0.4841  0.4873 -0.6026
15540TIP3   OH268110   0.882   2.107   1.637  0.0522  0.5644  0.0735
15540TIP3    H168111   0.846   2.193   1.616 -0.7909  1.1191  3.5896
15540TIP3    H268112   0.815   2.045   1.606 -1.0082  1.3415  0.7566
15541TIP3   OH268113   1.134   5.490  15.555 -0.8510 -0.1261 -0.6341
15541TIP3    H168114   1.215   5.535  15.528 -0.6689 -0.4066 -0.5550
15541TIP3    H268115   1.067   5.559  15.552 -1.0560 -0.3978 -2.8486
15542TIP3   OH268116   5.768   6.044   5.519  0.2096  0.5717 -0.2132
15542TIP3    H168117   5.834   6.112   5.506  0.2751  0.2770 -1.3986
15542TIP3    H268118   5.816   5.970   5.555  0.7751 -0.1400 -2.4096
15543TIP3   OH268119   3.152   0.808  13.077  0.2452 -0.0331 -0.0391
15543TIP3    H168120   3.185   0.889  13.115  1.8032 -0.6518 -0.0396
15543TIP3    H268121   3.138   0.829  12.985 -1.3966  0.8208  0.3686
15544TIP3   OH268122   0.634   2.519  16.483  0.0851  0.2292  0.4409
15544TIP3    H168123   0.543   2.501  16.460 -0.4825  0.5739  2.3539
15544TIP3    H268124   0.666   2.576  16.412 -1.4588  0.8789  0.2568
15545TIP3   OH268125   1.723   4.128  11.483 -0.7100  0.3259  0.1425
15545TIP3    H168126   1.791   4.101  11.421 -0.4286 -0.4782  0.7816
15545TIP3    H268127   1.646   4.078  11.456 -0.6102  0.0395  0.3806
15546TIP3   OH268128   0.981   0.746   0.301  1.0735 -0.0140 -0.5242
15546TIP3    H168129   1.016   0.718   0.216  0.4730 -0.3088 -0.6731
15546TIP3    H268130   0.992   0.841   0.301  0.5757  0.0424 -1.1509
15547TIP3   OH268131   2.205   2.603   4.459  0.4696 -0.8926  0.3418
15547TIP3    H168132   2.181   2.518   4.496 -0.0825 -1.1438 -0.5983
15547TIP3    H268133   2.122   2.650   4.451  0.6885 -0.5366  0.1639
15548TIP3   OH268134   6.132   1.583  14.697  0.2442  0.7194  0.3825
15548TIP3    H168135   6.046   1.583  14.739  0.2855 -0.6167  0.4836
15548TIP3    H268136   6.144   1.673  14.667 -1.8590  0.5721 -1.0148
15549TIP3   OH268137   0.555   2.872  16.586  0.4272  0.3422 -0.1318
15549TIP3    H168138   0.639   2.916  16.574  1.6529 -1.7963  0.4214
15549TIP3    H268139   0.576   2.792  16.634 -1.8417 -0.5727 -0.5918
15550TIP3   OH268140   4.240   3.925   4.754 -0.2590  0.2241  0.6520
15550TIP3    H168141   4.299   3.879   4.813 -1.1381  0.3125  1.6104
15550TIP3    H268142   4.254   4.018   4.774 -2.1482  0.1786  2.2888
15551TIP3   OH268143   2.263   3.328   4.027  0.4365 -0.7434 -0.0164
15551TIP3    H168144   2.345   3.352   4.069  1.1476  0.1834 -1.8595
15551TIP3    H268145   2.280   3.242   3.989 -0.0093 -1.3130  1.0651
15552TIP3   OH268146   4.974   1.059   1.805 -0.0543 -0.0831  0.2290
15552TIP3    H168147   4.879   1.047   1.802  0.0860 -0.9050 -1.4705
15552TIP3    H268148   5.006   1.017   1.725  1.5167  2.1590 -0.3551
15553TIP3   OH268149   1.306   6.581  12.420  0.2211 -0.1009  0.0242
15553TIP3    H168150   1.322   6.649  12.486  1.8965 -0.0889 -0.3739
15553TIP3    H268151   1.221   6.603  12.383  0.8746  1.9395 -0.2931
15554TIP3   OH268152   6.145   3.941  16.991 -1.3438 -0.1988  0.2188
15554TIP3    H168153   6.162   4.022  16.943 -1.5059 -0.5307 -0.3997
15554TIP3    H268154   6.050   3.932  16.992 -1.3870  0.2191  1.3021
15555TIP3   OH268155   0.434   1.076  15.497  0.1967 -0.0302  0.3974
15555TIP3    H168156   0.440   0.999  15.554 -2.9982 -0.2969  0.4472
15555TIP3    H268157   0.514   1.073  15.444  0.5377 -2.8784  1.0067
15556TIP3   OH268158   4.266   3.256   2.091 -0.0837 -0.0559 -0.0075
15556TIP3    H168159   4.341   3.310   2.067 -0.2628  0.1514 -0.0986
15556TIP3    H268160   4.292   3.167   2.068  0.2035 -0.0058  0.1239
15557TIP3   OH268161   3.227   1.844   6.338  0.2430  0.5457  0.0798
15557TIP3    H168162   3.169   1.881   6.404 -0.2773  1.4716 -0.8988
15557TIP3    H268163   3.302   1.904   6.335  1.0873 -0.4355  1.0641
15558TIP3   OH268164   6.043   5.650   0.631 -0.0816 -0.2312  0.3109
15558TIP3    H168165   6.115   5.617   0.685  0.7501 -0.2346 -0.7816
15558TIP3    H268166   6.063   5.619   0.543 -1.1583  0.2099 -0.0981
15559TIP3   OH268167   4.392   4.047   1.100  0.1195 -0.0102 -0.0914
15559TIP3    H168168   4.460   4.012   1.157 -0.5236 -0.8638  0.1554
15559TIP3    H268169   4.333   4.094   1.159 -0.1199 -0.2307 -0.1531
15560TIP3   OH268170   3.861   3.826   3.278 -0.0127  0.3078 -0.5953
15560TIP3    H168171   3.928   3.778   3.229  0.6993 -1.8580  2.3592
15560TIP3    H268172   3.889   3.917   3.275  1.5540 -0.1920 -1.7634
15561TIP3   OH268173   2.891   5.145   0.301 -0.1321  0.1670 -0.2064
15561TIP3    H168174   2.915   5.080   0.367  0.0843  1.0122  0.5617
15561TIP3    H268175   2.795   5.148   0.303 -0.1190  0.3406  0.2266
15562TIP3   OH268176   2.140   5.197  15.611 -0.0567 -0.0699  0.3271
15562TIP3    H168177   2.062   5.144  15.628 -0.6288  0.7982  0.4716
15562TIP3    H268178   2.148   5.199  15.516 -0.3882  0.0818  0.3001
15563TIP3   OH268179   6.586   5.409   4.609  0.1814 -0.3717 -0.3345
15563TIP3    H168180   6.499   5.402   4.648  0.3774 -0.6584  0.0662
15563TIP3    H268181   6.629   5.479   4.658 -0.2249  0.5605 -1.3170
15564TIP3   OH268182   1.317   1.933   4.544 -0.5259  0.2688  0.0499
15564TIP3    H168183   1.353   1.891   4.622  1.9834  0.4066 -1.0035
15564TIP3    H268184   1.369   2.013   4.533 -1.1747  0.4987 -1.4967
15565TIP3   OH268185   4.263   1.942   4.175  0.0446  0.6398  0.4004
15565TIP3    H168186   4.255   1.927   4.081 -0.0951  2.8295  0.0604
15565TIP3    H268187   4.343   1.994   4.185 -0.0950  0.6755  1.4699
15566TIP3   OH268188   4.740   3.625  14.805 -0.2273 -0.3029 -0.0798
15566TIP3    H168189   4.801   3.553  14.793 -0.0630 -0.4531  1.6507
15566TIP3    H268190   4.693   3.605  14.886 -0.6125  1.2102  0.0951
15567TIP3   OH268191   2.233   0.783  14.728 -0.3880 -0.3649 -0.1820
15567TIP3    H168192   2.139   0.798  14.729 -0.8374 -2.9527 -0.1661
15567TIP3    H268193   2.260   0.806  14.639 -1.3568 -1.4289 -0.7621
15568TIP3   OH268194   3.478   6.349   2.593 -0.2981 -0.0188 -0.5290
15568TIP3    H168195   3.512   6.301   2.668  0.2305 -0.3643 -0.9900
15568TIP3    H268196   3.514   6.304   2.517 -0.1975  0.8104 -0.9743
15569TIP3   OH268197   6.756   5.219  15.404  0.1663 -0.8039  0.6839
15569TIP3    H168198   6.782   5.150  15.343  1.5882 -0.5042  0.9327
15569TIP3    H268199   6.806   5.296  15.376 -0.0918 -0.3427  1.4749
15570TIP3   OH268200   2.253   4.334  16.141  0.3155 -0.1889  0.2732
15570TIP3    H168201   2.340   4.329  16.179  0.5346 -1.2443 -0.3470
15570TIP3    H268202   2.266   4.313  16.048 -0.3431  1.3927 -0.2005
15571TIP3   OH268203   6.411   0.871   3.117 -0.0370  0.1826 -0.2366
15571TIP3    H168204   6.402   0.895   3.209  0.6775  1.3530 -0.4682
15571TIP3    H268205   6.325   0.835   3.094 -0.5702  0.8973  0.5922
15572TIP3   OH268206   0.879   6.721  16.715 -0.4930 -0.0476  0.5468
15572TIP3    H168207   0.837   6.807  16.710  0.0250  0.1473 -0.5321
15572TIP3    H268208   0.945   6.731  16.784  1.6823  1.3742 -1.6405
15573TIP3   OH268209   4.810   0.926  13.176 -0.0314 -0.2963 -0.3416
15573TIP3    H168210   4.817   0.858  13.108 -0.9159 -2.4764  1.6636
15573TIP3    H268211   4.900   0.936  13.209 -0.2511 -2.1709  0.8943
15574TIP3   OH268212   6.492   2.660   4.975  0.0238  0.5705 -0.0360
15574TIP3    H168213   6.515   2.581   4.927 -0.8188 -0.0749  0.6091
15574TIP3    H268214   6.569   2.679   5.029 -0.1796 -0.4379  0.6215
15575TIP3   OH268215   1.151   2.960   1.443  0.5455 -0.4404  0.2226
15575TIP3    H168216   1.137   2.923   1.356 -0.6698  2.2914 -0.8227
15575TIP3    H268217   1.068   3.005   1.463  1.6679  1.0144  1.7260
15576TIP3   OH268218   1.758   3.872   5.192 -0.3250  0.1008  0.5050
15576TIP3    H168219   1.822   3.939   5.215 -0.5474  0.7069 -0.6165
15576TIP3    H268220   1.803   3.816   5.129 -1.0881  0.8983 -0.7722
15577TIP3   OH268221   2.081   3.401   5.095 -0.2165  0.3760  0.7199
15577TIP3    H168222   2.137   3.464   5.140  0.6078 -0.2085  0.5309
15577TIP3    H268223   2.035   3.355   5.165  1.7807 -1.2017  1.0642
15578TIP3   OH268224   4.015   1.874  15.819 -0.2606 -0.2178  0.0306
15578TIP3    H168225   3.925   1.853  15.797 -0.9089  2.5811 -0.1782
15578TIP3    H268226   4.059   1.886  15.734 -0.0543 -0.1291  0.1477
15579TIP3   OH268227   2.570   5.716  15.767 -0.7225 -0.0416 -0.4085
15579TIP3    H168228   2.602   5.789  15.819  0.3322 -0.3904 -0.5512
15579TIP3    H268229   2.613   5.639  15.804 -1.7974 -0.5872 -0.2784
15580TIP3   OH268230   3.804   6.611   3.268 -0.3584  0.0574 -0.1422
15580TIP3    H168231   3.804   6.523   3.230 -0.8722  0.0737 -0.1779
15580TIP3    H268232   3.894   6.624   3.297 -0.1975 -0.3445 -0.4533
15581TIP3   OH268233   4.169   6.400  15.962  0.5569  0.0674  0.2083
15581TIP3    H168234   4.164   6.481  16.013  3.1224  0.1184  0.4731
15581TIP3    H268235   4.166   6.331  16.028 -1.1636 -0.0594  0.0173
15582TIP3   OH268236   3.145   5.544   3.849  0.8272  0.6379  0.0401
15582TIP3    H168237   3.056   5.535   3.814  1.5724  0.5978 -1.9453
15582TIP3    H268238   3.155   5.469   3.909 -0.4505  0.6176  0.2379
15583TIP3   OH268239   6.382   0.080  16.373  0.0749  0.1148 -0.0733
15583TIP3    H168240   6.456   0.037  16.331  0.5590  0.2139  0.6610
15583TIP3    H268241   6.396   0.173  16.359 -1.1224  0.0427 -1.9107
15584TIP3   OH268242   6.427   6.687   5.048  0.4719  0.3392  0.0488
15584TIP3    H168243   6.367   6.754   5.081 -0.5416 -1.1510  1.2882
15584TIP3    H268244   6.468   6.727   4.972 -1.0552  1.8956  0.0198
15585TIP3   OH268245   3.604   5.898  16.917 -0.5826 -0.0794  0.0931
15585TIP3    H168246   3.513   5.924  16.900 -0.2972 -0.0786 -1.5096
15585TIP3    H268247   3.642   5.975  16.960 -1.1018  0.2593 -0.0360
15586TIP3   OH268248   2.810   6.408  13.096 -0.4766  0.0831  0.1702
15586TIP3    H168249   2.872   6.424  13.168 -0.6524  2.1304 -0.0947
15586TIP3    H268250   2.823   6.317  13.073  0.6421 -0.2041  1.8258
15587TIP3   OH268251   4.377   2.411   4.041 -0.3063  0.3481  0.5567
15587TIP3    H168252   4.439   2.338   4.035  1.1663  1.5677  0.6928
15587TIP3    H268253   4.384   2.456   3.957 -2.1700 -0.4075 -0.0224
15588TIP3   OH268254   0.255   3.983   0.300  0.5081  0.2685  0.1343
15588TIP3    H168255   0.200   4.058   0.322  1.1031  0.5752  0.6078
15588TIP3    H268256   0.194   3.913   0.278 -0.1170 -0.0300  2.6605
15589TIP3   OH268257   5.714   0.003   1.508 -0.8021  0.3220 -0.1415
15589TIP3    H168258   5.808  -0.008   1.519 -1.1371  0.1257  2.6864
15589TIP3    H268259   5.700  -0.006   1.413  1.9158 -0.3167 -0.5126
15590TIP3   OH268260   1.537   2.885   2.644  0.2228  0.4086  0.5568
15590TIP3    H168261   1.443   2.867   2.637  0.7509 -2.3280  0.1552
15590TIP3    H268262   1.547   2.922   2.732 -1.4318  2.2483  0.0243
15591TIP3   OH268263   2.889   0.571  11.108 -0.5130  0.1325 -0.0962
15591TIP3    H168264   2.822   0.568  11.175 -0.7118 -0.0333 -0.3021
15591TIP3    H268265   2.920   0.662  11.108 -0.6707  0.1850  0.0613
15592TIP3   OH268266   1.931   1.101   4.163  0.1940 -0.2722  0.0668
15592TIP3    H168267   1.901   1.120   4.252 -0.0989 -0.6029  0.0391
15592TIP3    H268268   1.902   1.011   4.146  2.4901 -1.1359  0.5798
15593TIP3   OH268269   3.239   0.085  11.696 -0.0017  0.0745 -0.3077
15593TIP3    H168270   3.309   0.150  11.705 -0.8008  0.8778  0.2199
15593TIP3    H268271   3.166   0.134  11.658 -0.8516 -0.3422  0.7618
15594TIP3   OH268272   1.266   5.699  17.206  0.0187  0.2392  0.1021
15594TIP3    H168273   1.325   5.772  17.225  1.0628 -0.6319  0.1779
15594TIP3    H268274   1.228   5.720  17.121  0.0608  1.0323  0.2728
15595TIP3   OH268275   0.812   2.972  13.251  0.3729 -0.2359  0.0334
15595TIP3    H168276   0.734   3.015  13.216  0.7142  0.6756  0.3742
15595TIP3    H268277   0.864   2.950  13.173  0.4398  0.4479 -0.1227
15596TIP3   OH268278   6.034   2.088   0.535  0.3880  0.0807 -0.1500
15596TIP3    H168279   6.024   2.106   0.628 -0.6427 -1.7566  0.1191
15596TIP3    H268280   6.129   2.079   0.523  0.5136  0.1345  0.7613
15597TIP3   OH268281   1.103   6.003  11.288 -0.2457  0.6545 -0.7265
15597TIP3    H168282   1.165   5.946  11.242  1.1288  0.6498  1.0984
15597TIP3    H268283   1.067   5.948  11.357 -2.0418  0.7730 -1.5518
15598TIP3   OH268284   0.824   0.263  14.885 -0.4628 -0.1462  0.2110
15598TIP3    H168285   0.819   0.215  14.967 -1.8481 -1.7811 -0.8153
15598TIP3    H268286   0.755   0.330  14.892 -0.3801 -0.0901  0.4949
15599TIP3   OH268287   2.787   1.070   2.804  0.2226 -0.3783 -0.2768
15599TIP3    H168288   2.779   1.076   2.709  3.0555 -1.5785 -0.6591
15599TIP3    H268289   2.763   1.156   2.836 -3.0302 -0.6415 -1.8741
15600TIP3   OH268290   4.200   4.141   1.256  0.4513 -0.4216 -0.6301
15600TIP3    H168291   4.133   4.074   1.244  0.3668 -0.2471 -1.1800
15600TIP3    H268292   4.150   4.222   1.269  0.5520 -0.4712  0.0806
15601TIP3   OH268293   3.881   2.245  11.920  0.0290  0.5183 -0.1752
15601TIP3    H168294   3.938   2.321  11.920  0.7658 -0.0102  1.7591
15601TIP3    H268295   3.793   2.281  11.909  0.3213  1.7044  1.2081
15602TIP3   OH268296   3.783   3.668   2.500  0.1635 -0.0102 -0.0629
15602TIP3    H168297   3.819   3.579   2.503 -0.7747 -0.3345  2.4677
15602TIP3    H268298   3.720   3.671   2.572 -1.2251  2.1209 -1.3210
15603TIP3   OH268299   0.907   5.624   4.424  0.1139 -0.3767 -0.0302
15603TIP3    H168300   0.964   5.547   4.422  1.8426  0.8737  0.0861
15603TIP3    H268301   0.860   5.617   4.508  0.9305 -0.8313  0.3980
15604TIP3   OH268302   3.064   4.279  11.357 -0.3522 -0.7693  0.3518
15604TIP3    H168303   2.969   4.285  11.369 -0.3442  0.6819 -0.1609
15604TIP3    H268304   3.076   4.271  11.262  0.0489 -0.6239  0.3896
15605TIP3   OH268305   1.055   4.254   2.632  0.1285  0.1406  0.3386
15605TIP3    H168306   1.001   4.175   2.637  0.9361 -0.4096  0.5308
15605TIP3    H268307   0.997   4.325   2.659 -1.1258 -0.1275 -1.5293
15606TIP3   OH268308   1.891   4.429   3.741 -0.4870  0.2821  0.2714
15606TIP3    H168309   1.894   4.359   3.675  0.4998  0.1798  0.4204
15606TIP3    H268310   1.978   4.469   3.737 -0.5468  0.5025  1.2706
15607TIP3   OH268311   0.866   3.563   4.240 -0.1979 -0.5632 -0.2596
15607TIP3    H168312   0.883   3.473   4.211  1.5940  0.2668 -1.8545
15607TIP3    H268313   0.922   3.617   4.185 -0.0566  1.4236  1.7915
15608TIP3   OH268314   2.592   4.182   3.445  0.0106 -0.3873  0.7777
15608TIP3    H168315   2.663   4.233   3.485  2.3517 -0.2189 -3.3196
15608TIP3    H268316   2.551   4.243   3.384 -0.8935 -1.7415  0.0290
15609TIP3   OH268317   5.826   2.395   5.583  0.3872 -0.1305  0.0309
15609TIP3    H168318   5.915   2.430   5.584  0.3197  0.0575 -0.7661
15609TIP3    H268319   5.819   2.344   5.665  1.2872 -0.3150 -0.0067
15610TIP3   OH268320   0.391   1.065  14.556  0.2013 -0.5214  0.2093
15610TIP3    H168321   0.329   1.066  14.629 -0.9712 -1.3578 -0.7449
15610TIP3    H268322   0.408   1.157  14.538 -1.6516 -0.2512 -0.2345
15611TIP3   OH268323   5.674   0.376  11.317 -0.1847  0.4920  0.0646
15611TIP3    H168324   5.708   0.462  11.341 -0.4297  0.4767  0.4673
15611TIP3    H268325   5.580   0.390  11.303 -0.3352  0.1769  0.7121
15612TIP3   OH268326   2.243   0.983   1.218  0.4294  0.1905  0.0354
15612TIP3    H168327   2.225   1.021   1.133 -0.3753 -1.2584 -0.4580
15612TIP3    H268328   2.294   0.904   1.199 -0.4529 -0.5828  0.8437
15613TIP3   OH268329   4.897   4.886   1.245 -0.5511  0.3784 -0.3276
15613TIP3    H168330   4.938   4.826   1.308  0.6093  2.3457  0.8540
15613TIP3    H268331   4.878   4.965   1.296 -1.5543  1.2193 -1.9595
15614TIP3   OH268332   2.992   0.579   1.386 -0.4721 -0.2345 -0.3180
15614TIP3    H168333   3.056   0.606   1.320 -0.5587  0.0265 -0.2952
15614TIP3    H268334   2.916   0.634   1.370  0.1881  1.1660  1.2001
15615TIP3   OH268335   5.296   3.940   3.248  0.1962  0.0234  0.5300
15615TIP3    H168336   5.247   3.887   3.310  0.6633 -0.9454  0.0766
15615TIP3    H268337   5.229   3.994   3.204 -0.2579 -0.0859  1.0883
15616TIP3   OH268338   2.826   6.185   2.874  0.8695 -0.3471  0.5209
15616TIP3    H168339   2.835   6.096   2.841  0.0659 -0.7094  1.2617
15616TIP3    H268340   2.870   6.183   2.959  1.4950  0.1531  0.2103
15617TIP3   OH268341   0.612   2.520   1.797  0.1865 -0.1946 -0.3710
15617TIP3    H168342   0.705   2.539   1.799 -0.0166  1.0118 -1.3193
15617TIP3    H268343   0.604   2.444   1.739  0.7236 -1.3731  1.0650
15618TIP3   OH268344   1.379   3.294  16.861 -0.3496  0.1727 -0.4808
15618TIP3    H168345   1.309   3.233  16.838  0.8238 -1.8478  1.0833
15618TIP3    H268346   1.443   3.283  16.791 -0.4792  0.1583 -0.5999
15619TIP3   OH268347   4.142   5.731   1.586 -0.4192 -0.2027  0.2202
15619TIP3    H168348   4.150   5.821   1.619  1.0652  0.5706 -2.1643
15619TIP3    H268349   4.048   5.720   1.573 -0.4056  2.2790 -2.6991
15620TIP3   OH268350   3.516   6.215   4.146 -0.4659 -0.2495  0.3532
15620TIP3    H168351   3.423   6.206   4.167 -0.8144  1.5404 -0.3062
15620TIP3    H268352   3.555   6.133   4.175 -2.1134 -0.6962  1.3945
15621TIP3   OH268353   5.257   0.277   1.164  0.3040 -0.9063 -0.4099
15621TIP3    H168354   5.254   0.304   1.256  0.3482 -1.5497 -0.2194
15621TIP3    H268355   5.187   0.328   1.123  1.0830  0.3042 -0.2740
15622TIP3   OH268356   2.258   5.401   4.498 -0.8422  0.0590  0.0130
15622TIP3    H168357   2.167   5.415   4.473 -1.0552  0.4809  0.9875
15622TIP3    H268358   2.286   5.326   4.447 -1.5804  0.2559 -0.6831
15623TIP3   OH268359   5.556   0.800   6.236  0.0071 -0.0193  0.1312
15623TIP3    H168360   5.478   0.765   6.194  0.6143 -1.2407  0.0171
15623TIP3    H268361   5.594   0.859   6.170 -0.0183 -0.5429 -0.3510
15624TIP3   OH268362   4.826   3.376   3.475 -0.1875  0.0795 -0.0262
15624TIP3    H168363   4.828   3.281   3.487  1.8983  0.1216  0.1048
15624TIP3    H268364   4.787   3.388   3.388  0.2712 -0.9343 -0.3842
15625TIP3   OH268365   1.584   4.243   0.551  0.2206  0.1361  0.7350
15625TIP3    H168366   1.534   4.296   0.489 -1.0744  0.7774  2.2759
15625TIP3    H268367   1.653   4.203   0.499  0.6868  2.6440 -0.6398
15626TIP3   OH268368   3.222   5.280  14.976 -0.3870  0.4832  0.2857
15626TIP3    H168369   3.136   5.259  15.013 -1.6639  3.2553 -0.9615
15626TIP3    H268370   3.263   5.337  15.041 -0.0301  0.2336  0.2799
15627TIP3   OH268371   1.745   6.476   3.382 -0.2606  0.3704 -0.1812
15627TIP3    H168372   1.736   6.458   3.288 -0.3764  2.7540 -0.6573
15627TIP3    H268373   1.834   6.450   3.403  0.0530  0.6603 -1.1504
15628TIP3   OH268374   2.811   5.069  16.731 -0.0853 -0.2800  0.3608
15628TIP3    H168375   2.809   4.973  16.732 -0.2097 -0.2998 -0.9517
15628TIP3    H268376   2.819   5.092  16.638  0.0969  0.9796  0.6797
15629TIP3   OH268377   0.047   3.756  11.000  0.2836 -0.8648 -0.8089
15629TIP3    H168378   0.112   3.824  11.019 -1.5033  0.4996  0.5641
15629TIP3    H268379   0.039   3.757  10.904 -0.8882  2.0389 -0.7457
15630TIP3   OH268380   2.756   5.447  16.612 -0.1383 -0.3828 -0.1642
15630TIP3    H168381   2.682   5.406  16.567 -0.1919  0.1925 -0.6074
15630TIP3    H268382   2.731   5.446  16.704  0.2821 -2.2303 -0.0437
15631TIP3   OH268383   4.844   6.273  12.119  0.4388 -0.3390  0.8426
15631TIP3    H168384   4.820   6.212  12.189 -1.3868 -0.5125  0.0936
15631TIP3    H268385   4.773   6.337  12.118 -0.5028 -1.3419 -2.0007
15632TIP3   OH268386   3.875   3.036   6.020  0.4066 -0.6225 -0.4952
15632TIP3    H168387   3.876   3.129   5.998 -1.9244 -0.0200  1.6871
15632TIP3    H268388   3.967   3.013   6.033  0.7832  2.4640  3.0214
15633TIP3   OH268389   0.572   2.266  14.396 -0.3236 -0.4496  0.4469
15633TIP3    H168390   0.567   2.173  14.420  0.1894 -0.4784  0.4354
15633TIP3    H268391   0.631   2.305  14.460  0.2833 -0.3357 -0.1805
15634TIP3   OH268392   3.647   0.295   2.731 -0.0632  0.2261  0.0944
15634TIP3    H168393   3.574   0.302   2.669 -1.0328  0.5285  1.2585
15634TIP3    H268394   3.644   0.205   2.762  0.1518  0.1979  0.0363
15635TIP3   OH268395   2.403   5.735  14.105  0.3090 -0.0016  0.2094
15635TIP3    H168396   2.495   5.757  14.114 -0.5604  3.3960  1.4878
15635TIP3    H268397   2.379   5.694  14.188  0.6505 -1.0077 -0.1722
15636TIP3   OH268398   4.337   6.224  13.215 -0.6471  0.1627  0.4824
15636TIP3    H168399   4.270   6.207  13.281 -0.6292 -0.7328  0.2713
15636TIP3    H268400   4.363   6.138  13.183  1.1336  0.4664  1.0634
15637TIP3   OH268401   0.052   6.662  11.850 -0.4661 -0.2572 -0.6597
15637TIP3    H168402   0.141   6.627  11.835 -0.4239 -0.2934 -0.3180
15637TIP3    H268403   0.051   6.687  11.942 -0.4533  0.7746 -0.9384
15638TIP3   OH268404   3.536   6.378   2.002 -0.1231  0.0335  0.6010
15638TIP3    H168405   3.502   6.467   1.996 -1.1887 -0.1166  3.4106
15638TIP3    H268406   3.464   6.322   1.972 -0.4897 -0.0126  1.5504
15639TIP3   OH268407   4.024   4.808  11.826 -0.2613 -0.3691 -0.3128
15639TIP3    H168408   4.041   4.757  11.905 -1.1769  0.7667  0.6397
15639TIP3    H268409   4.088   4.879  11.829 -2.3616  1.5502  1.1495
15640TIP3   OH268410   4.979   2.603   3.171 -0.1367 -0.6020  0.3930
15640TIP3    H168411   5.068   2.612   3.205 -0.2539 -2.1403  1.1410
15640TIP3    H268412   4.983   2.642   3.084  1.4505 -1.2788  0.1459
15641TIP3   OH268413   6.593   6.605  15.969 -0.1427  0.3005  0.0437
15641TIP3    H168414   6.503   6.614  15.998 -0.0391  1.5061  0.0368
15641TIP3    H268415   6.626   6.695  15.964  0.6274 -0.0361 -1.3042
15642TIP3   OH268416   5.510   1.730  11.193  0.1160 -0.6519  0.1529
15642TIP3    H168417   5.414   1.730  11.200  0.0385 -0.0245 -0.7812
15642TIP3    H268418   5.527   1.753  11.101  1.1964  1.1703  0.7932
15643TIP3   OH268419   5.117   4.011  10.176  0.6139  0.1040 -0.1023
15643TIP3    H168420   5.074   4.096  10.182  0.5283 -0.0370  1.5899
15643TIP3    H268421   5.072   3.966  10.105 -0.0265  1.0873 -0.3281
15644TIP3   OH268422   4.327   0.322   5.050 -0.2322  0.0087 -0.2921
15644TIP3    H168423   4.233   0.333   5.036 -0.1576 -0.8927 -1.6057
15644TIP3    H268424   4.363   0.313   4.962  1.2823  1.7895  0.1247
15645TIP3   OH268425   3.784   6.527   5.828 -0.3865 -0.0922  0.4532
15645TIP3    H168426   3.835   6.596   5.786  1.4248 -1.2084  0.7765
15645TIP3    H268427   3.758   6.565   5.912 -0.1111  0.4822  0.2864
15646TIP3   OH268428   0.759   4.605  15.118  0.0885  0.3246 -0.8373
15646TIP3    H168429   0.728   4.593  15.028 -3.5375 -0.9635  0.4748
15646TIP3    H268430   0.781   4.516  15.147  2.4754  0.8861 -0.7941
15647TIP3   OH268431   0.966   5.524   6.770 -0.2490 -0.2170 -0.2846
15647TIP3    H168432   0.926   5.437   6.766 -2.1348  0.5333  1.4898
15647TIP3    H268433   1.058   5.508   6.794 -0.2138 -1.7849 -1.4103
15648TIP3   OH268434   3.796   3.323  16.854 -0.1543 -0.1014  0.0516
15648TIP3    H168435   3.719   3.285  16.897  0.0567  0.5525  1.0177
15648TIP3    H268436   3.861   3.253  16.856 -0.6013 -0.5344 -0.4379
15649TIP3   OH268437   2.478   6.732  15.588 -0.0801  0.2075 -0.9136
15649TIP3    H168438   2.456   6.725  15.495 -0.3014  1.4369 -0.9570
15649TIP3    H268439   2.395   6.721  15.633 -0.0487  0.1109 -0.8782
15650TIP3   OH268440   0.986   0.569   5.243  0.0477 -0.5263 -0.2474
15650TIP3    H168441   1.001   0.476   5.258  2.8286 -0.2058 -0.8466
15650TIP3    H268442   0.952   0.602   5.327  1.9998 -1.4972  0.9521
15651TIP3   OH268443   3.694   6.519   2.921  0.1403  0.0621 -0.4444
15651TIP3    H168444   3.763   6.481   2.974  0.7972  0.0396 -1.3048
15651TIP3    H268445   3.731   6.601   2.888 -0.6024  0.5481 -0.1001
15652TIP3   OH268446   1.147   3.003   4.285  0.3438 -0.3443 -0.3201
15652TIP3    H168447   1.203   3.056   4.342 -1.2671 -0.4284  1.3980
15652TIP3    H268448   1.207   2.943   4.242  1.8494  1.0487 -0.2091
15653TIP3   OH268449   1.693   1.026  11.472  0.1353  0.3127 -0.5155
15653TIP3    H168450   1.724   0.952  11.524 -0.6708  0.5903  0.3708
15653TIP3    H268451   1.768   1.086  11.468  0.7742 -0.5295 -1.2063
15654TIP3   OH268452   5.213   3.670  17.228 -0.3342 -0.0479 -0.0837
15654TIP3    H168453   5.261   3.723  17.291 -1.8441  2.2053 -0.7324
15654TIP3    H268454   5.196   3.588  17.273 -0.2001  0.9980  1.9320
15655TIP3   OH268455   6.009   5.920   0.178 -0.2648 -0.4627  0.4309
15655TIP3    H168456   6.062   5.999   0.162 -0.7786 -0.2599 -0.2997
15655TIP3    H268457   6.043   5.885   0.260  0.3836  0.1822  0.4473
15656TIP3   OH268458   5.783   4.784   6.382 -0.2349 -0.1012 -0.2997
15656TIP3    H168459   5.787   4.727   6.306 -0.0108  1.0474 -1.1623
15656TIP3    H268460   5.698   4.826   6.376 -1.0332 -1.4587  1.1644
15657TIP3   OH268461   3.447   3.910  12.346 -0.2327 -0.2835  0.4186
15657TIP3    H168462   3.474   3.827  12.386  0.2669 -0.9746 -1.3007
15657TIP3    H268463   3.355   3.896  12.322 -0.2355 -0.2416  0.4043
15658TIP3   OH268464   0.894   2.464   0.403 -0.5568  0.8787 -0.0304
15658TIP3    H168465   0.844   2.515   0.340  0.2360  0.9413 -0.6095
15658TIP3    H268466   0.972   2.516   0.420 -1.2221  1.3201  1.7486
15659TIP3   OH268467   5.725   0.718   1.940  0.4890 -0.4045  0.5697
15659TIP3    H168468   5.770   0.800   1.962  1.2535 -0.7813  0.4447
15659TIP3    H268469   5.720   0.671   2.023 -0.6964  0.1190  0.8047
15660TIP3   OH268470   1.416   0.453   2.349 -0.2831  0.2581  0.0666
15660TIP3    H168471   1.428   0.394   2.274  0.4058 -0.2069  0.5364
15660TIP3    H268472   1.475   0.526   2.332 -2.1662  1.5196 -1.2135
15661TIP3   OH268473   1.368   0.056   6.832 -0.6308  0.2496 -0.0586
15661TIP3    H168474   1.399   0.023   6.748 -0.8264  0.3006 -0.1520
15661TIP3    H268475   1.407   0.143   6.840 -0.3517  0.1148  0.0521
15662TIP3   OH268476   3.800   6.645   4.423  1.0313  0.2104 -0.1109
15662TIP3    H168477   3.822   6.592   4.346  0.4917 -0.4769  0.2099
15662TIP3    H268478   3.707   6.631   4.436  0.6677  2.0112 -0.6134
15663TIP3   OH268479   6.435   1.000   1.143 -0.0339  0.3615  0.2501
15663TIP3    H168480   6.382   1.068   1.184 -0.3688 -0.0536  0.5268
15663TIP3    H268481   6.526   1.029   1.154 -0.2737  2.2428 -2.3510
15664TIP3   OH268482   5.039   6.800  16.262 -0.1426  0.2145 -0.1656
15664TIP3    H168483   5.044   6.860  16.336 -1.6175  1.0969 -0.7733
15664TIP3    H268484   5.082   6.847  16.190  1.7176 -0.8299  0.2228
15665TIP3   OH268485   1.543   4.102   4.093  0.0995 -0.3127  0.0036
15665TIP3    H168486   1.529   4.011   4.068  0.2948 -0.2663 -0.2684
15665TIP3    H268487   1.501   4.153   4.023  1.4738 -0.1724 -0.7342
15666TIP3   OH268488   4.678   1.342   3.051  0.1498  0.1317 -0.1620
15666TIP3    H168489   4.620   1.413   3.078 -1.1017 -0.5892 -0.8624
15666TIP3    H268490   4.639   1.264   3.089  0.5343 -0.3932 -0.8273
15667TIP3   OH268491   2.237   1.615   1.731 -0.1171  0.5133 -0.2147
15667TIP3    H168492   2.228   1.630   1.636  1.0898  1.4127 -0.1957
15667TIP3    H268493   2.325   1.580   1.741 -0.4020  0.0150  0.5374
15668TIP3   OH268494   1.929   3.081  16.856 -0.3106  0.1222  0.1268
15668TIP3    H168495   1.946   3.081  16.950  0.2829  0.0256  0.0199
15668TIP3    H268496   1.965   2.997  16.826  1.0317  0.9039 -0.4704
15669TIP3   OH268497   4.510   0.028  13.499  0.5721 -0.0545  0.0022
15669TIP3    H168498   4.538   0.108  13.544  2.4665 -1.2045  0.9176
15669TIP3    H268499   4.463   0.060  13.421  0.3572  1.9408  0.9218
15670TIP3   OH268500   6.593   1.775  12.132  0.9305  0.4720  0.1517
15670TIP3    H168501   6.646   1.837  12.082  0.0899  1.2565  0.2206
15670TIP3    H268502   6.654   1.705  12.156  2.1477  1.7803  0.9780
15671TIP3   OH268503   6.789   5.875  17.154  0.0808 -0.4307  0.5504
15671TIP3    H168504   6.761   5.806  17.093 -0.5560 -0.2189  0.6070
15671TIP3    H268505   6.776   5.956  17.106  2.4711 -0.4379 -0.1602
15672TIP3   OH268506   4.627   1.175  15.943 -0.1041 -0.6274  0.1057
15672TIP3    H168507   4.609   1.155  15.851 -1.2727 -1.0063  0.4036
15672TIP3    H268508   4.572   1.113  15.992  0.8661 -0.7442  1.0568
15673TIP3   OH268509   1.543   6.716  13.496 -0.5392  0.3455  0.3545
15673TIP3    H168510   1.529   6.665  13.416  1.0354 -1.6389  1.3111
15673TIP3    H268511   1.531   6.807  13.469 -2.4818 -0.4532 -1.5867
15674TIP3   OH268512   4.532   3.030   1.630 -0.0261 -0.1617 -0.2829
15674TIP3    H168513   4.450   3.019   1.678 -1.1123  1.7922 -1.6118
15674TIP3    H268514   4.600   3.025   1.698 -1.4313  1.2085  1.2852
15675TIP3   OH268515   4.782   2.164  15.698 -0.3727 -0.1800  0.4570
15675TIP3    H168516   4.843   2.214  15.644  0.4654 -1.4401  0.2173
15675TIP3    H268517   4.837   2.104  15.747 -1.2618 -0.0168  1.6818
15676TIP3   OH268518   1.183   0.782  14.850 -0.2696  0.0368  0.3910
15676TIP3    H168519   1.129   0.847  14.805  1.1940  1.4953  0.6931
15676TIP3    H268520   1.120   0.717  14.882 -1.6532  0.7467 -0.8287
15677TIP3   OH268521   2.401   3.843  11.332  0.5359 -0.1380  0.0613
15677TIP3    H168522   2.432   3.872  11.246 -0.5790  0.3542 -0.1816
15677TIP3    H268523   2.480   3.818  11.379  1.4116  2.0588 -0.1904
15678TIP3   OH268524   1.165   0.818   3.671  0.8407 -0.6533 -0.0540
15678TIP3    H168525   1.257   0.799   3.657  0.2321 -2.2260 -1.9982
15678TIP3    H268526   1.135   0.751   3.732  0.8409 -0.4706  0.1494
15679TIP3   OH268527   3.238   4.980   2.462  0.9935  0.5747  0.0909
15679TIP3    H168528   3.329   4.959   2.483  0.8683  0.3743  0.4377
15679TIP3    H268529   3.222   4.933   2.380  1.1806  0.5490  0.0677
15680TIP3   OH268530   3.631   2.738   3.802 -0.1914  0.3266  0.0533
15680TIP3    H168531   3.685   2.815   3.781  0.3962  0.0979  0.6934
15680TIP3    H268532   3.691   2.680   3.849 -0.7024 -0.4207 -0.2266
15681TIP3   OH268533   2.456   0.828  15.449  0.9053 -0.2195 -0.3814
15681TIP3    H168534   2.419   0.794  15.531 -2.8574 -0.6821 -2.1957
15681TIP3    H268535   2.455   0.753  15.389  0.5912  0.9348 -1.8360
15682TIP3   OH268536   0.092   5.131  14.928  0.2199  0.2930  0.2139
15682TIP3    H168537   0.006   5.109  14.965  0.9456 -0.3014  1.6156
15682TIP3    H268538   0.139   5.048  14.928  0.2098  0.2749 -2.1838
15683TIP3   OH268539   2.814   6.129  15.659  0.2716 -0.4412  0.1784
15683TIP3    H168540   2.857   6.090  15.735  2.6847  2.5585  0.4439
15683TIP3    H268541   2.818   6.061  15.592 -1.1871 -2.8517  2.4170
15684TIP3   OH268542   1.121   6.372  12.153 -0.3545  0.1798  0.2985
15684TIP3    H168543   1.151   6.288  12.189 -0.6703 -0.1244 -0.1388
15684TIP3    H268544   1.183   6.391  12.082 -2.5023 -1.6355 -2.2013
15685TIP3   OH268545   2.204   6.778  14.028 -0.2694  0.3582  0.6057
15685TIP3    H168546   2.164   6.826  14.101  0.3221  1.6018  0.1159
15685TIP3    H268547   2.201   6.838  13.954  2.7752  0.6403  0.6296
15686TIP3   OH268548   6.514   6.176   4.679 -0.0804 -0.0113  0.1079
15686TIP3    H168549   6.582   6.114   4.707 -1.3802 -1.1226  0.8266
15686TIP3    H268550   6.512   6.167   4.583 -0.3207 -1.1462  0.2119
15687TIP3   OH268551   1.698   2.681  15.210 -0.6428 -0.3597 -0.7858
15687TIP3    H168552   1.701   2.672  15.114 -2.1693 -3.4208 -0.6428
15687TIP3    H268553   1.769   2.625  15.241 -1.8821 -1.6157 -0.1161
15688TIP3   OH268554   6.648   6.582   0.899 -0.2339 -0.0798  0.0861
15688TIP3    H168555   6.569   6.624   0.932  0.4460  0.2766  1.2999
15688TIP3    H268556   6.626   6.556   0.809 -2.0221 -0.8031  0.7026
15689TIP3   OH268557   2.798   4.937   0.075  0.5108 -0.0014 -0.6787
15689TIP3    H168558   2.764   5.016   0.116  0.2482  0.1544 -1.2007
15689TIP3    H268559   2.867   4.907   0.134  2.1366  1.8448 -1.5822
15690TIP3   OH268560   3.203   5.437   2.714  0.3541 -0.5025  0.0020
15690TIP3    H168561   3.191   5.346   2.684 -0.3860  0.0896 -1.5623
15690TIP3    H268562   3.202   5.431   2.809  0.8103 -2.2036 -0.0774
15691TIP3   OH268563   2.103   4.397   3.288 -0.4931 -0.4244  0.0898
15691TIP3    H168564   2.040   4.410   3.217  0.0397 -0.0360 -0.3139
15691TIP3    H268565   2.057   4.342   3.352 -0.8340 -1.1222 -0.7500
15692TIP3   OH268566   5.330   3.681   0.799 -0.1993 -0.7501 -0.4566
15692TIP3    H168567   5.252   3.659   0.850  0.1756  2.0790  1.5277
15692TIP3    H268568   5.387   3.604   0.807 -2.3020 -2.3908 -0.9797
15693TIP3   OH268569   4.494   3.526   0.543  0.1680  0.3707 -0.2088
15693TIP3    H168570   4.558   3.483   0.487  0.6006 -0.1526  0.6904
15693TIP3    H268571   4.410   3.493   0.513  0.3726  0.3365 -0.7562
15694TIP3   OH268572   6.151   1.075  16.652  0.1732 -0.3607  0.3532
15694TIP3    H168573   6.181   1.001  16.600  0.5278 -0.7202  1.0562
15694TIP3    H268574   6.063   1.050  16.681 -0.0242 -0.1600 -0.0657
15695TIP3   OH268575   4.713   6.069  14.154  0.1672 -0.0385 -0.4950
15695TIP3    H168576   4.643   6.134  14.142 -0.1429 -0.2376  0.2305
15695TIP3    H268577   4.780   6.095  14.091 -0.9282 -0.3579 -1.8294
15696TIP3   OH268578   5.805   6.776   4.070 -0.2597  0.1987 -0.1254
15696TIP3    H168579   5.825   6.865   4.101 -1.6793  0.6090 -0.3315
15696TIP3    H268580   5.809   6.783   3.974  0.3245 -0.1356 -0.1272
15697TIP3   OH268581   4.511   6.305  16.259 -0.0172  0.2788 -0.5646
15697TIP3    H168582   4.561   6.358  16.197  0.2216  0.8173  0.0885
15697TIP3    H268583   4.507   6.358  16.339 -1.6635  0.2726 -0.6214
15698TIP3   OH268584   5.033   0.937   5.686  0.1736  0.2859 -0.6459
15698TIP3    H168585   4.984   1.007   5.730  3.1131  1.5528  0.7303
15698TIP3    H268586   5.108   0.981   5.647  1.8946 -2.0466 -0.0735
15699TIP3   OH268587   1.079   4.749   2.527 -0.0868  0.1629 -0.1395
15699TIP3    H168588   1.064   4.760   2.433  1.0155  2.7576 -0.0579
15699TIP3    H268589   1.002   4.788   2.568  0.2851  0.6750  0.0683
15700TIP3   OH268590   0.029   0.912   0.174  0.4918 -0.1994 -0.6974
15700TIP3    H168591   0.123   0.894   0.177  0.4188 -0.3806  1.5657
15700TIP3    H268592   0.012   0.966   0.252 -1.0672  0.8870 -1.7507
15701TIP3   OH268593   1.573   4.718   0.223 -0.6592 -0.1230 -0.0035
15701TIP3    H168594   1.537   4.759   0.145 -1.0826 -1.4598 -0.5185
15701TIP3    H268595   1.668   4.719   0.210 -0.7879 -1.4951 -1.1276
15702TIP3   OH268596   2.271   2.890  14.688  0.2078 -0.1862 -0.2126
15702TIP3    H168597   2.330   2.942  14.633  0.3088  0.3311  0.3886
15702TIP3    H268598   2.317   2.883  14.772 -0.8716  0.7675  0.4700
15703TIP3   OH268599   2.838   2.025  16.146  0.3539 -0.1491  0.3085
15703TIP3    H168600   2.925   2.059  16.129 -0.1810  1.3643  0.5500
15703TIP3    H268601   2.808   2.074  16.223 -0.7525 -0.5821  0.1611
15704TIP3   OH268602   3.448   6.555   5.583 -0.3469 -0.3382  0.0927
15704TIP3    H168603   3.509   6.628   5.582 -3.5676  2.4795 -0.1296
15704TIP3    H268604   3.473   6.502   5.507  2.3377  0.2312  0.5358
15705TIP3   OH268605   6.490   2.984  12.089 -0.2265 -0.1663  0.0510
15705TIP3    H168606   6.500   2.924  12.015 -0.6338  0.1155 -0.2354
15705TIP3    H268607   6.539   2.943  12.160  2.8941  1.0594 -1.2604
15706TIP3   OH268608   5.254   0.315  14.732  0.3170 -0.8331 -0.0058
15706TIP3    H168609   5.346   0.298  14.711  0.0968 -0.3518 -1.3899
15706TIP3    H268610   5.205   0.280  14.659 -0.4281  1.2854 -0.5620
15707TIP3   OH268611   3.518   1.839   3.541 -0.0852 -0.8013  0.0856
15707TIP3    H168612   3.564   1.877   3.466 -0.1521  1.7977  1.2989
15707TIP3    H268613   3.586   1.798   3.594  0.5934  1.2315  0.8228
15708TIP3   OH268614   6.280   1.416  12.431 -0.4822  0.1410 -0.5406
15708TIP3    H168615   6.362   1.380  12.397 -1.8060 -2.7183 -0.8666
15708TIP3    H268616   6.251   1.478  12.364 -0.0447 -0.9946 -1.8043
15709TIP3   OH268617   5.640   3.398  16.879 -0.1172  0.2565 -0.5028
15709TIP3    H168618   5.717   3.344  16.899 -0.1667  0.5686  0.5821
15709TIP3    H268619   5.611   3.368  16.793  0.9980 -0.1249 -0.7600
15710TIP3   OH268620   3.451   2.026  15.282  0.3660 -0.4094 -0.3879
15710TIP3    H168621   3.526   2.056  15.229 -0.8255  0.4672 -1.6174
15710TIP3    H268622   3.403   2.106  15.302  0.3413 -0.8407  1.3359
15711TIP3   OH268623   1.970   5.664  10.927 -0.6383 -0.3633 -0.4409
15711TIP3    H168624   2.041   5.726  10.909 -0.4136 -0.4414  0.1937
15711TIP3    H268625   1.899   5.719  10.960 -0.4755 -0.4363  0.0217
15712TIP3   OH268626   0.992   1.716  16.620  0.3551  0.3074 -0.0424
15712TIP3    H168627   0.938   1.654  16.571 -0.8139  0.5796  0.8807
15712TIP3    H268628   1.017   1.783  16.556  0.0144 -0.0885 -0.5889
15713TIP3   OH268629   3.385   0.447  16.761  0.1779  0.4869  0.1792
15713TIP3    H168630   3.440   0.496  16.823  1.0782  0.1970 -0.3822
15713TIP3    H268631   3.369   0.508  16.690  0.1279  0.4229  0.1357
15714TIP3   OH268632   4.347   5.150  12.294 -0.1445 -0.4031  0.0437
15714TIP3    H168633   4.253   5.144  12.277 -0.4080  2.1651  0.3798
15714TIP3    H268634   4.358   5.111  12.381 -0.9419 -0.4387  0.1315
15715TIP3   OH268635   2.054   3.828  12.749 -0.6375 -0.2337 -0.0545
15715TIP3    H168636   2.102   3.750  12.773 -1.0396  0.0428  1.7543
15715TIP3    H268637   2.118   3.899  12.753  0.1683 -0.6816 -3.4967
15716TIP3   OH268638   5.164   6.534   0.206  0.1742 -0.1569 -0.2978
15716TIP3    H168639   5.217   6.501   0.133  0.2851 -1.4907  0.3626
15716TIP3    H268640   5.074   6.525   0.176  0.2187 -0.7267 -0.2849
15717TIP3   OH268641   6.142   2.544   3.719  0.3908 -0.1056 -0.0156
15717TIP3    H168642   6.073   2.481   3.739 -0.9204  1.0695 -0.7362
15717TIP3    H268643   6.184   2.561   3.804  0.4211 -1.5204  0.2726
15718TIP3   OH268644   4.985   2.904   5.869  0.1720  0.4734  0.1497
15718TIP3    H168645   5.006   2.819   5.833  0.3455  0.9459 -0.8603
15718TIP3    H268646   4.961   2.886   5.960 -1.7437 -0.9036 -0.6000
15719TIP3   OH268647   5.530   0.341  14.479 -0.3561 -0.6988 -0.6314
15719TIP3    H168648   5.548   0.297  14.562  1.2378 -0.3524 -0.7636
15719TIP3    H268649   5.543   0.273  14.413  0.4522 -0.4664 -0.7219
15720TIP3   OH268650   5.077   6.255  16.755  0.0861  0.0932  0.2920
15720TIP3    H168651   4.993   6.274  16.797  0.7709 -0.7999  2.1337
15720TIP3    H268652   5.135   6.232  16.827  1.2194 -1.8134 -1.1728
15721TIP3   OH268653   0.507   4.497   2.330 -0.1671 -0.2964 -0.1066
15721TIP3    H168654   0.460   4.414   2.328 -0.8196  0.0646  0.0244
15721TIP3    H268655   0.552   4.497   2.415  0.7419 -1.0019 -0.5755
15722TIP3   OH268656   1.911   1.164  15.381  0.2095 -0.1346 -0.2919
15722TIP3    H168657   1.818   1.180  15.395  0.4987  0.3998  1.1001
15722TIP3    H268658   1.915   1.079  15.336 -0.8632 -1.0344  1.2814
15723TIP3   OH268659   5.146   0.020  14.271  0.4342 -0.3080  0.7134
15723TIP3    H168660   5.063  -0.019  14.242  0.2594 -0.0822  0.9072
15723TIP3    H268661   5.198  -0.054  14.301  0.5711 -0.5367 -0.0595
15724TIP3   OH268662   4.225   1.604  10.648  0.7127  1.0039  0.4383
15724TIP3    H168663   4.281   1.527  10.642  1.0024  1.1380  1.3942
15724TIP3    H268664   4.287   1.677  10.656  0.4424  1.3463 -0.5542
15725TIP3   OH268665   0.116   1.779   4.301  0.0665 -0.4239  0.3705
15725TIP3    H168666   0.150   1.713   4.240  0.9377  0.9763 -0.6924
15725TIP3    H268667   0.021   1.766   4.299 -0.1074  0.8165 -2.8060
15726TIP3   OH268668   0.477   3.984   4.699 -0.5653 -0.4135 -0.2157
15726TIP3    H168669   0.392   3.945   4.679 -0.8507  0.2598 -0.3271
15726TIP3    H268670   0.463   4.078   4.688  0.0358 -0.2583  0.3401
15727TIP3   OH268671   3.036   4.920  14.415  0.5339  0.0809  0.5587
15727TIP3    H168672   3.014   4.996  14.469  0.5741  0.2012  0.4076
15727TIP3    H268673   3.046   4.848  14.477 -2.3530 -0.4710  0.4373
15728TIP3   OH268674   5.715   3.822   6.308 -0.4731 -0.3291  0.2535
15728TIP3    H168675   5.805   3.792   6.322 -0.7738 -1.7581 -0.6721
15728TIP3    H268676   5.679   3.831   6.396  1.3903  2.9894  0.7529
15729TIP3   OH268677   3.199   5.620  12.512 -0.0952  0.1179  0.3558
15729TIP3    H168678   3.112   5.581  12.506 -0.1074  0.2221 -0.1979
15729TIP3    H268679   3.258   5.547  12.531 -0.2573 -0.0043  0.3816
15730TIP3   OH268680   3.331   5.792   4.491 -0.0207  0.4195 -0.0713
15730TIP3    H168681   3.248   5.821   4.453 -0.9283  1.4479  2.6020
15730TIP3    H268682   3.310   5.707   4.531  0.5720  0.0071 -0.6333
15731TIP3   OH268683   4.440   2.299   3.237 -0.3566  0.2041  0.1875
15731TIP3    H168684   4.490   2.238   3.184 -0.2649 -0.3720  0.9410
15731TIP3    H268685   4.364   2.249   3.267  0.7557 -0.1546  2.4910
15732TIP3   OH268686   4.377   5.030  13.975  0.0364  0.0484 -0.1680
15732TIP3    H168687   4.408   4.989  13.894 -0.7645 -3.4693  1.1958
15732TIP3    H268688   4.284   5.048  13.958  0.3408  1.1121 -0.7047
15733TIP3   OH268689   1.728   2.274   1.816  0.5579 -0.4498  0.7000
15733TIP3    H168690   1.701   2.346   1.759 -1.6280  0.0358  2.2998
15733TIP3    H268691   1.824   2.272   1.809  0.5332  1.7299 -0.4113
15734TIP3   OH268692   3.717   5.431  16.094  0.4037 -0.2308 -0.0032
15734TIP3    H168693   3.632   5.471  16.073 -0.7960 -2.1521  0.9608
15734TIP3    H268694   3.766   5.499  16.139 -1.3044  0.3818  0.9696
15735TIP3   OH268695   4.898   5.453  15.634  0.1010 -0.0505 -0.8058
15735TIP3    H168696   4.959   5.512  15.589  0.5578  1.3300  1.5564
15735TIP3    H268697   4.927   5.366  15.609  2.2565  0.6124 -0.7715
15736TIP3   OH268698   4.216   5.176  15.148  0.6182 -0.1148  0.1345
15736TIP3    H168699   4.291   5.121  15.129  1.2641  0.4410  1.0251
15736TIP3    H268700   4.252   5.265  15.155 -0.2800  0.3100 -0.4875
15737TIP3   OH268701   4.324   5.518   2.444 -0.1016  0.6296 -0.2296
15737TIP3    H168702   4.349   5.559   2.526 -0.3415  1.8508 -0.7570
15737TIP3    H268703   4.364   5.573   2.376 -0.9892  0.3852 -0.9644
15738TIP3   OH268704   4.407   3.399   2.363  0.7959 -0.6414  0.5565
15738TIP3    H168705   4.343   3.352   2.309 -0.1055  3.2233 -1.9395
15738TIP3    H268706   4.384   3.492   2.352  3.9970  0.5848  3.3088
15739TIP3   OH268707   1.187   4.843  15.388  0.1105  0.5945  0.4792
15739TIP3    H168708   1.116   4.815  15.446  1.0471  1.2258  1.9448
15739TIP3    H268709   1.209   4.764  15.338 -1.4666  0.3392  0.1701
15740TIP3   OH268710   0.063   0.360   3.239 -0.6871  0.1736  0.1501
15740TIP3    H168711   0.037   0.420   3.309  2.0781  1.5571  0.0622
15740TIP3    H268712   0.023   0.276   3.263 -2.3638  1.3759  1.7104
15741TIP3   OH268713   3.426   1.317  17.199  0.4640 -0.0567 -0.5509
15741TIP3    H168714   3.437   1.412  17.195 -0.4707  0.0380 -1.0902
15741TIP3    H268715   3.455   1.293  17.288 -0.4413  0.9002  0.0187
15742TIP3   OH268716   2.402   0.538   3.768  0.0482  0.4440  0.1624
15742TIP3    H168717   2.371   0.608   3.826  1.7964  0.8792  0.5841
15742TIP3    H268718   2.452   0.480   3.825  0.3874 -0.0253 -0.6037
15743TIP3   OH268719   1.575   4.336  15.516 -0.0480 -0.1260  0.1536
15743TIP3    H168720   1.540   4.257  15.476 -0.0432  0.5664 -1.2642
15743TIP3    H268721   1.500   4.377  15.558 -0.0597 -0.8532  0.8455
15744TIP3   OH268722   0.716   2.073   1.101 -0.3480  0.2841 -0.3475
15744TIP3    H168723   0.734   2.144   1.040  0.8699  0.0874 -0.2311
15744TIP3    H268724   0.786   2.078   1.166 -0.0248 -1.2546 -0.5525
15745TIP3   OH268725   4.997   2.282  12.024  0.1049 -0.9351 -0.2761
15745TIP3    H168726   4.970   2.370  11.999 -0.9811 -1.0706  0.3848
15745TIP3    H268727   5.072   2.263  11.967  0.6473  0.5882 -0.1007
15746TIP3   OH268728   2.441   5.074  17.091 -0.0979  0.0447  0.2673
15746TIP3    H168729   2.521   5.030  17.064  0.5638  1.1112  0.4631
15746TIP3    H268730   2.469   5.141  17.153 -0.8769  1.8409 -1.2584
15747TIP3   OH268731   1.883   4.541   0.673  0.4511  0.7411  0.2444
15747TIP3    H168732   1.869   4.465   0.616 -0.8536  0.0681  1.4622
15747TIP3    H268733   1.828   4.610   0.635  0.7384  0.7460 -0.1733
15748TIP3   OH268734   2.585   4.678   3.928 -0.0052 -0.2042  0.4516
15748TIP3    H168735   2.646   4.731   3.875  1.1683 -1.6834  0.2856
15748TIP3    H268736   2.602   4.588   3.900 -2.5752 -0.6136  0.1190
15749TIP3   OH268737   1.349   1.851   2.975  0.4522 -0.0677  0.4157
15749TIP3    H168738   1.279   1.907   2.942  1.6538  1.1585 -0.1186
15749TIP3    H268739   1.318   1.820   3.060 -1.2296 -0.5062 -0.3383
15750TIP3   OH268740   4.681   5.043  12.536 -0.8173  0.2735  0.6981
15750TIP3    H168741   4.625   4.976  12.575 -3.2416  0.9021 -1.5701
15750TIP3    H268742   4.728   4.998  12.467  1.0774 -0.1092  2.1973
15751TIP3   OH268743   4.801   2.422   0.767 -0.4243 -0.3627 -0.2744
15751TIP3    H168744   4.824   2.329   0.772 -0.3753 -0.2572  1.6950
15751TIP3    H268745   4.715   2.427   0.808  0.0063  0.6154  0.5118
15752TIP3   OH268746   1.229   6.518   4.052 -0.1987 -0.1082  0.2481
15752TIP3    H168747   1.198   6.479   3.970 -4.6347 -2.2538  2.7775
15752TIP3    H268748   1.176   6.597   4.062 -2.8988 -2.1718  3.1050
15753TIP3   OH268749   1.603   2.430   3.304 -0.0784 -0.2317  0.0219
15753TIP3    H168750   1.672   2.363   3.298  0.0459  0.1186 -4.2343
15753TIP3    H268751   1.651   2.511   3.324  0.6500 -0.2655 -1.4489
15754TIP3   OH268752   0.718   5.340   5.109 -0.1954  0.2463 -0.6197
15754TIP3    H168753   0.751   5.313   5.195 -0.6995 -1.3073 -0.9025
15754TIP3    H268754   0.660   5.269   5.082  0.6397  0.2939 -2.6416
15755TIP3   OH268755   1.834   3.953   6.284  0.1525  1.1039 -0.2740
15755TIP3    H168756   1.779   4.003   6.344 -0.6964  1.1865 -1.1117
15755TIP3    H268757   1.851   4.013   6.212 -2.4727 -0.3907 -2.2386
15756TIP3   OH268758   3.222   6.003  12.513 -0.3168 -0.5107 -0.0032
15756TIP3    H168759   3.302   6.053  12.530 -2.4137  2.6798  0.8169
15756TIP3    H268760   3.236   5.965  12.426  1.5174  1.1382 -0.4610
15757TIP3   OH268761   6.112   5.696  16.643 -0.1062 -0.0431  0.2122
15757TIP3    H168762   6.087   5.683  16.734 -1.8539  0.1667 -0.2223
15757TIP3    H268763   6.071   5.623  16.596 -1.0084  1.0114 -0.6886
15758TIP3   OH268764   3.685   6.557   0.746  0.0310 -0.1288 -0.2706
15758TIP3    H168765   3.719   6.480   0.701 -1.7491  0.0035 -1.9240
15758TIP3    H268766   3.590   6.545   0.744 -0.2252  1.7123  0.1691
15759TIP3   OH268767   5.470   6.539  10.645  0.0070 -0.1535 -0.1686
15759TIP3    H168768   5.559   6.565  10.670  0.4736 -2.6361  0.8454
15759TIP3    H268769   5.414   6.603  10.689  1.1877  0.1238  0.9718
15760TIP3   OH268770   4.011   3.591  12.997  0.1058 -0.5862 -0.8501
15760TIP3    H168771   3.989   3.566  13.087  0.5080  0.5890 -0.4146
15760TIP3    H268772   4.090   3.541  12.977  1.5707  1.1433  0.4294
15761TIP3   OH268773   6.353   1.735  15.896 -1.0053 -0.1957  0.1127
15761TIP3    H168774   6.258   1.727  15.894 -1.1950  1.9776 -0.7267
15761TIP3    H268775   6.370   1.827  15.877  1.3166 -0.7780 -0.7951
15762TIP3   OH268776   0.391   2.712  13.417 -0.0003  0.0454 -0.5143
15762TIP3    H168777   0.480   2.676  13.417  0.5011  1.2543 -0.3357
15762TIP3    H268778   0.394   2.782  13.352 -0.9491 -0.1961 -0.8195
15763TIP3   OH268779   0.523   4.011  15.070  0.2310 -0.0256  0.2009
15763TIP3    H168780   0.532   3.915  15.069  1.4415  0.0531  1.7747
15763TIP3    H268781   0.454   4.029  15.006 -0.5792 -2.0113  0.4765
15764TIP3   OH268782   3.952   4.520   3.067  0.7113 -0.4449 -0.3523
15764TIP3    H168783   3.982   4.596   3.116  0.2194 -1.6367  1.8405
15764TIP3    H268784   4.032   4.470   3.049  0.6355 -1.1980  1.3216
15765TIP3   OH268785   6.151   6.311   3.985 -0.5002 -0.3269 -0.1704
15765TIP3    H168786   6.238   6.329   3.948 -1.9093 -0.0022 -3.4739
15765TIP3    H268787   6.090   6.354   3.925 -3.0555 -2.1249  1.0525
15766TIP3   OH268788   4.067   2.329  15.203 -0.0540  0.3114  0.0757
15766TIP3    H168789   4.109   2.331  15.289  0.7073  1.6186 -0.3027
15766TIP3    H268790   3.975   2.344  15.221  0.1693  1.0535  0.6398
15767TIP3   OH268791   6.473   1.345   2.510  0.7029  0.0650  0.2871
15767TIP3    H168792   6.410   1.300   2.566 -0.3734 -0.0949 -1.0174
15767TIP3    H268793   6.424   1.364   2.430  1.7429  1.7121  0.0154
15768TIP3   OH268794   1.549   2.488  15.086 -0.4128  0.0885 -0.0606
15768TIP3    H168795   1.486   2.541  15.037  0.7208  1.0610 -0.5174
15768TIP3    H268796   1.560   2.535  15.169  1.2820  1.1036 -0.8339
15769TIP3   OH268797   2.822   1.626   0.452 -0.2646  0.2100 -0.1936
15769TIP3    H168798   2.883   1.596   0.519 -0.3544 -1.3522 -0.7705
15769TIP3    H268799   2.739   1.638   0.499 -0.6081 -1.9221 -0.1633
15770TIP3   OH268800   4.106   2.967  15.961  0.3311  0.0483 -0.2604
15770TIP3    H168801   4.179   3.028  15.970 -0.1855  0.4929  1.0812
15770TIP3    H268802   4.079   2.975  15.870  1.6742  0.1865 -0.6614
15771TIP3   OH268803   5.588   2.220  13.149  0.8384  1.2298  0.6728
15771TIP3    H168804   5.500   2.254  13.169  0.7571  0.8861  0.9046
15771TIP3    H268805   5.575   2.126  13.139  1.0893  1.2515  0.1656
15772TIP3   OH268806   5.790   6.316   5.692 -0.1205  0.3255  0.3810
15772TIP3    H168807   5.853   6.298   5.622  0.3552  1.4291  0.5138
15772TIP3    H268808   5.843   6.347   5.765 -0.5908 -1.1189  1.3505
15773TIP3   OH268809   0.154   1.097  16.313 -0.0741  0.4535 -0.1685
15773TIP3    H168810   0.147   1.173  16.370  0.4696  1.3035 -1.2192
15773TIP3    H268811   0.090   1.035  16.347  1.1134  0.4288  2.1460
15774TIP3   OH268812   0.957   3.900   0.582 -0.4626 -0.2609  0.3269
15774TIP3    H168813   0.920   3.957   0.515  1.5733 -0.0811 -0.6893
15774TIP3    H268814   0.916   3.929   0.664 -0.3290  1.8995 -0.3465
15775TIP3   OH268815   3.934   4.432   0.744 -0.1057 -0.0151  0.3310
15775TIP3    H168816   3.931   4.407   0.652 -1.0483 -0.8258  0.5709
15775TIP3    H268817   4.005   4.496   0.750  0.9234 -1.0559 -0.6862
15776TIP3   OH268818   1.948   6.527  16.915  0.6991  0.4269 -0.0826
15776TIP3    H168819   1.860   6.546  16.947 -0.2355 -0.9337 -1.7700
15776TIP3    H268820   1.979   6.454  16.969  0.4656  0.3588 -0.0441
15777TIP3   OH268821   2.016   4.167   4.641 -0.0019 -0.4989 -0.5213
15777TIP3    H168822   1.996   4.088   4.690  0.1736 -1.0968 -1.4055
15777TIP3    H268823   1.994   4.146   4.551  2.4195 -0.4317 -1.1780
15778TIP3   OH268824   3.736   6.549  15.786  0.0333 -0.4897  0.1153
15778TIP3    H168825   3.773   6.515  15.705  1.0660  1.7530 -0.3935
15778TIP3    H268826   3.642   6.549  15.772  0.1839 -0.6052 -0.8869
15779TIP3   OH268827   0.112   0.293  14.239 -0.4738 -0.3131 -0.6771
15779TIP3    H168828   0.115   0.376  14.286  0.2102 -2.0035  2.3841
15779TIP3    H268829   0.139   0.315  14.150  0.1062  2.6742  0.1785
15780TIP3   OH268830   6.516   4.563  11.302  0.5780  0.2365  0.4067
15780TIP3    H168831   6.562   4.647  11.307  0.3086  0.3611  0.8517
15780TIP3    H268832   6.541   4.526  11.217 -1.6312  2.1170 -1.1324
15781TIP3   OH268833   1.629   2.019  14.532 -0.1295  0.1604 -0.6498
15781TIP3    H168834   1.575   2.040  14.455  0.2759  1.1030 -0.6847
15781TIP3    H268835   1.617   2.094  14.590  1.8309  0.7895 -1.0311
15782TIP3   OH268836   4.113   3.262  10.557  0.2786 -0.5150 -0.2157
15782TIP3    H168837   4.070   3.332  10.605  0.3382 -1.3930  1.1371
15782TIP3    H268838   4.201   3.295  10.539  0.3946 -0.3548  0.6531
15783TIP3   OH268839   2.782   0.254  13.363  0.4777 -0.1513  0.1640
15783TIP3    H168840   2.698   0.299  13.363  0.7851  0.4568  1.7603
15783TIP3    H268841   2.779   0.197  13.286 -0.9564  0.6576 -0.3874
15784TIP3   OH268842   3.848   2.703  17.119 -0.0980  0.1036 -0.0300
15784TIP3    H168843   3.884   2.616  17.100 -0.9905 -0.3152  0.1919
15784TIP3    H268844   3.829   2.740  17.032  1.3167  0.5376 -0.1804
15785TIP3   OH268845   6.615   6.773  16.309  0.0728  0.3563  0.9550
15785TIP3    H168846   6.698   6.807  16.275 -0.9479 -0.7387 -2.8711
15785TIP3    H268847   6.640   6.719  16.384  2.5625  1.9121  1.2969
15786TIP3   OH268848   1.010   3.777  16.747  0.1069 -0.6622 -0.6764
15786TIP3    H168849   1.080   3.781  16.813 -1.0539  0.0841  0.5363
15786TIP3    H268850   1.033   3.702  16.693  1.6693 -0.6355 -0.0905
15787TIP3   OH268851   0.445   0.390   5.768 -0.2701 -0.1128  0.5474
15787TIP3    H168852   0.407   0.386   5.855  1.5253 -0.4165  1.3345
15787TIP3    H268853   0.534   0.356   5.778 -0.5632 -1.7021 -1.7132
15788TIP3   OH268854   3.007   4.718  12.466  0.0054  0.1490  0.2252
15788TIP3    H168855   3.075   4.706  12.533  1.4282 -0.7585 -1.3189
15788TIP3    H268856   2.926   4.727  12.515  1.1851  0.7846  2.1107
15789TIP3   OH268857   4.696   4.678  14.582  0.4060  0.4790  0.3078
15789TIP3    H168858   4.715   4.600  14.634 -1.1767 -0.1084  0.0245
15789TIP3    H268859   4.780   4.724  14.577  1.3067 -1.0783  0.6578
15790TIP3   OH268860   2.759   1.148  13.073 -0.3224 -0.5276  0.4100
15790TIP3    H168861   2.734   1.177  12.985 -0.6675 -0.5618  0.4965
15790TIP3    H268862   2.853   1.128  13.066  0.0266  1.0225  0.4583
15791TIP3   OH268863   3.669   5.228  15.130  0.2185  0.0977  0.3082
15791TIP3    H168864   3.746   5.171  15.135  0.0373 -0.2599 -0.7774
15791TIP3    H268865   3.681   5.292  15.200  1.0440 -0.5227  0.7327
15792TIP3   OH268866   3.500   1.864   4.492 -0.4432  0.0944  0.0854
15792TIP3    H168867   3.497   1.896   4.402 -0.7709  0.6660  0.2965
15792TIP3    H268868   3.455   1.931   4.543  0.1628  0.0076  0.7433
15793TIP3   OH268869   4.821   5.803  11.464  0.2627 -0.0981  0.6780
15793TIP3    H168870   4.877   5.799  11.541  0.8842 -2.4313  0.1279
15793TIP3    H268871   4.859   5.872  11.410  0.9352  0.2543  1.5903
15794TIP3   OH268872   6.548   1.715  12.537 -0.1997 -0.0671 -0.1117
15794TIP3    H168873   6.613   1.776  12.503  1.0909 -1.3953 -0.0719
15794TIP3    H268874   6.469   1.734  12.487  0.7768  0.2169 -1.5768
15795TIP3   OH268875   6.691   2.983   2.903  0.2049  0.2271 -0.8423
15795TIP3    H168876   6.656   3.043   2.838 -0.6506 -0.3530 -0.9368
15795TIP3    H268877   6.641   3.002   2.983  1.4606  1.1489 -0.2691
15796TIP3   OH268878   5.293   1.745   1.239 -0.4245 -0.2737 -0.0689
15796TIP3    H168879   5.221   1.728   1.179 -0.0835  0.6781 -0.7678
15796TIP3    H268880   5.332   1.659   1.256 -0.1724 -0.4865 -1.6765
15797TIP3   OH268881   4.939   5.223  17.048 -0.3062 -0.1304  0.5439
15797TIP3    H168882   4.846   5.241  17.053 -0.2980  0.0111  0.2392
15797TIP3    H268883   4.972   5.240  17.136 -0.3993  0.7763  0.4152
15798TIP3   OH268884   5.050   4.162   0.966  0.1213 -0.1358  0.1101
15798TIP3    H168885   4.986   4.186   1.033  0.0237  0.3229 -0.1450
15798TIP3    H268886   5.002   4.168   0.884  0.3485 -0.3102 -0.0372
15799TIP3   OH268887   3.704   3.999  12.774 -0.0445  0.1083 -0.0238
15799TIP3    H168888   3.767   4.048  12.722 -0.2731 -0.0714 -0.4788
15799TIP3    H268889   3.732   4.012  12.865  0.7910 -0.1779 -0.2349
15800TIP3   OH268890   1.186   3.956  11.785 -0.2448 -0.1336 -0.0267
15800TIP3    H168891   1.231   3.874  11.807  0.2286  0.0721 -0.2205
15800TIP3    H268892   1.106   3.955  11.838 -1.1998 -1.6291 -1.4714
15801TIP3   OH268893   2.254   0.305  14.079 -0.1378  0.0027 -0.1295
15801TIP3    H168894   2.228   0.396  14.094 -0.1129 -0.0672  0.3394
15801TIP3    H268895   2.171   0.258  14.068 -0.2525 -0.3569  2.1473
15802TIP3   OH268896   5.674   0.677  10.642  0.3372 -0.4168 -0.3939
15802TIP3    H168897   5.758   0.631  10.642  1.6617  1.9518 -0.9621
15802TIP3    H268898   5.619   0.626  10.582  1.0762 -2.4325  0.5786
15803TIP3   OH268899   2.089   6.808   1.811  0.4993 -0.6128 -0.5346
15803TIP3    H168900   2.070   6.714   1.820 -1.4589 -0.4581 -2.5576
15803TIP3    H268901   2.159   6.812   1.746  0.5684 -0.6751 -0.4641
15804TIP3   OH268902   5.302   3.709   3.561  0.1229 -0.3182 -0.4230
15804TIP3    H168903   5.247   3.781   3.529 -0.3146  0.2181  1.5005
15804TIP3    H268904   5.243   3.634   3.565 -0.3644  0.1409  1.1817
15805TIP3   OH268905   1.158   4.425  14.416 -0.0386 -0.7071 -0.4817
15805TIP3    H168906   1.114   4.460  14.493 -1.5178 -2.2688 -0.5813
15805TIP3    H268907   1.092   4.429  14.347  0.7697 -0.7956 -1.2748
15806TIP3   OH268908   5.152   3.516  13.264 -0.1214  0.0057 -0.1200
15806TIP3    H168909   5.222   3.536  13.326 -0.8844  0.8821  0.4775
15806TIP3    H268910   5.088   3.468  13.316 -0.7041  0.6336 -0.2543
15807TIP3   OH268911   1.490   2.984   3.526 -0.0491  0.1009 -0.3162
15807TIP3    H168912   1.491   2.906   3.471 -0.2547  1.2834 -2.0446
15807TIP3    H268913   1.579   3.019   3.519  0.4579 -0.7494  1.6133
15808TIP3   OH268914   2.684   1.870  15.929 -0.1633 -0.6163 -0.2575
15808TIP3    H168915   2.764   1.861  15.980  0.2938 -0.6314 -0.9680
15808TIP3    H268916   2.695   1.950  15.879 -0.3874 -0.8615 -0.7101
15809TIP3   OH268917   2.156   0.379  12.432  0.1484  0.1740 -0.1420
15809TIP3    H168918   2.172   0.399  12.340  0.0981 -2.2075 -0.7022
15809TIP3    H268919   2.073   0.331  12.433  1.3490 -1.9480  0.8372
15810TIP3   OH268920   0.195   3.482  12.907 -0.3769  0.8943 -0.9191
15810TIP3    H168921   0.144   3.505  12.830  0.6519  1.3596 -1.4574
15810TIP3    H268922   0.282   3.517  12.891  0.3594 -0.6007 -0.3653
15811TIP3   OH268923   6.441   6.205  11.409 -0.1174  0.0773  0.3342
15811TIP3    H168924   6.470   6.184  11.498  0.7157 -0.9089 -0.1670
15811TIP3    H268925   6.522   6.213  11.358 -0.6526 -1.4385 -0.7881
15812TIP3   OH268926   5.843   4.808   1.662  0.5830 -0.9720  0.5208
15812TIP3    H168927   5.789   4.747   1.611 -1.6147  0.9230  0.4895
15812TIP3    H268928   5.865   4.878   1.601  0.9190 -0.4453  1.2402
15813TIP3   OH268929   6.582   1.556   6.178  0.1892  0.3550  0.3644
15813TIP3    H168930   6.611   1.601   6.257  4.0190 -1.9175  0.3559
15813TIP3    H268931   6.581   1.463   6.201  1.6260 -0.3796 -2.2554
15814TIP3   OH268932   5.998   6.452   6.792  0.0498 -0.1176 -0.1303
15814TIP3    H168933   6.073   6.400   6.819 -0.0378 -0.4174 -0.4659
15814TIP3    H268934   6.035   6.536   6.765  0.5254 -1.1341 -2.7114
15815TIP3   OH268935   1.049   2.094   1.266 -0.0589 -0.3393  0.4018
15815TIP3    H168936   1.132   2.139   1.281  0.2814 -0.7777 -0.1265
15815TIP3    H268937   1.049   2.076   1.172 -0.8238 -0.2021  0.3719
15816TIP3   OH268938   3.772   4.556   2.862 -0.1343  0.6223  0.4880
15816TIP3    H168939   3.794   4.644   2.831  2.2083 -0.2278 -0.3344
15816TIP3    H268940   3.838   4.536   2.928 -0.4222 -0.6540  0.4049
15817TIP3   OH268941   5.038   1.584   5.840 -0.1555  0.0219 -0.0967
15817TIP3    H168942   5.050   1.507   5.895 -1.1367  0.2086  0.4105
15817TIP3    H268943   5.109   1.643   5.865  0.7930 -0.8409 -0.7229
15818TIP3   OH268944   1.297   0.380   1.764  0.2935 -0.1046 -0.6365
15818TIP3    H168945   1.306   0.463   1.810 -1.0609 -0.3260  0.0489
15818TIP3    H268946   1.344   0.317   1.819 -0.9316 -0.2832  0.2027
15819TIP3   OH268947   1.486   3.129   2.224 -0.6296  0.4219  0.9296
15819TIP3    H168948   1.436   3.154   2.147 -1.6003 -1.1438  1.0238
15819TIP3    H268949   1.559   3.077   2.189 -0.8897 -0.0159  1.0300
15820TIP3   OH268950   2.007   5.495   3.534  0.2307  0.0847  0.2653
15820TIP3    H168951   1.965   5.410   3.526 -0.2514  0.4868 -1.6890
15820TIP3    H268952   2.097   5.481   3.506 -0.0182  0.3383 -0.6861
15821TIP3   OH268953   1.707   0.829  14.268  0.2548 -0.0867 -0.2957
15821TIP3    H168954   1.730   0.793  14.182  0.2318 -2.3056  0.6041
15821TIP3    H268955   1.612   0.834  14.267  0.2009 -0.9997 -0.0616
15822TIP3   OH268956   1.065   1.514   4.733  0.4209  0.5561  1.0146
15822TIP3    H168957   1.021   1.488   4.652 -1.5017 -1.5414  2.6526
15822TIP3    H268958   1.156   1.529   4.707  0.0568 -1.0571 -1.3726
15823TIP3   OH268959   0.639   1.551  12.095  0.6558  0.0417 -0.1376
15823TIP3    H168960   0.702   1.620  12.116  1.9849 -0.2381 -2.9176
15823TIP3    H268961   0.694   1.474  12.076 -0.5010 -0.2776 -2.3737
15824TIP3   OH268962   3.684   4.201   4.826 -0.4197 -0.2913  0.3057
15824TIP3    H168963   3.699   4.290   4.794  0.8008 -1.3263 -2.1124
15824TIP3    H268964   3.756   4.186   4.888 -0.4572  0.2986  0.4967
15825TIP3   OH268965   3.169   1.970  11.464  0.1173 -0.2126 -0.1911
15825TIP3    H168966   3.103   2.033  11.494  1.0691 -0.2984  2.2716
15825TIP3    H268967   3.119   1.891  11.444 -0.5983 -0.1498  1.2623
15826TIP3   OH268968   3.770   3.452  15.272  0.1816  0.3049  0.3979
15826TIP3    H168969   3.778   3.404  15.190  0.4320  0.1140  0.5317
15826TIP3    H268970   3.861   3.477  15.293  0.0358  0.9956  0.2325
15827TIP3   OH268971   3.517   2.942  13.119  0.0893 -0.1250  0.4880
15827TIP3    H168972   3.597   2.892  13.135  0.3431 -0.4767 -1.7090
15827TIP3    H268973   3.454   2.876  13.088 -0.0068  0.6648 -1.0491
15828TIP3   OH268974   1.878   0.484  17.235  0.0738  0.0280 -0.3538
15828TIP3    H168975   1.906   0.422  17.167 -0.5680  1.7337 -2.2473
15828TIP3    H268976   1.909   0.446  17.317  1.6859 -1.6476 -1.6897
15829TIP3   OH268977   1.395   0.851  14.233  0.0533  0.0356 -0.4164
15829TIP3    H168978   1.331   0.782  14.216 -2.5340  2.4141 -0.7696
15829TIP3    H268979   1.389   0.866  14.327  0.5085 -0.1175 -0.3631
15830TIP3   OH268980   4.357   0.702  16.349 -0.2352 -0.5800 -0.4094
15830TIP3    H168981   4.279   0.648  16.336 -1.0658  0.7840 -1.2757
15830TIP3    H268982   4.372   0.701  16.443 -1.7078 -0.3318 -0.1539
15831TIP3   OH268983   6.383   0.185   3.380 -0.7323 -0.4931  0.1626
15831TIP3    H168984   6.340   0.101   3.365 -1.9654  0.3032 -0.9297
15831TIP3    H268985   6.330   0.248   3.329 -0.5013  1.1090  1.8530
15832TIP3   OH268986   4.291   1.109   1.277  0.2062  0.0575 -0.2974
15832TIP3    H168987   4.269   1.026   1.234 -1.2781  0.0277  0.4912
15832TIP3    H268988   4.210   1.137   1.319  0.7241  1.8652 -0.4568
15833TIP3   OH268989   2.777   0.285  16.728  0.0172 -1.0990 -0.0736
15833TIP3    H168990   2.838   0.348  16.766 -0.6969 -1.2792  1.4015
15833TIP3    H268991   2.834   0.221  16.684  0.9949 -1.7999  2.0804
15834TIP3   OH268992   5.330   1.542   4.033  0.1315 -0.1715  0.1802
15834TIP3    H168993   5.348   1.590   3.953 -1.3914 -2.9965 -1.9357
15834TIP3    H268994   5.413   1.501   4.056  0.0859 -1.0224 -1.1315
15835TIP3   OH268995   0.995   3.684   5.581 -0.1298  0.2913  0.7783
15835TIP3    H168996   0.924   3.629   5.615  0.1597 -0.7414 -0.2162
15835TIP3    H268997   1.070   3.624   5.573  0.3316  0.9459  0.1200
15836TIP3   OH268998   0.525   3.116  14.662  0.1440  0.1063 -0.0216
15836TIP3    H168999   0.550   3.087  14.750  0.1972  0.8103  0.2003
15836TIP3    H269000   0.531   3.212  14.665 -1.3128  0.2313 -0.3401
15837TIP3   OH269001   3.299   4.897  14.593  0.2061  0.5334  0.2058
15837TIP3    H169002   3.364   4.956  14.632  1.2903 -0.2165 -0.4280
15837TIP3    H269003   3.258   4.949  14.524  0.1863  0.9923  0.5614
15838TIP3   OH269004   3.683   1.738   3.742 -0.7123 -0.1367 -0.5795
15838TIP3    H169005   3.656   1.826   3.770 -0.9072  0.2685 -1.9858
15838TIP3    H269006   3.663   1.682   3.816 -0.4978  1.0232  0.3817
15839TIP3   OH269007   4.305   6.350   3.684 -0.0860  0.2053 -0.1247
15839TIP3    H169008   4.263   6.432   3.659 -0.4392  0.1113  0.1617
15839TIP3    H269009   4.344   6.317   3.603  0.5798  0.9656 -0.1135
15840TIP3   OH269010   0.496   2.857   0.345  0.5534  0.2813 -0.2957
15840TIP3    H169011   0.479   2.950   0.328 -1.5653  0.0684  0.4630
15840TIP3    H269012   0.519   2.821   0.259 -0.0712  1.2187 -0.8672
15841TIP3   OH269013   6.303   5.673  11.413 -0.5150 -0.7171 -0.0622
15841TIP3    H169014   6.229   5.612  11.414  0.7703 -2.3720 -2.4177
15841TIP3    H269015   6.300   5.713  11.326  0.4038  0.4119  0.4164
15842TIP3   OH269016   5.057   4.860   2.212  0.2670 -0.0001 -0.2473
15842TIP3    H169017   5.000   4.921   2.165 -2.3898 -0.0845  2.6492
15842TIP3    H269018   5.003   4.782   2.224  1.9851 -1.1422  0.1527
15843TIP3   OH269019   6.523   2.669  16.851 -0.4884  0.7796  0.0410
15843TIP3    H169020   6.542   2.736  16.917  1.4333  0.0957  0.2055
15843TIP3    H269021   6.524   2.587  16.899 -0.4558  0.4001 -0.6006
15844TIP3   OH269022   2.586   4.679  11.712 -0.0277 -0.1274 -0.6086
15844TIP3    H169023   2.681   4.667  11.713  0.0203  0.2357  1.1105
15844TIP3    H269024   2.568   4.729  11.633  1.3130  0.6091 -0.4516
15845TIP3   OH269025   3.967   6.164   3.994 -0.6109 -0.4227  0.2637
15845TIP3    H169026   3.983   6.193   3.904 -2.5842 -1.7407 -0.5576
15845TIP3    H269027   3.962   6.245   4.044 -0.1878  0.3709 -0.9464
15846TIP3   OH269028   5.528   4.169  15.525  0.6278 -0.5662 -0.6801
15846TIP3    H169029   5.560   4.259  15.527 -0.1384 -0.2611 -1.7429
15846TIP3    H269030   5.439   4.174  15.560 -0.2478 -0.5360 -2.8344
15847TIP3   OH269031   3.360   1.226   1.831 -0.3221 -0.3768 -0.0077
15847TIP3    H169032   3.304   1.192   1.760 -0.2941 -3.4129  1.3300
15847TIP3    H269033   3.448   1.230   1.792 -0.1701 -2.7492  0.0003
15848TIP3   OH269034   2.773   2.025   5.389  0.7408 -0.1507 -0.2495
15848TIP3    H169035   2.798   2.117   5.396  0.1388  0.0817 -1.1169
15848TIP3    H269036   2.703   2.014   5.454  0.3221  0.1864 -0.6334
15849TIP3   OH269037   5.995   0.143  16.508  0.0850  0.4665 -0.2069
15849TIP3    H169038   5.995   0.070  16.446  0.5056 -1.6559  2.2072
15849TIP3    H269039   5.902   0.153  16.532  0.2421 -0.6080  0.9195
15850TIP3   OH269040   1.672   6.691   2.730  0.4285  0.5201  0.4563
15850TIP3    H169041   1.628   6.744   2.796  0.0389  0.5650  0.1603
15850TIP3    H269042   1.764   6.717   2.735  0.1932  1.4543  0.0927
15851TIP3   OH269043   0.874   6.110   4.743  0.3457  0.4752  0.0991
15851TIP3    H169044   0.884   6.016   4.729 -0.2208  0.5188 -0.6696
15851TIP3    H269045   0.898   6.123   4.835 -0.3015 -0.5394  0.4331
15852TIP3   OH269046   4.849   4.519  15.436  0.8166 -0.2122  0.1543
15852TIP3    H169047   4.783   4.450  15.433  0.1232  0.3758  1.7299
15852TIP3    H269048   4.927   4.479  15.396  0.1151 -1.5615  0.1113
15853TIP3   OH269049   6.685   5.228   3.673 -0.5389 -0.2858  0.4868
15853TIP3    H169050   6.598   5.205   3.703 -0.8245 -0.4633 -0.4740
15853TIP3    H269051   6.699   5.174   3.596  0.1648  0.2157  0.2594
15854TIP3   OH269052   3.502   3.414   4.321 -1.0031 -0.0838 -0.1932
15854TIP3    H169053   3.537   3.329   4.295  2.5282  1.0762  0.4551
15854TIP3    H269054   3.481   3.404   4.414 -1.0640 -0.3833 -0.2395
15855TIP3   OH269055   4.553   1.789   2.465 -0.6859 -0.0257 -0.6326
15855TIP3    H169056   4.622   1.775   2.529 -1.0803  0.4025 -0.1104
15855TIP3    H269057   4.542   1.704   2.422 -0.5230 -0.3463 -0.0352
15856TIP3   OH269058   1.622   2.353  13.171 -0.0172 -0.4849 -0.0494
15856TIP3    H169059   1.589   2.429  13.123  2.4327  1.0120  0.5611
15856TIP3    H269060   1.546   2.295  13.179 -1.6829  1.4424 -1.3896
15857TIP3   OH269061   3.615   5.781  14.400  0.7291  0.3408 -0.3589
15857TIP3    H169062   3.663   5.834  14.464 -0.3030  2.6897 -1.4750
15857TIP3    H269063   3.534   5.758  14.445  1.6667 -1.3410  0.5436
15858TIP3   OH269064   1.977   6.453  15.191 -0.8216  0.0883  0.0818
15858TIP3    H169065   1.934   6.394  15.253  0.0625  0.8337  1.4245
15858TIP3    H269066   2.038   6.397  15.143 -1.5931 -0.5149 -0.1928
15859TIP3   OH269067   1.008   4.294  16.487 -0.5238 -1.0024  0.4781
15859TIP3    H169068   0.995   4.388  16.501 -1.0735 -1.3700  2.7869
15859TIP3    H269069   1.099   4.285  16.461 -0.4278  0.1587  0.3967
15860TIP3   OH269070   6.197   3.810   6.523 -0.0543  0.3421  0.7699
15860TIP3    H169071   6.143   3.836   6.448 -0.8619  2.1323  1.9419
15860TIP3    H269072   6.285   3.841   6.501  0.0679 -0.5835 -0.1345
15861TIP3   OH269073   1.498   6.293   3.330  0.0082  0.1730  0.2746
15861TIP3    H169074   1.500   6.299   3.234 -0.4230  1.6332  0.3400
15861TIP3    H269075   1.517   6.382   3.359 -0.5137 -0.1285  1.5450
15862TIP3   OH269076   4.899   0.310  16.127  0.1048  0.0187 -0.0530
15862TIP3    H169077   4.837   0.374  16.093 -1.0699 -1.2773 -0.3702
15862TIP3    H269078   4.850   0.262  16.193  1.5594  0.7037  1.5702
15863TIP3   OH269079   0.043   1.145  11.788  0.5939  0.2109 -0.7631
15863TIP3    H169080   0.064   1.156  11.880  3.1813  2.7014 -1.5729
15863TIP3    H269081   0.073   1.057  11.766 -0.4641 -0.5742  0.8278
15864TIP3   OH269082   4.668   0.571   2.056  0.0768 -0.1359 -0.3134
15864TIP3    H169083   4.726   0.557   2.130  0.4943 -0.5328 -0.7144
15864TIP3    H269084   4.590   0.612   2.094 -0.0947 -1.1678  0.4897
15865TIP3   OH269085   5.174   2.239   4.738  0.6921  0.2773  0.3763
15865TIP3    H169086   5.252   2.194   4.769  1.0911 -0.5091 -1.7295
15865TIP3    H269087   5.207   2.305   4.677 -0.4102 -1.8912 -2.7096
15866TIP3   OH269088   3.883   0.500   5.166 -0.2531 -0.2480  0.1549
15866TIP3    H169089   3.862   0.496   5.072 -2.0772  1.1303  0.4879
15866TIP3    H269090   3.866   0.590   5.191 -0.0469 -0.6717  1.8977
15867TIP3   OH269091   1.892   3.417   0.109  0.6503 -0.5157  0.0337
15867TIP3    H169092   1.805   3.381   0.123  0.1589 -0.2166 -1.9941
15867TIP3    H269093   1.952   3.346   0.130 -0.0918 -0.8086  1.1847
15868TIP3   OH269094   3.080   2.140  16.107  0.0791 -0.4038 -0.3956
15868TIP3    H169095   3.146   2.161  16.173 -1.3966 -1.6771  1.5196
15868TIP3    H269096   3.076   2.219  16.053  1.3241  0.6601  1.0040
15869TIP3   OH269097   1.461   1.535  15.666  0.1471  0.0444  0.4690
15869TIP3    H169098   1.544   1.488  15.668  0.6340  0.9513  2.2100
15869TIP3    H269099   1.483   1.621  15.630 -0.0174  0.3428  1.0833
15870TIP3   OH269100   5.136   3.177  16.431 -0.5518 -0.4398  0.3178
15870TIP3    H169101   5.090   3.234  16.369 -2.5105 -0.4748  1.7009
15870TIP3    H269102   5.212   3.144  16.382 -0.9512  1.1238 -1.3943
15871TIP3   OH269103   6.554   0.555  16.237 -0.2457  0.0436  0.4799
15871TIP3    H169104   6.566   0.479  16.293  2.2795 -0.3312 -0.4796
15871TIP3    H269105   6.482   0.532  16.179  0.6029 -1.7163  0.0829
15872TIP3   OH269106   4.546   2.028  11.381 -0.1013 -0.0013 -0.0287
15872TIP3    H169107   4.454   2.004  11.370 -0.2019  0.6090 -0.5323
15872TIP3    H269108   4.543   2.110  11.431  0.1971 -0.3280  0.5342
15873TIP3   OH269109   1.903   2.042   0.393  0.0055  0.3363 -0.1763
15873TIP3    H169110   1.826   2.099   0.394  0.7924  1.4423 -0.5854
15873TIP3    H269111   1.977   2.103   0.379  0.8370 -0.8168 -0.9090
15874TIP3   OH269112   1.925   2.583   1.505  0.3285 -0.2770 -0.3103
15874TIP3    H169113   1.968   2.525   1.567  0.9809  0.2369 -0.2792
15874TIP3    H269114   1.991   2.650   1.484 -0.7393  1.0745  0.4909
15875TIP3   OH269115   0.267   0.607   1.734  0.7560 -0.0354  0.0041
15875TIP3    H169116   0.232   0.685   1.776 -1.4842  0.1348 -2.1172
15875TIP3    H269117   0.275   0.631   1.642  1.4147 -1.8568 -0.4322
15876TIP3   OH269118   5.919   4.783  13.495  0.0913  0.3485 -0.2989
15876TIP3    H169119   5.837   4.748  13.460  0.2132  1.7324 -2.0145
15876TIP3    H269120   5.918   4.758  13.588 -3.3236  2.3127  0.2770
15877TIP3   OH269121   2.193   0.199  14.373  0.7182  0.3568  0.2125
15877TIP3    H169122   2.173   0.290  14.353 -0.4015  0.4268  1.5851
15877TIP3    H269123   2.257   0.204  14.444  2.1840  0.0687 -1.0427
15878TIP3   OH269124   4.227   5.986  12.958  0.2616  0.4661 -0.0652
15878TIP3    H169125   4.179   5.988  13.040 -2.0180 -1.2742 -1.2667
15878TIP3    H269126   4.162   6.010  12.892  1.7616  0.7646 -1.4599
15879TIP3   OH269127   5.304   5.570  13.488  0.2263 -0.3160 -0.1063
15879TIP3    H169128   5.254   5.561  13.569  0.6273 -0.0456  0.1679
15879TIP3    H269129   5.394   5.550  13.513  0.3099 -0.4835 -0.5378
15880TIP3   OH269130   4.222   1.084  10.810 -0.6461 -0.1239  0.2894
15880TIP3    H169131   4.253   1.117  10.726  2.1748  0.8015  1.6186
15880TIP3    H269132   4.237   0.989  10.806 -1.4874 -0.2352 -0.5911
15881TIP3   OH269133   5.196   6.308   2.274  0.3744 -1.2526  0.1764
15881TIP3    H169134   5.252   6.381   2.247 -1.5815  0.7621  1.3002
15881TIP3    H269135   5.250   6.257   2.333  1.4319 -0.0469  0.2819
15882TIP3   OH269136   5.649   3.582  13.094  0.3505  0.1261 -0.2584
15882TIP3    H169137   5.625   3.582  13.002  0.7064  0.6836 -0.3529
15882TIP3    H269138   5.717   3.649  13.101  1.6703 -1.1960  0.0534
15883TIP3   OH269139   5.176   0.140   4.137 -0.7491  0.6464 -0.2355
15883TIP3    H169140   5.091   0.096   4.140 -0.4097 -0.0200 -0.2089
15883TIP3    H269141   5.215   0.111   4.055  0.4567 -0.9473  0.8740
15884TIP3   OH269142   4.204   0.295  14.197  0.0994 -0.0531  0.3545
15884TIP3    H169143   4.151   0.374  14.193  1.8207  1.0695 -1.0952
15884TIP3    H269144   4.170   0.239  14.127 -0.2862 -0.0807  0.5602
15885TIP3   OH269145   2.792   1.726   5.825 -0.0497  0.4723  0.4301
15885TIP3    H169146   2.768   1.635   5.841 -0.8179  0.7035  0.6431
15885TIP3    H269147   2.886   1.724   5.808  0.1430 -0.2100  1.5365
15886TIP3   OH269148   1.262   1.502  16.908 -0.0925  0.3290  0.0160
15886TIP3    H169149   1.344   1.535  16.873  0.5070 -0.1600  0.9251
15886TIP3    H269150   1.216   1.579  16.940 -0.4992  0.7377 -1.5188
15887TIP3   OH269151   5.383   2.156  16.976  0.2569  0.5256 -0.8542
15887TIP3    H169152   5.392   2.108  17.059  2.4951  1.8997 -0.2389
15887TIP3    H269153   5.330   2.099  16.921  0.8080 -1.5566  0.6864
15888TIP3   OH269154   5.733   0.129  11.876  0.1007  0.3494  0.1426
15888TIP3    H169155   5.711   0.157  11.787 -0.6909  1.8222  0.7922
15888TIP3    H269156   5.767   0.040  11.865 -0.5730  0.2821 -1.5555
15889TIP3   OH269157   3.486   4.763   6.226  0.0121 -0.4978  0.4704
15889TIP3    H169158   3.430   4.836   6.198 -1.6192 -2.3142 -1.1741
15889TIP3    H269159   3.428   4.707   6.278  1.2222 -0.6824  1.6295
15890TIP3   OH269160   6.510   1.502  12.043 -1.0497 -0.0357 -0.4130
15890TIP3    H169161   6.489   1.507  11.950 -0.5602  0.0486 -0.5217
15890TIP3    H269162   6.500   1.592  12.075 -4.8725 -0.6898  0.4490
15891TIP3   OH269163   1.126   6.686  11.640 -0.1103  0.4099  0.7258
15891TIP3    H169164   1.126   6.597  11.675 -1.5327 -0.1308 -0.5915
15891TIP3    H269165   1.167   6.678  11.554  1.6110  1.3942  1.4234
15892TIP3   OH269166   2.676   2.924  10.569 -0.3679  0.0855  0.1803
15892TIP3    H169167   2.686   2.961  10.482 -0.3394 -2.0918 -0.7772
15892TIP3    H269168   2.762   2.936  10.610  0.4247 -1.1863 -1.0412
15893TIP3   OH269169   4.907   3.644   0.720  0.5995 -0.0026  0.3445
15893TIP3    H169170   4.973   3.602   0.665  0.7169 -1.3943  1.5134
15893TIP3    H269171   4.835   3.581   0.725  0.9008 -0.2434  2.3461
15894TIP3   OH269172   0.665   2.909  14.010  0.2892 -0.1044  0.4329
15894TIP3    H169173   0.643   2.921  14.103  1.1310  0.9301  0.5075
15894TIP3    H269174   0.580   2.906  13.966 -0.0942  0.9062  1.0693
15895TIP3   OH269175   2.219   6.115   2.764 -0.1609 -0.4403 -0.0823
15895TIP3    H169176   2.281   6.079   2.827 -1.4955  0.3599  1.7672
15895TIP3    H269177   2.234   6.209   2.767  0.9700 -0.5240 -2.3186
15896TIP3   OH269178   1.992   2.127   2.458 -0.4151 -0.2228  0.2284
15896TIP3    H169179   1.989   2.083   2.373  1.1237  0.6239 -0.2770
15896TIP3    H269180   2.011   2.219   2.438 -1.6577  0.3035  1.3912
15897TIP3   OH269181   2.118   6.086  15.285  0.2246  0.4821  0.6051
15897TIP3    H169182   2.122   5.994  15.314 -1.6941  0.2114  0.0321
15897TIP3    H269183   2.025   6.108  15.287  0.4522  1.7261 -1.4377
15898TIP3   OH269184   3.006   4.995  13.814 -0.3355 -0.0911 -0.1121
15898TIP3    H169185   3.018   5.011  13.907 -1.9662 -2.1401  0.4832
15898TIP3    H269186   3.012   5.082  13.774  3.4310  0.4912  1.4756
15899TIP3   OH269187   4.807   4.713   3.212 -0.2868 -1.0326 -0.0653
15899TIP3    H169188   4.823   4.778   3.280 -1.7220 -3.0713  2.2746
15899TIP3    H269189   4.737   4.751   3.159  2.1389  1.4299 -1.6596
15900TIP3   OH269190   0.253   4.568   6.713 -0.8300 -0.2722 -0.5714
15900TIP3    H169191   0.182   4.528   6.763  1.2306 -1.0512  1.8438
15900TIP3    H269192   0.254   4.521   6.630 -0.8044 -2.7732  0.8091
15901TIP3   OH269193   3.209   4.922  14.210 -0.4511 -0.8227 -0.3457
15901TIP3    H169194   3.155   4.902  14.287 -0.5101 -1.5647 -0.5718
15901TIP3    H269195   3.160   4.991  14.165 -1.0768 -1.2931 -0.4016
15902TIP3   OH269196   0.949   2.270   2.639 -0.3646 -0.2570  0.0365
15902TIP3    H169197   1.012   2.335   2.610 -1.3472  1.1834  1.0745
15902TIP3    H269198   0.871   2.285   2.584 -1.6283  1.3781  2.2108
15903TIP3   OH269199   1.556   1.220  12.635 -0.7286  0.2722 -0.0842
15903TIP3    H169200   1.473   1.268  12.625 -0.9957 -0.4251 -1.4413
15903TIP3    H269201   1.602   1.236  12.553 -0.5861 -1.3336 -0.3304
15904TIP3   OH269202   2.117   5.155   4.679  0.4303  0.2922  0.2020
15904TIP3    H169203   2.111   5.250   4.682  1.7638  0.3973 -0.2099
15904TIP3    H269204   2.068   5.125   4.756 -1.3146  1.2345 -0.5333
15905TIP3   OH269205   5.559   3.301   6.163  0.0565 -0.5418  0.0591
15905TIP3    H169206   5.498   3.311   6.236 -0.8959 -1.8713 -0.5253
15905TIP3    H269207   5.547   3.210   6.135  1.6908 -0.5614 -0.6231
15906TIP3   OH269208   6.457   6.714  12.178  0.4783  0.2067 -0.1461
15906TIP3    H169209   6.428   6.657  12.248  0.5830  0.2136 -0.0958
15906TIP3    H269210   6.552   6.720  12.190  0.5928 -0.3819 -0.7215
15907TIP3   OH269211   6.254   6.416   5.412  0.0293 -0.5417  0.4836
15907TIP3    H169212   6.305   6.412   5.332  0.0211 -0.2258  0.4603
15907TIP3    H269213   6.269   6.331   5.455  2.0584  0.2428  1.3882
15908TIP3   OH269214   2.202   0.586  12.620  0.4318 -0.4972  0.1892
15908TIP3    H169215   2.211   0.514  12.558  0.0823  0.0162 -0.4582
15908TIP3    H269216   2.274   0.645  12.600  1.3136 -1.1381  1.3755
15909TIP3   OH269217   0.416   3.317  11.925  0.2686  0.0341 -0.1786
15909TIP3    H169218   0.448   3.325  11.835 -0.8211  1.0519 -0.4940
15909TIP3    H269219   0.386   3.406  11.948  0.5861 -0.2041  1.2042
15910TIP3   OH269220   4.786   6.703  16.341  0.2232 -0.4810  0.1115
15910TIP3    H169221   4.829   6.656  16.413 -0.2619  1.3228  1.6249
15910TIP3    H269222   4.858   6.737  16.288  0.6145  0.0133  0.9597
15911TIP3   OH269223   2.377   1.110  12.535 -0.0216 -0.4758  0.2475
15911TIP3    H169224   2.296   1.076  12.573 -0.0877 -1.0996 -0.4353
15911TIP3    H269225   2.431   1.134  12.610 -1.2220  0.8541  0.7046
15912TIP3   OH269226   1.650   4.819   1.989 -0.5666  0.3074 -0.1559
15912TIP3    H169227   1.556   4.809   1.977 -0.3914  0.0283 -1.3704
15912TIP3    H269228   1.669   4.906   1.952 -0.4679  0.7011  0.8095
15913TIP3   OH269229   5.451   6.044   0.243  0.4282 -0.1220 -0.3732
15913TIP3    H169230   5.471   5.953   0.223 -0.1944  0.1376 -2.3235
15913TIP3    H269231   5.532   6.092   0.227  0.1719 -0.0422 -1.4738
15914TIP3   OH269232   3.503   0.241  12.107 -0.1017  0.3573 -0.0570
15914TIP3    H169233   3.573   0.240  12.042 -2.1548  1.0596 -2.3867
15914TIP3    H269234   3.527   0.311  12.168  2.4052 -1.0436  0.5822
15915TIP3   OH269235   6.514   0.229  13.220 -0.4151  0.1474 -0.5150
15915TIP3    H169236   6.437   0.172  13.217  1.2867 -2.4162  1.6254
15915TIP3    H269237   6.577   0.187  13.162  0.4131  0.5467  0.0778
15916TIP3   OH269238   1.581   3.029  17.010 -0.4265 -0.6836 -0.0330
15916TIP3    H169239   1.581   3.113  17.056  1.4774 -0.5196 -0.2847
15916TIP3    H269240   1.489   3.004  17.005 -0.9452  1.0201  0.7090
15917TIP3   OH269241   6.457   5.251   1.542 -0.1701  0.4214 -0.2864
15917TIP3    H169242   6.464   5.157   1.523  3.3861  0.4826  0.4852
15917TIP3    H269243   6.519   5.265   1.614 -3.7129  2.6047  2.5207
15918TIP3   OH269244   2.738   3.167   0.699  0.1124 -0.2145 -0.6852
15918TIP3    H169245   2.716   3.140   0.788 -2.6211 -1.0219 -1.5743
15918TIP3    H269246   2.758   3.261   0.707 -1.1379 -0.0474  0.6080
15919TIP3   OH269247   1.410   1.160  12.160 -0.3234 -0.4309 -0.2128
15919TIP3    H169248   1.426   1.079  12.113 -1.1959 -1.7210  1.6348
15919TIP3    H269249   1.428   1.229  12.097  1.8426 -2.0168 -1.3813
15920TIP3   OH269250   4.414   5.403  11.176 -0.0373 -0.0191 -0.0819
15920TIP3    H169251   4.329   5.370  11.202 -0.6487  1.8135  0.2956
15920TIP3    H269252   4.465   5.405  11.257 -0.0059 -0.0205 -0.1012
15921TIP3   OH269253   3.295   2.034  15.739 -0.2191  0.2798 -0.2036
15921TIP3    H169254   3.361   2.071  15.797  1.1123 -1.4558 -0.5577
15921TIP3    H269255   3.309   2.077  15.655  0.1241  0.3089 -0.1318
15922TIP3   OH269256   0.103   4.577   0.204 -0.1189 -0.0762  0.2556
15922TIP3    H169257   0.080   4.518   0.277  3.6086 -1.3067  0.5629
15922TIP3    H269258   0.118   4.519   0.130  0.5958  0.7585 -0.2655
15923TIP3   OH269259   2.974   1.809  15.633  0.5427  0.1193  0.2555
15923TIP3    H169260   3.007   1.721  15.615 -1.0486 -0.4840  0.1973
15923TIP3    H269261   2.882   1.796  15.655  0.5115  1.6829  1.1414
15924TIP3   OH269262   0.703   4.484  13.014 -0.2304 -0.4474  0.1457
15924TIP3    H169263   0.760   4.523  12.948  0.9373 -3.2713 -0.6101
15924TIP3    H269264   0.633   4.442  12.963 -0.4749 -0.8679  0.8259
15925TIP3   OH269265   4.428   2.177  10.414 -0.2057 -0.2913 -0.0194
15925TIP3    H169266   4.372   2.207  10.343 -0.8237 -1.9224 -0.2414
15925TIP3    H269267   4.413   2.083  10.418  2.6512 -0.7764 -0.1791
15926TIP3   OH269268   0.127   0.359   6.217  0.3653 -0.6997 -0.4472
15926TIP3    H169269   0.183   0.410   6.158  0.8801 -1.3608 -0.5357
15926TIP3    H269270   0.046   0.410   6.223  1.2491  0.6640  0.3052
15927TIP3   OH269271   3.489   4.598  11.122 -0.4637 -0.2937 -0.0464
15927TIP3    H169272   3.544   4.659  11.172 -0.8891  1.9047 -2.1266
15927TIP3    H269273   3.511   4.616  11.030 -1.4981 -2.4660 -0.7507
15928TIP3   OH269274   1.928   1.322  14.501  0.3671 -0.3400  0.1404
15928TIP3    H169275   2.015   1.340  14.466 -0.6284  1.5645 -1.4451
15928TIP3    H269276   1.869   1.379  14.451 -1.7208 -1.1250  1.6107
15929TIP3   OH269277   3.748   6.339  10.798 -0.3941 -0.0246  0.5907
15929TIP3    H169278   3.770   6.305  10.711  0.7523  2.7939 -0.2925
15929TIP3    H269279   3.732   6.433  10.783 -1.0329  0.3322  3.2945
15930TIP3   OH269280   6.815   1.873   2.569  0.5079  0.5500  0.5055
15930TIP3    H169281   6.729   1.840   2.594  0.2419  1.9547  1.5222
15930TIP3    H269282   6.850   1.807   2.509 -0.8838 -0.4856  0.8119
15931TIP3   OH269283   5.705   0.284  16.525 -0.7062  0.2705  0.6242
15931TIP3    H169284   5.654   0.212  16.488  2.6229 -1.4925 -0.7547
15931TIP3    H269285   5.681   0.360  16.473 -1.0857 -0.7684 -0.7466
15932TIP3   OH269286   0.574   5.592  11.294 -0.2844 -0.2717  0.0860
15932TIP3    H169287   0.649   5.652  11.291 -0.8925  0.5140  0.5860
15932TIP3    H269288   0.501   5.646  11.324 -0.3376 -1.7822  2.8249
15933TIP3   OH269289   4.701   1.823  16.820 -0.2890  0.6179  0.2304
15933TIP3    H169290   4.630   1.805  16.758  0.5719 -0.0046 -0.6001
15933TIP3    H269291   4.706   1.918  16.824 -1.5636  0.6682  0.7600
15934TIP3   OH269292   5.174   3.639  13.948  0.2064  0.3695  0.2602
15934TIP3    H169293   5.262   3.604  13.938  0.4214  0.7251  0.9446
15934TIP3    H269294   5.141   3.646  13.858 -0.2594 -2.6413  0.1396
15935TIP3   OH269295   3.153   3.095  14.783 -0.0982 -0.2444 -0.3390
15935TIP3    H169296   3.080   3.086  14.723  0.3831 -0.0010 -0.9710
15935TIP3    H269297   3.202   3.013  14.775 -0.0958 -0.2567 -0.1989
15936TIP3   OH269298   2.241   5.942  16.151  0.3802 -0.1248 -0.0045
15936TIP3    H169299   2.178   5.907  16.088 -0.1621  0.9676 -0.0792
15936TIP3    H269300   2.201   6.023  16.182  1.6208  0.4222  0.1723
15937TIP3   OH269301   4.894   0.826  15.830  0.1995 -0.2258 -0.8008
15937TIP3    H169302   4.898   0.881  15.909  0.9345  0.1236 -1.0673
15937TIP3    H269303   4.801   0.809  15.817  0.1105 -0.7244  0.4455
15938TIP3   OH269304   5.397   0.753   2.525 -0.6251 -0.2470 -0.5333
15938TIP3    H169305   5.477   0.784   2.568 -1.4833 -0.3345  1.1538
15938TIP3    H269306   5.331   0.751   2.594 -2.0006 -0.5650 -1.8191
15939TIP3   OH269307   1.369   4.700   2.882  0.5250 -0.0404 -0.7818
15939TIP3    H169308   1.349   4.612   2.851  1.7065 -0.0441 -1.5596
15939TIP3    H269309   1.384   4.690   2.976 -1.0483 -0.3658 -0.5488
15940TIP3   OH269310   2.093   3.730  16.698 -0.2694  0.5654  0.6438
15940TIP3    H169311   2.054   3.814  16.676  0.7549  0.8003 -0.2780
15940TIP3    H269312   2.181   3.751  16.728  0.0905 -0.1983  0.1346
15941TIP3   OH269313   1.027   0.010   3.365  0.1930 -0.9346 -0.2934
15941TIP3    H169314   0.937  -0.024   3.360  0.1189 -1.0386  1.4984
15941TIP3    H269315   1.053   0.020   3.273 -0.6241 -3.6082 -0.8920
15942TIP3   OH269316   4.218   3.540  13.274  0.2356  0.3797 -0.8062
15942TIP3    H169317   4.157   3.515  13.343  0.5564 -0.3282 -0.7733
15942TIP3    H269318   4.180   3.505  13.194  1.4779 -1.6307 -0.5510
15943TIP3   OH269319   3.472   1.594   0.844  0.5602  0.4646  0.1786
15943TIP3    H169320   3.419   1.660   0.889  1.1493  1.8333 -1.0686
15943TIP3    H269321   3.410   1.543   0.793  0.0563 -0.1786  1.4256
15944TIP3   OH269322   4.555   2.305  11.413  0.8165  0.2469 -0.1846
15944TIP3    H169323   4.624   2.366  11.439 -1.1754  2.4487  0.1124
15944TIP3    H269324   4.534   2.330  11.323  2.7150 -2.6707 -1.5404
15945TIP3   OH269325   3.881   6.111   2.021 -0.1175  0.0745 -0.1765
15945TIP3    H169326   3.945   6.058   2.069 -0.5066 -1.5814 -1.4585
15945TIP3    H269327   3.933   6.160   1.957  0.2648  1.4076  1.1338
15946TIP3   OH269328   6.003   6.140  16.138 -0.7704 -0.0129 -0.2033
15946TIP3    H169329   5.983   6.086  16.062 -0.6930  0.0925 -0.2987
15946TIP3    H269330   6.063   6.086  16.190 -0.0331  0.3161 -0.7088
15947TIP3   OH269331   6.482   0.218  14.408  0.2593  0.1815 -0.4479
15947TIP3    H169332   6.560   0.175  14.443  0.9597  1.0355 -0.9243
15947TIP3    H269333   6.496   0.311  14.424 -1.8032  0.1877  1.6740
15948TIP3   OH269334   2.257   5.955  14.748  0.1620  0.7778  0.3208
15948TIP3    H169335   2.280   5.968  14.840 -1.2573  2.0676  0.5191
15948TIP3    H269336   2.279   6.038  14.705  1.2004  0.0404 -0.5944
15949TIP3   OH269337   1.358   1.718  12.436 -0.4120  0.1343  0.9732
15949TIP3    H169338   1.350   1.791  12.375 -1.4025  0.0519  0.9849
15949TIP3    H269339   1.452   1.706  12.449 -0.2346  0.9631  0.4420
15950TIP3   OH269340   3.673   4.169  17.181  0.0891 -0.4534  0.2367
15950TIP3    H169341   3.581   4.153  17.158  0.5753 -2.5541 -0.3105
15950TIP3    H269342   3.689   4.115  17.258  0.2633  1.6689  1.7364
15951TIP3   OH269343   5.750   3.839   5.741  0.2552 -0.1196 -0.2740
15951TIP3    H169344   5.811   3.816   5.811  0.9503  1.2868 -0.4070
15951TIP3    H269345   5.806   3.864   5.668 -0.4805  0.8046 -0.5315
15952TIP3   OH269346   0.316   4.381  16.581 -0.0766  0.3506 -0.3652
15952TIP3    H169347   0.305   4.456  16.639  1.0325  1.1225 -1.1252
15952TIP3    H269348   0.367   4.415  16.507 -1.6168 -0.5695 -1.8767
15953TIP3   OH269349   4.095   3.745   3.166 -0.4913  0.0244  0.0321
15953TIP3    H169350   4.117   3.770   3.076 -0.1183  0.1703  0.1671
15953TIP3    H269351   4.179   3.738   3.211 -0.6741 -0.1195  0.3536
15954TIP3   OH269352   3.711   5.601   3.023 -0.1449 -0.4658 -0.1382
15954TIP3    H169353   3.713   5.694   3.001 -0.2390  0.9103  5.0565
15954TIP3    H269354   3.626   5.571   2.991  0.0537  1.1204 -2.2208
15955TIP3   OH269355   0.053   5.069  14.243  0.4217 -0.2141  0.3163
15955TIP3    H169356  -0.039   5.094  14.238  0.3385 -0.8268 -1.6695
15955TIP3    H269357   0.052   4.981  14.279  0.0835 -0.8548 -1.1889
15956TIP3   OH269358   3.940   1.737   5.067 -0.1774  0.7172  0.3093
15956TIP3    H169359   3.993   1.816   5.070  0.7671  0.0469  2.2034
15956TIP3    H269360   3.962   1.690   5.148 -2.1234 -0.5657  0.1341
15957TIP3   OH269361   5.993   2.303  13.068  0.0201 -0.1013  0.1707
15957TIP3    H169362   5.934   2.284  13.141 -1.5087 -1.2004 -1.3236
15957TIP3    H269363   6.033   2.387  13.091  0.1167 -0.7812  2.6184
15958TIP3   OH269364   6.065   5.149  16.000 -0.2838  0.1124  0.2607
15958TIP3    H169365   6.139   5.188  16.046 -1.4501  1.3964  1.0441
15958TIP3    H269366   6.068   5.188  15.912  1.1458 -1.3509 -0.3783
15959TIP3   OH269367   2.416   3.517   2.603  0.1448 -0.4369  0.3227
15959TIP3    H169368   2.441   3.525   2.511 -0.3815  0.8444  0.2735
15959TIP3    H269369   2.323   3.539   2.604  0.3098  0.2652  1.2476
15960TIP3   OH269370   0.975   5.700  15.544  0.0751  0.6532  0.4399
15960TIP3    H169371   0.986   5.769  15.610 -2.1884 -0.0635  1.6441
15960TIP3    H269372   0.904   5.732  15.489  1.1588  0.6939 -0.9500
15961TIP3   OH269373   1.123   1.465  15.573 -0.5605  0.3664 -0.7743
15961TIP3    H169374   1.082   1.550  15.590  2.8022  1.6859  1.3572
15961TIP3    H269375   1.128   1.424  15.660  0.4013 -0.7838 -1.3695
15962TIP3   OH269376   2.184   4.538   5.462  1.1086 -0.4711  0.1515
15962TIP3    H169377   2.154   4.621   5.500 -1.4833 -1.5691  0.6553
15962TIP3    H269378   2.193   4.556   5.369 -0.9115  0.0437  0.0144
15963TIP3   OH269379   3.853   3.053   2.265 -0.2817 -0.1167  0.1755
15963TIP3    H169380   3.922   2.987   2.271 -0.5393 -0.4699 -0.6477
15963TIP3    H269381   3.791   3.017   2.201  0.7528  2.0057 -2.0803
15964TIP3   OH269382   5.169   6.440  10.671 -0.0216  0.2925  0.2421
15964TIP3    H169383   5.257   6.455  10.636  0.0321  0.7161  0.5485
15964TIP3    H269384   5.121   6.519  10.649 -0.8451 -0.6556 -1.4766
15965TIP3   OH269385   3.751   4.033   1.977  0.8918  0.1180 -0.1462
15965TIP3    H169386   3.774   4.122   2.006 -0.0218  0.6138 -0.9333
15965TIP3    H269387   3.763   3.979   2.056  1.0843  0.9976  0.4406
15966TIP3   OH269388   1.071   6.305  16.284  0.0411 -0.3136 -0.1967
15966TIP3    H169389   1.054   6.358  16.206  1.0585 -3.4485 -2.6514
15966TIP3    H269390   1.002   6.239  16.283 -0.3296  0.0240  1.9741
15967TIP3   OH269391   6.645   5.982   4.024  0.1781 -0.2555  0.4673
15967TIP3    H169392   6.629   5.890   4.045 -0.3708  0.2462  2.3301
15967TIP3    H269393   6.724   6.005   4.074 -1.8668  1.3027  3.1043
15968TIP3   OH269394   3.027   2.462  10.797  0.6299 -0.0286 -0.2193
15968TIP3    H169395   3.120   2.485  10.801  1.1841 -2.0696 -0.9024
15968TIP3    H269396   3.023   2.390  10.734 -1.3009 -0.5071  0.4288
15969TIP3   OH269397   4.187   3.550   2.720 -0.2359 -0.6787  0.3484
15969TIP3    H169398   4.110   3.507   2.756 -0.6588  1.2124  1.7940
15969TIP3    H269399   4.240   3.479   2.685 -1.6525 -2.2022  1.2272
15970TIP3   OH269400   6.532   3.306  16.198  0.0778 -0.0705  0.1436
15970TIP3    H169401   6.566   3.375  16.254  0.3667 -0.9189  1.0340
15970TIP3    H269402   6.437   3.321  16.195  0.2527  0.9313 -0.4701
15971TIP3   OH269403   6.694   4.011   1.312  0.3930 -0.3082 -0.6942
15971TIP3    H169404   6.674   4.059   1.392  1.1743 -0.9483 -0.1062
15971TIP3    H269405   6.659   3.923   1.328  0.6859 -0.4818 -0.9959
15972TIP3   OH269406   1.341   4.634  14.865  0.2433 -0.3813  0.4850
15972TIP3    H169407   1.353   4.601  14.775  1.0878 -0.3065  0.5697
15972TIP3    H269408   1.348   4.729  14.856  1.5075 -0.4427  0.8114
15973TIP3   OH269409   0.476   3.901  12.232 -0.3385  0.1377 -0.3112
15973TIP3    H169410   0.526   3.820  12.218 -1.1274 -0.4400  0.1835
15973TIP3    H269411   0.490   3.923  12.324 -0.9025  0.0361 -0.2010
15974TIP3   OH269412   2.369   4.628   2.978 -0.8390  0.1689 -0.0726
15974TIP3    H169413   2.445   4.638   3.035 -1.6962  1.9346  0.8153
15974TIP3    H269414   2.384   4.690   2.907 -1.6783  0.9207  0.3885
15975TIP3   OH269415   2.672   5.047  11.128 -0.9809  0.1806 -0.4832
15975TIP3    H169416   2.604   4.988  11.160 -0.4951 -0.2085 -0.1480
15975TIP3    H269417   2.752   4.994  11.129 -0.7054  0.5752 -1.0466
15976TIP3   OH269418   6.795   1.942   0.650 -0.0021 -0.4917  0.3180
15976TIP3    H169419   6.770   2.011   0.589  0.5828 -0.9462 -0.4536
15976TIP3    H269420   6.717   1.889   0.660 -0.6951  0.7385  1.5494
15977TIP3   OH269421   1.534   3.034   4.256  0.0110  0.6508 -0.1616
15977TIP3    H169422   1.615   3.026   4.205 -1.1591  1.3621 -2.1843
15977TIP3    H269423   1.562   3.066   4.341  1.9645 -0.0160 -0.5345
15978TIP3   OH269424   2.850   4.818   1.612  0.1046  0.2406  0.5250
15978TIP3    H169425   2.770   4.781   1.574 -0.2112  0.7139  0.7286
15978TIP3    H269426   2.920   4.789   1.553 -0.0859 -1.0735  0.9398
15979TIP3   OH269427   1.314   1.335  12.905  0.7612  0.2284  0.2494
15979TIP3    H169428   1.269   1.252  12.924 -1.8079  1.4880 -0.1100
15979TIP3    H269429   1.354   1.320  12.819 -1.3993 -0.0067 -0.7595
15980TIP3   OH269430   1.274   0.350   0.130 -0.2766 -0.1933 -0.4468
15980TIP3    H169431   1.246   0.396   0.209  0.6320  1.1799 -0.9138
15980TIP3    H269432   1.206   0.371   0.065 -1.5178 -2.0754  0.2027
15981TIP3   OH269433   0.224   1.275   3.179 -0.3147 -0.1996  0.8649
15981TIP3    H169434   0.129   1.278   3.186 -0.4801  1.4122 -1.6259
15981TIP3    H269435   0.249   1.363   3.151  1.7956 -0.9855  0.1457
15982TIP3   OH269436   1.685   3.609   0.379  0.7675 -0.5417 -0.2213
15982TIP3    H169437   1.669   3.623   0.286 -1.0897 -0.9546  0.0170
15982TIP3    H269438   1.612   3.653   0.423  1.0741 -1.2129  0.9935
15983TIP3   OH269439   4.625   2.957   3.650  0.0895 -0.2424 -0.1410
15983TIP3    H169440   4.547   2.910   3.677 -0.2986  0.6612  0.3360
15983TIP3    H269441   4.644   3.016   3.723 -1.1105  2.4177 -1.9337
15984TIP3   OH269442   2.062   1.180   2.508  0.1295 -0.3100  0.1552
15984TIP3    H169443   2.151   1.210   2.485 -0.0570  0.6360  0.6222
15984TIP3    H269444   2.004   1.245   2.468 -0.3304 -0.6625  0.2500
15985TIP3   OH269445   5.503   1.975   0.645  0.1428 -0.5322 -0.4709
15985TIP3    H169446   5.420   2.022   0.656 -0.3184 -0.9186 -2.2273
15985TIP3    H269447   5.509   1.920   0.723 -1.5626 -0.9818 -0.6418
15986TIP3   OH269448   2.487   1.931  15.476 -0.0440  0.1718  0.0167
15986TIP3    H169449   2.574   1.901  15.449 -0.6344  0.4103 -2.3122
15986TIP3    H269450   2.433   1.919  15.398 -1.9410  0.7160  1.2123
15987TIP3   OH269451   3.876   1.076   4.819 -0.0544  0.2730 -0.1167
15987TIP3    H169452   3.910   1.028   4.895 -0.1579  1.5220  0.7380
15987TIP3    H269453   3.954   1.114   4.778 -0.1317  0.7420  0.1672
15988TIP3   OH269454   0.485   1.108  10.631  0.4041  0.1289  0.0872
15988TIP3    H169455   0.548   1.176  10.610  1.2509 -1.1930 -1.7435
15988TIP3    H269456   0.518   1.069  10.712  1.7935 -0.3590 -0.7042
15989TIP3   OH269457   3.302   1.786  14.607 -0.2122 -0.0345  0.1078
15989TIP3    H169458   3.364   1.791  14.681  0.0370  0.4828 -0.1342
15989TIP3    H269459   3.327   1.706  14.561  0.7265  0.5314 -0.3847
15990TIP3   OH269460   3.863   6.327  15.840 -0.5224  0.5517 -0.3437
15990TIP3    H169461   3.812   6.407  15.834  0.8259  1.4568  0.1212
15990TIP3    H269462   3.946   6.354  15.879 -0.4654 -1.2504  0.8417
15991TIP3   OH269463   3.603   3.388   2.591 -0.2641  0.5580 -0.4677
15991TIP3    H169464   3.578   3.394   2.499 -0.0394 -1.1788 -0.6574
15991TIP3    H269465   3.676   3.326   2.592  0.4673  1.4104  0.7538
15992TIP3   OH269466   6.629   2.547   2.943 -0.1154 -0.2187 -0.4038
15992TIP3    H169467   6.678   2.620   2.980  0.8469 -0.5704 -0.9374
15992TIP3    H269468   6.548   2.544   2.993 -1.2344  2.7083 -1.9392
15993TIP3   OH269469   1.974   0.272   6.525 -0.3702 -0.0420 -0.1527
15993TIP3    H169470   2.046   0.335   6.527 -0.7105  0.2969  1.8959
15993TIP3    H269471   2.018   0.187   6.526  0.0394  0.1453 -1.0885
15994TIP3   OH269472   4.531   5.513   0.542  0.0780  0.8831  0.2062
15994TIP3    H169473   4.473   5.477   0.608  1.4951 -2.7243 -0.4105
15994TIP3    H269474   4.474   5.536   0.469 -0.6298 -2.9332 -0.5381
15995TIP3   OH269475   1.809   4.509   1.036  0.0204 -0.0850  0.0273
15995TIP3    H169476   1.800   4.447   1.108  0.9676  0.1985  0.4090
15995TIP3    H269477   1.837   4.456   0.961 -0.4822 -0.3079 -0.0037
15996TIP3   OH269478   6.634   0.931   2.343 -0.0084  0.3659  0.3943
15996TIP3    H169479   6.650   0.899   2.432 -2.1493  0.4380  0.8462
15996TIP3    H269480   6.637   0.852   2.288 -2.3406 -0.2433  1.0825
15997TIP3   OH269481   1.924   2.252   1.495  0.2727 -0.0397 -0.1750
15997TIP3    H169482   2.003   2.289   1.455  1.1359 -0.4734  1.1287
15997TIP3    H269483   1.877   2.328   1.531  0.3771  0.1446 -0.4240
15998TIP3   OH269484   3.238   2.790  11.792 -0.6843 -0.3122 -0.0240
15998TIP3    H169485   3.306   2.726  11.815 -0.8959 -0.5688 -0.0974
15998TIP3    H269486   3.240   2.794  11.696  0.3215  0.8928  0.0408
15999TIP3   OH269487   0.207   6.237  13.785  0.5191  0.4004 -0.2063
15999TIP3    H169488   0.184   6.200  13.870  0.6153  2.0209  0.5429
15999TIP3    H269489   0.144   6.307  13.771 -0.0060 -0.3662 -1.8651
16000TIP3   OH269490   1.553   3.395   2.326  1.1719 -0.7041 -0.2150
16000TIP3    H169491   1.549   3.359   2.237 -0.8980  0.7226 -0.7270
16000TIP3    H269492   1.516   3.326   2.381 -0.8871 -0.2079 -0.9407
16001TIP3   OH269493   6.692   0.698  14.799  0.7733  0.4031 -0.5115
16001TIP3    H169494   6.632   0.735  14.734  0.5366 -1.4321 -1.3433
16001TIP3    H269495   6.638   0.685  14.876  0.5991  0.7065 -0.5774
16002TIP3   OH269496   0.944   4.401   0.633 -0.3646 -0.3461  0.4914
16002TIP3    H169497   0.888   4.327   0.658  0.7968 -0.7556  1.9470
16002TIP3    H269498   0.906   4.476   0.678  0.4899 -0.7007  1.8227
16003TIP3   OH269499   0.525   0.051   4.633  0.0369 -0.2067  0.1059
16003TIP3    H169500   0.491   0.081   4.718 -0.8461 -1.5847  0.2515
16003TIP3    H269501   0.558  -0.037   4.650 -0.7943 -0.7696 -1.1220
16004TIP3   OH269502   1.936   6.111  12.074  0.2209 -0.6736  0.0491
16004TIP3    H169503   2.028   6.133  12.062 -0.0088 -0.2769 -1.0388
16004TIP3    H269504   1.929   6.021  12.043  0.1425 -0.5272 -0.3621
16005TIP3   OH269505   1.803   6.424  12.537 -0.1213  0.0737  0.1753
16005TIP3    H169506   1.792   6.502  12.591 -0.5206 -0.0139  0.2197
16005TIP3    H269507   1.782   6.351  12.596 -0.4845 -0.0260 -0.0756
16006TIP3   OH269508   3.639   3.093  15.036  0.7607 -0.4584  0.0588
16006TIP3    H169509   3.571   3.113  14.972  1.0266  0.7547  0.1552
16006TIP3    H269510   3.591   3.055  15.110  0.2397 -0.0705 -0.0749
16007TIP3   OH269511   6.284   5.086   3.054  0.2462 -0.1704 -0.1864
16007TIP3    H169512   6.246   5.086   3.142 -0.5099 -1.2180 -0.5064
16007TIP3    H269513   6.221   5.134   3.000 -0.6551 -1.9304 -0.7220
16008TIP3   OH269514   0.321   1.612   1.206  0.4548  0.3096 -0.3648
16008TIP3    H169515   0.230   1.603   1.233  1.1414 -2.7020  1.1473
16008TIP3    H269516   0.357   1.677   1.266 -0.2608  0.2086  0.1890
16009TIP3   OH269517   3.949   5.547  16.703  0.0670 -0.3599 -0.2031
16009TIP3    H169518   3.960   5.516  16.613 -1.8487  0.0043 -0.5853
16009TIP3    H269519   3.938   5.642  16.695  1.5288 -0.0998  0.5808
16010TIP3   OH269520   1.017   1.950   1.033  0.3963 -0.0059  0.1984
16010TIP3    H169521   0.953   1.880   1.021 -0.6723  0.7776  1.1297
16010TIP3    H269522   1.102   1.909   1.018 -0.3477 -0.9630 -1.5299
16011TIP3   OH269523   3.715   5.746   4.923 -0.3994 -0.1541 -0.5169
16011TIP3    H169524   3.667   5.792   4.854 -2.8623 -2.6058 -0.5380
16011TIP3    H269525   3.789   5.705   4.879 -1.3701 -0.8512 -1.5124
16012TIP3   OH269526   0.763   2.877   2.230 -0.5304  0.0803 -0.1798
16012TIP3    H169527   0.688   2.827   2.263 -0.6230  0.9151  0.9204
16012TIP3    H269528   0.724   2.952   2.185 -0.3565  1.0705  1.2969
16013TIP3   OH269529   0.418   1.979  15.772  0.1957  0.3904  0.4866
16013TIP3    H169530   0.384   1.951  15.687  0.0160  0.9883  0.3549
16013TIP3    H269531   0.346   2.029  15.811  0.3203  0.2200  0.9395
16014TIP3   OH269532   6.020   2.520   1.967  0.3218  0.5757  0.2667
16014TIP3    H169533   6.043   2.588   1.904  0.8108  1.1260  1.0318
16014TIP3    H269534   6.075   2.445   1.942  1.1013  1.0572  0.5358
16015TIP3   OH269535   5.513   3.379   3.821 -0.3472 -0.0791  0.3658
16015TIP3    H169536   5.605   3.355   3.835  0.3582  0.2879 -3.0639
16015TIP3    H269537   5.510   3.473   3.837  0.2097  0.1541 -0.8084
16016TIP3   OH269538   3.304   0.458   0.107  0.0470  0.4211  0.8085
16016TIP3    H169539   3.227   0.402   0.099 -0.4212  1.1332  0.1966
16016TIP3    H269540   3.326   0.481   0.017  0.9150  0.3160  0.9863
16017TIP3   OH269541   5.527   0.256  14.762  0.0288 -0.0284 -0.6788
16017TIP3    H169542   5.578   0.316  14.815 -0.2410 -2.1580  2.0640
16017TIP3    H269543   5.580   0.176  14.757 -1.7895 -1.3028 -0.0816
16018TIP3   OH269544   6.324   2.471  12.853  0.2425 -0.0412  0.3063
16018TIP3    H169545   6.299   2.381  12.834  0.8585 -0.0587 -0.4341
16018TIP3    H269546   6.418   2.466  12.872  0.2652  0.4338  0.3278
16019TIP3   OH269547   2.698   1.520  15.483  0.9392 -0.1494  0.2946
16019TIP3    H169548   2.734   1.530  15.395  0.8952  2.7348  0.5510
16019TIP3    H269549   2.610   1.484  15.470  0.5440  1.2304 -0.9112
16020TIP3   OH269550   1.750   0.277   3.217  0.2616 -0.5391  0.2699
16020TIP3    H169551   1.783   0.367   3.215 -1.7784  0.2157 -0.7676
16020TIP3    H269552   1.829   0.223   3.229  1.7737  1.2559 -1.1411
16021TIP3   OH269553   0.412   1.324   2.203  0.0716 -0.4978  0.6796
16021TIP3    H169554   0.442   1.262   2.136  1.1907  0.3081  0.4130
16021TIP3    H269555   0.447   1.408   2.174 -3.3309  0.7142 -0.1929
16022TIP3   OH269556   4.349   0.736  13.993  0.1131  0.2040  0.6593
16022TIP3    H169557   4.274   0.713  13.938  0.5053  0.6409 -0.0725
16022TIP3    H269558   4.332   0.826  14.021  0.6285  0.5194  0.0073
16023TIP3   OH269559   4.439   1.055   3.486  0.2692 -0.5234  0.2015
16023TIP3    H169560   4.422   1.024   3.575 -0.1910 -2.8335 -0.6787
16023TIP3    H269561   4.364   1.112   3.467  0.3699 -0.0085  1.2712
16024TIP3   OH269562   4.162   2.284   0.445 -0.2053 -0.3238 -0.9611
16024TIP3    H169563   4.200   2.363   0.485 -1.3257  0.2673 -1.0384
16024TIP3    H269564   4.237   2.227   0.428  0.6812  0.9494 -1.3846
16025TIP3   OH269565   5.699   6.740  15.382  0.2217  0.4740 -0.0204
16025TIP3    H169566   5.663   6.741  15.293  0.2692 -1.2444 -0.0844
16025TIP3    H269567   5.630   6.778  15.436 -0.5788 -0.2420 -0.5292
16026TIP3   OH269568   1.734   5.381   5.747 -0.5111 -1.0453  0.5904
16026TIP3    H169569   1.727   5.315   5.679 -1.4203 -2.2141  1.7842
16026TIP3    H269570   1.781   5.337   5.819  0.1238  0.0442  0.8541
16027TIP3   OH269571   5.802   0.267   5.121  0.9877 -0.1115  0.2003
16027TIP3    H169572   5.722   0.305   5.084  0.5815 -0.5202  0.6588
16027TIP3    H269573   5.773   0.188   5.165  1.7240 -0.5310 -0.0610
16028TIP3   OH269574   6.021   3.156  14.057 -0.0782  0.3357 -0.0381
16028TIP3    H169575   6.011   3.169  14.151 -2.6049  1.7823 -0.4541
16028TIP3    H269576   6.102   3.107  14.048  1.5139  2.3106  2.7269
16029TIP3   OH269577   3.525   6.665  13.534  0.0793 -0.5638  0.2195
16029TIP3    H169578   3.556   6.735  13.477 -3.3440  0.0086 -1.1063
16029TIP3    H269579   3.533   6.586  13.482 -1.0274 -0.3545 -0.2803
16030TIP3   OH269580   4.037   1.702  10.888 -0.3290  0.2675  0.3787
16030TIP3    H169581   4.117   1.691  10.939 -1.0032 -1.2049  1.1374
16030TIP3    H269582   4.064   1.686  10.797  0.1421 -0.6909  0.6830
16031TIP3   OH269583   1.827   2.467  12.082  0.8424  0.8207  0.8886
16031TIP3    H169584   1.909   2.493  12.122  1.3350 -1.4999  1.4763
16031TIP3    H269585   1.852   2.399  12.019 -0.5153  0.7997  0.3587
16032TIP3   OH269586   1.737   6.494  11.236 -0.7155 -0.2354  0.1735
16032TIP3    H169587   1.656   6.545  11.244  0.3728  1.7290 -0.8829
16032TIP3    H269588   1.738   6.463  11.146 -0.9611 -1.4206  0.5760
16033TIP3   OH269589   1.530   0.661  15.042  0.0251  0.4949  0.1333
16033TIP3    H169590   1.510   0.681  14.950  0.0916  0.3802  0.0937
16033TIP3    H269591   1.619   0.693  15.054  0.6046 -0.9016 -0.2790
16034TIP3   OH269592   0.017   6.234  17.277 -0.1810 -0.0024  0.3134
16034TIP3    H169593  -0.000   6.165  17.340  0.4508  0.5734  1.1260
16034TIP3    H269594  -0.032   6.208  17.199 -0.5949 -0.9475  0.8824
16035TIP3   OH269595   6.158   5.156  13.749 -0.1587 -0.1704  0.4303
16035TIP3    H169596   6.103   5.128  13.676 -0.2350 -1.2855  0.9098
16035TIP3    H269597   6.102   5.216  13.800 -0.1536  0.4864 -0.3254
16036TIP3   OH269598   0.459   1.419   4.618 -0.0911  0.1762 -0.0627
16036TIP3    H169599   0.533   1.472   4.588 -0.6621  0.8942 -0.2210
16036TIP3    H269600   0.431   1.460   4.700 -0.4744  0.0618 -0.1324
16037TIP3   OH269601   2.314   2.834  11.102  0.3587  0.0348  0.0754
16037TIP3    H169602   2.308   2.930  11.108  0.9483  0.0198  0.9829
16037TIP3    H269603   2.290   2.815  11.012 -1.0331  0.9364  0.2333
16038TIP3   OH269604   0.020   5.297  13.824 -0.4328 -0.6441 -0.2626
16038TIP3    H169605   0.042   5.276  13.915 -0.5384  1.6089  0.3122
16038TIP3    H269606   0.017   5.393  13.821 -2.0721 -0.7099 -2.2516
16039TIP3   OH269607   6.315   2.104  11.346  0.1871  0.0172 -0.5217
16039TIP3    H169608   6.260   2.116  11.268  1.7754  1.3827 -1.4690
16039TIP3    H269609   6.254   2.116  11.419 -1.2087 -0.6623 -1.5405
16040TIP3   OH269610   2.496   5.428  11.027 -0.4757  0.1655  0.0155
16040TIP3    H169611   2.546   5.471  11.097  0.7752  1.2392 -1.4893
16040TIP3    H269612   2.434   5.495  10.998  0.0353  0.2594 -0.8959
16041TIP3   OH269613   1.058   4.163  10.936 -0.3116  0.1445 -0.3819
16041TIP3    H169614   0.987   4.110  10.901  1.4991 -1.7028 -1.4004
16041TIP3    H269615   1.103   4.196  10.859  0.8356  0.0124  0.2161
16042TIP3   OH269616   2.811   0.176  12.333 -0.3480 -0.6264  0.1233
16042TIP3    H169617   2.799   0.084  12.356  1.2049 -0.9188 -0.1990
16042TIP3    H269618   2.901   0.196  12.361 -0.3091  0.4943 -0.7957
16043TIP3   OH269619   2.841   5.924   1.776  0.4671  0.2407  0.6689
16043TIP3    H169620   2.769   5.969   1.821  2.0350  2.0573  1.4133
16043TIP3    H269621   2.912   5.924   1.839  1.7531  0.2041 -0.7551
16044TIP3   OH269622   6.659   2.812   2.206  0.0467 -0.2641 -0.2186
16044TIP3    H169623   6.691   2.734   2.250  0.0569 -0.0797  0.1034
16044TIP3    H269624   6.633   2.782   2.119  1.2071 -0.4051 -0.5327
16045TIP3   OH269625   2.795   2.019   5.783 -0.4306 -0.4381  0.1129
16045TIP3    H169626   2.732   2.022   5.711 -1.1972  0.5714  0.8121
16045TIP3    H269627   2.820   1.926   5.789 -1.1876 -0.7059 -0.7356
16046TIP3   OH269628   0.065   3.071   1.164 -0.0484 -0.2939  0.2255
16046TIP3    H169629   0.111   3.044   1.084  0.9905  1.3512  0.2429
16046TIP3    H269630   0.128   3.055   1.234 -1.0614 -2.0019  0.7871
16047TIP3   OH269631   3.596   4.275   5.674 -0.1608  0.1890  0.1136
16047TIP3    H169632   3.567   4.187   5.698  1.4367 -0.3056  0.3575
16047TIP3    H269633   3.637   4.309   5.753  0.8519  0.4233 -0.4951
16048TIP3   OH269634   4.343   1.484  15.952 -0.3867 -0.0020  0.3476
16048TIP3    H169635   4.385   1.462  16.035 -1.2881 -0.2632  0.7415
16048TIP3    H269636   4.412   1.525  15.900  0.8302 -1.9593  0.3338
16049TIP3   OH269637   6.169   1.695   5.108 -0.0282 -0.1446  1.0187
16049TIP3    H169638   6.246   1.749   5.089 -0.2939 -0.2027 -0.2442
16049TIP3    H269639   6.193   1.607   5.079 -1.1013  0.1313 -0.7504
16050TIP3   OH269640   5.783   6.793   6.228  0.6256  0.1567  0.3734
16050TIP3    H169641   5.855   6.843   6.266 -0.2787  0.5268  1.6497
16050TIP3    H269642   5.708   6.811   6.286 -0.2128 -1.0864 -0.2979
16051TIP3   OH269643   6.101   1.211   0.877 -0.6622 -0.6405  0.0251
16051TIP3    H169644   6.117   1.161   0.958 -1.7917  0.1498  0.7465
16051TIP3    H269645   6.186   1.250   0.856 -0.7264  0.5151  1.7813
16052TIP3   OH269646   4.771   2.169   3.449  0.0379  0.3793 -0.7745
16052TIP3    H169647   4.774   2.108   3.376  1.4990  0.4884 -0.8160
16052TIP3    H269648   4.810   2.249   3.415 -0.1345  0.7272 -0.1539
16053TIP3   OH269649   6.554   1.515   5.106 -0.2069 -0.1521  0.0238
16053TIP3    H169650   6.584   1.605   5.115  1.0620 -0.6518  1.0326
16053TIP3    H269651   6.567   1.494   5.014 -1.7505  1.1054 -0.4942
16054TIP3   OH269652   4.758   0.414  11.291  0.1655  0.0252  0.0231
16054TIP3    H169653   4.684   0.465  11.259  0.8369  0.9662 -0.0524
16054TIP3    H269654   4.753   0.332  11.242  0.2956  0.8399 -1.3907
16055TIP3   OH269655   1.397   0.929  16.741  0.1927 -0.4964 -0.3220
16055TIP3    H169656   1.314   0.974  16.732  0.9756  1.1057  0.3473
16055TIP3    H269657   1.456   0.975  16.681  0.4525 -2.0183 -1.2705
16056TIP3   OH269658   2.154   1.731   3.944 -0.0167 -0.6159 -0.3543
16056TIP3    H169659   2.089   1.695   3.883  0.3370 -0.8136 -0.6174
16056TIP3    H269660   2.102   1.777   4.009 -0.3286  0.8934 -1.6420
16057TIP3   OH269661   4.089   1.876  12.355  0.6820 -0.0056 -0.0751
16057TIP3    H169662   4.149   1.889  12.429  0.1462 -1.0930  0.5777
16057TIP3    H269663   4.119   1.937  12.288  0.9750  1.2340  1.1700
16058TIP3   OH269664   3.359   0.426   6.294 -0.4042  0.1133  0.1320
16058TIP3    H169665   3.284   0.367   6.281  0.2786 -0.5032 -1.1042
16058TIP3    H269666   3.425   0.371   6.337 -0.3629  0.4492  0.5066
16059TIP3   OH269667   1.092   0.584   3.891 -0.3996 -0.0719  0.5467
16059TIP3    H169668   1.097   0.654   3.956 -2.2204  0.8574 -0.2829
16059TIP3    H269669   0.998   0.571   3.877 -0.0463 -1.1340 -0.9412
16060TIP3   OH269670   0.805   3.824   0.009  0.3425 -0.3384 -1.0578
16060TIP3    H169671   0.877   3.795  -0.048 -0.1507  0.9453 -2.3603
16060TIP3    H269672   0.811   3.919   0.009  0.3091 -0.3189  1.0550
16061TIP3   OH269673   0.287   3.645  10.709 -0.1249  0.1541  0.0454
16061TIP3    H169674   0.253   3.580  10.648  2.0727  0.6391 -1.7767
16061TIP3    H269675   0.210   3.679  10.754 -1.5099 -2.1950 -0.4639
16062TIP3   OH269676   0.999   6.135  15.053 -0.5486  0.1482  0.1313
16062TIP3    H169677   0.967   6.225  15.059 -1.7201 -0.3519  2.0193
16062TIP3    H269678   1.074   6.132  15.111 -0.1695  0.0427 -0.3623
16063TIP3   OH269679   1.619   2.749   5.315 -0.1623  0.0027 -0.0017
16063TIP3    H169680   1.568   2.804   5.376  0.4260  0.9401 -0.3436
16063TIP3    H269681   1.558   2.682   5.287 -0.5031 -0.3411  1.4927
16064TIP3   OH269682   4.918   6.562  16.550  0.0304 -0.5917 -0.0719
16064TIP3    H169683   4.936   6.627  16.618 -0.4075 -1.5363  0.9472
16064TIP3    H269684   4.861   6.498  16.592  0.5062 -1.6802 -1.0572
16065TIP3   OH269685   6.549   5.268   6.157  0.0712  0.1596 -0.2678
16065TIP3    H169686   6.527   5.340   6.216  0.5326 -0.5095  0.7467
16065TIP3    H269687   6.465   5.228   6.135  0.0539 -1.2083  2.0563
16066TIP3   OH269688   0.192   4.410  13.657  0.0236 -0.0913 -0.2716
16066TIP3    H169689   0.270   4.456  13.690 -0.3239 -0.3309  0.9171
16066TIP3    H269690   0.227   4.351  13.590  0.8806 -0.2226  0.2744
16067TIP3   OH269691   3.618   4.565   2.321  0.0647  0.3730 -0.3643
16067TIP3    H169692   3.547   4.519   2.366 -0.6865  1.8964  0.0227
16067TIP3    H269693   3.575   4.607   2.247  0.6389  0.9940 -0.3410
16068TIP3   OH269694   2.142   1.686  12.751  0.0325  0.1272  0.2810
16068TIP3    H169695   2.086   1.742  12.805  0.4184 -0.1688  0.9861
16068TIP3    H269696   2.222   1.674  12.803 -0.0374 -1.0614  0.1283
16069TIP3   OH269697   4.679   4.034   1.216  0.0818 -0.4466  0.6838
16069TIP3    H169698   4.709   3.954   1.173 -1.4943  0.1694 -1.6418
16069TIP3    H269699   4.639   4.004   1.298  0.5071 -1.9074  0.3628
16070TIP3   OH269700   0.980   3.349   6.303 -0.5475  0.4001  0.8650
16070TIP3    H169701   1.040   3.397   6.246 -0.9988  1.2931  1.1337
16070TIP3    H269702   0.913   3.413   6.327 -1.8423 -0.6701  0.2420
16071TIP3   OH269703   0.553   4.269  13.733  0.5347 -0.2256 -0.3803
16071TIP3    H169704   0.562   4.307  13.646 -2.6129  1.6506  0.0275
16071TIP3    H269705   0.510   4.337  13.784  3.1688 -0.9619  2.9392
16072TIP3   OH269706   1.244   0.899  12.722  0.0301 -0.2699  0.1765
16072TIP3    H169707   1.216   0.978  12.769 -3.3386 -0.2599 -1.7377
16072TIP3    H269708   1.165   0.846  12.715  1.0860 -1.5326 -3.0211
16073TIP3   OH269709   1.313   2.992  17.048  0.0950 -0.0294  0.0127
16073TIP3    H169710   1.305   3.041  17.130 -0.4209  2.0779 -1.2686
16073TIP3    H269711   1.224   2.990  17.013  0.6394  0.7301 -1.4324
16074TIP3   OH269712   3.420   1.128  15.083 -0.1840 -0.4974 -0.6964
16074TIP3    H169713   3.388   1.068  15.016 -0.8426 -0.4562 -0.4193
16074TIP3    H269714   3.466   1.196  15.034 -0.5343 -0.5469 -1.0987
16075TIP3   OH269715   2.378   1.165  16.056  0.6815  0.1503 -0.0077
16075TIP3    H169716   2.338   1.232  16.001  1.4698  0.1588 -0.5776
16075TIP3    H269717   2.422   1.214  16.126 -0.8668  0.1151  1.0234
16076TIP3   OH269718   2.741   1.590   3.699  0.4895  0.0105 -0.0307
16076TIP3    H169719   2.703   1.662   3.748 -0.4930 -1.0221  0.7544
16076TIP3    H269720   2.720   1.512   3.751  2.6434 -0.7029 -0.1983
16077TIP3   OH269721   3.830   6.407  11.954  0.0744 -0.2259  0.0096
16077TIP3    H169722   3.770   6.360  11.895  0.2454  0.3861 -0.6580
16077TIP3    H269723   3.772   6.457  12.012 -0.0771 -0.2108 -0.1565
16078TIP3   OH269724   5.237   4.642   3.530  0.3185 -0.0048 -0.6259
16078TIP3    H169725   5.164   4.653   3.469 -0.0076 -1.8984 -0.6309
16078TIP3    H269726   5.311   4.685   3.488 -0.4656  0.7476 -1.2583
16079TIP3   OH269727   1.222   2.579   2.132 -0.6290  0.6400  0.1920
16079TIP3    H169728   1.313   2.595   2.157 -0.6675  1.2858 -0.0698
16079TIP3    H269729   1.220   2.593   2.037 -0.8391 -0.1419  0.0781
16080TIP3   OH269730   0.537   4.199   0.952  0.3718 -0.0251 -0.3826
16080TIP3    H169731   0.534   4.123   1.009 -1.0059  0.2302 -0.0962
16080TIP3    H269732   0.495   4.269   1.003 -2.7764 -0.3143 -2.4225
16081TIP3   OH269733   0.527   3.369  14.411 -0.3087  0.3522 -1.0862
16081TIP3    H169734   0.593   3.421  14.366 -0.1137 -0.3676 -1.6361
16081TIP3    H269735   0.555   3.368  14.503  1.1501 -1.0239 -1.5283
16082TIP3   OH269736   4.304   1.092  12.359 -0.2674 -0.4462 -0.2783
16082TIP3    H169737   4.367   1.157  12.391 -2.2873  0.3588  2.1986
16082TIP3    H269738   4.339   1.008  12.388 -0.5702  0.0372  1.5010
16083TIP3   OH269739   3.337   1.846   5.898 -0.3454  0.2068 -0.4495
16083TIP3    H169740   3.257   1.871   5.945  0.3407 -0.6622  1.2191
16083TIP3    H269741   3.327   1.753   5.882  0.3637  0.0832 -0.1807
16084TIP3   OH269742   1.743   3.714   5.462  0.2110 -0.3714 -0.5007
16084TIP3    H169743   1.733   3.779   5.393 -0.9261  0.2264  0.2122
16084TIP3    H269744   1.660   3.716   5.509  0.9716 -0.7540  0.8959
16085TIP3   OH269745   0.322   3.925  14.060  0.1620  0.2064  0.3372
16085TIP3    H169746   0.413   3.913  14.087  0.6428 -0.6003 -1.5203
16085TIP3    H269747   0.311   4.019  14.049  1.2221  0.1989 -0.8624
16086TIP3   OH269748   1.189   6.329  13.210 -0.3292 -0.6743 -0.6899
16086TIP3    H169749   1.267   6.284  13.179 -0.6312 -1.4101 -0.4073
16086TIP3    H269750   1.165   6.388  13.139 -0.9563 -2.2645 -1.8346
16087TIP3   OH269751   1.814   1.446   6.230  0.6039  0.3506  0.1268
16087TIP3    H169752   1.839   1.537   6.248 -0.2177  1.3777 -3.4930
16087TIP3    H269753   1.896   1.400   6.218  1.0069  0.8626  0.8986
16088TIP3   OH269754   5.805   2.798   4.305  0.1484  0.1931  0.1730
16088TIP3    H169755   5.785   2.887   4.278 -1.0141  0.0068  0.4144
16088TIP3    H269756   5.830   2.754   4.224 -2.0541 -0.0154 -0.4240
16089TIP3   OH269757   3.118   5.798   3.983  0.1343  0.0982 -0.2238
16089TIP3    H169758   3.136   5.717   3.936 -2.3429 -1.3986  1.3140
16089TIP3    H269759   3.048   5.841   3.934  0.8144  0.8736 -0.5306
16090TIP3   OH269760   2.411   3.159  16.222  0.0806 -0.0600  0.1841
16090TIP3    H169761   2.404   3.096  16.293 -1.9673 -1.0794 -0.8914
16090TIP3    H269762   2.334   3.215  16.232  0.5450  0.6967 -0.3828
16091TIP3   OH269763   6.358   4.358  12.207  0.1191  0.3894 -0.7074
16091TIP3    H169764   6.343   4.302  12.131 -0.7499 -0.8384  0.3438
16091TIP3    H269765   6.271   4.376  12.241  0.5419  0.0728  0.5908
16092TIP3   OH269766   2.321   4.987  16.459 -0.4364 -0.3972  0.1126
16092TIP3    H169767   2.323   4.918  16.392  0.9649  0.1847 -0.4588
16092TIP3    H269768   2.244   4.965  16.513 -0.0932 -2.3301 -0.1351
16093TIP3   OH269769   0.675   1.338   3.221 -0.3396 -0.1745  0.0493
16093TIP3    H169770   0.597   1.392   3.236 -0.4607 -0.3335 -0.0074
16093TIP3    H269771   0.649   1.278   3.151  0.9438  2.1069 -2.5301
16094TIP3   OH269772   6.737   4.831  14.532  0.7560  0.6471  0.3182
16094TIP3    H169773   6.663   4.826  14.472  1.4971  0.6259 -0.6240
16094TIP3    H269774   6.800   4.767  14.496  1.9811  1.9826  0.0211
16095TIP3   OH269775   4.304   1.520   1.032  0.0566  0.1893 -0.4868
16095TIP3    H169776   4.400   1.523   1.024  0.0933  1.0212  0.1581
16095TIP3    H269777   4.273   1.562   0.952  0.1817 -1.9998 -1.7076
16096TIP3   OH269778   3.580   3.537  14.911  0.6256 -0.2375 -0.1853
16096TIP3    H169779   3.551   3.599  14.977  1.1420  1.0101 -1.0993
16096TIP3    H269780   3.675   3.536  14.919  0.7955  0.8864 -1.7126
16097TIP3   OH269781   1.240   1.297  13.563  0.0711  0.0945 -0.8124
16097TIP3    H169782   1.272   1.232  13.626 -1.2645  0.3660  0.1521
16097TIP3    H269783   1.158   1.328  13.599  0.8212  2.5424 -1.1328
16098TIP3   OH269784   3.086   0.024  15.968 -0.2506 -0.2843 -0.0020
16098TIP3    H169785   3.112  -0.040  15.902  0.9188 -1.1196  1.2462
16098TIP3    H269786   2.996   0.000  15.990 -0.2457 -0.7230 -0.4404
16099TIP3   OH269787   1.722   2.788  15.563 -0.2310 -0.2993  0.2178
16099TIP3    H169788   1.812   2.794  15.596  0.0891  1.2937 -0.8516
16099TIP3    H269789   1.690   2.878  15.567 -1.5307 -0.7464 -0.0978
16100TIP3   OH269790   2.053   1.430   4.169 -0.4125 -0.3527 -0.5557
16100TIP3    H169791   1.982   1.370   4.192 -1.1500 -0.1809 -2.2749
16100TIP3    H269792   2.033   1.511   4.215 -1.2278 -0.3663 -0.8862
16101TIP3   OH269793   0.313   3.221   4.505 -0.0833  0.2421  0.1237
16101TIP3    H169794   0.327   3.316   4.496  0.5187  0.1571  0.1831
16101TIP3    H269795   0.218   3.210   4.493 -0.3200  0.9873  1.2231
16102TIP3   OH269796   4.511   4.133  13.390 -0.2740  0.3875  0.3735
16102TIP3    H169797   4.522   4.166  13.301 -0.8247  1.7501  0.8030
16102TIP3    H269798   4.417   4.113  13.398 -0.1040 -0.4335  0.4156
16103TIP3   OH269799   3.766   5.061   1.691  0.1941  0.2090  0.3616
16103TIP3    H169800   3.763   5.154   1.669  0.5622 -0.1962 -1.5331
16103TIP3    H269801   3.817   5.057   1.772  3.1186  1.4109 -1.3289
16104TIP3   OH269802   4.113   4.641   0.769 -0.0683  0.3759 -0.5665
16104TIP3    H169803   4.176   4.590   0.820 -0.6583 -1.9243 -2.0310
16104TIP3    H269804   4.135   4.732   0.786  1.4713 -0.3797  1.6176
16105TIP3   OH269805   2.919   1.006   2.513 -0.1959 -0.0861  0.3549
16105TIP3    H169806   2.859   1.060   2.462  1.2455  0.0616 -1.2374
16105TIP3    H269807   2.944   0.935   2.454  1.0336 -0.2517  1.0492
16106TIP3   OH269808   4.191   1.142  11.749  0.6476 -0.1351  0.3816
16106TIP3    H169809   4.264   1.193  11.714  0.7891  0.6117  1.7227
16106TIP3    H269810   4.140   1.205  11.799 -0.0335 -0.9898  0.7697
16107TIP3   OH269811   6.208   2.336   2.179 -0.4320  0.3343 -0.5874
16107TIP3    H169812   6.160   2.256   2.196 -1.9132  1.9946  3.6767
16107TIP3    H269813   6.288   2.328   2.232  0.6572  0.6404 -2.1241
16108TIP3   OH269814   3.117   6.356  16.657 -0.7050 -0.2831 -0.2870
16108TIP3    H169815   3.082   6.341  16.745 -1.3741 -0.0671 -0.5079
16108TIP3    H269816   3.079   6.287  16.603  1.1604 -1.5227 -0.0512
16109TIP3   OH269817   3.037   6.609   4.695 -0.6580  0.0571 -0.6002
16109TIP3    H169818   3.095   6.685   4.691  0.5011 -0.7325  0.4191
16109TIP3    H269819   3.097   6.534   4.702 -1.7924 -0.7656  0.6571
16110TIP3   OH269820   5.018   3.341  12.526  0.2993 -0.0587 -0.8088
16110TIP3    H169821   5.046   3.418  12.477  1.0601  0.5486  0.5545
16110TIP3    H269822   4.989   3.279  12.458  0.1715  1.2146 -1.9381
16111TIP3   OH269823   5.705   4.535  17.099  0.3674  0.4261  0.3643
16111TIP3    H169824   5.799   4.522  17.109  0.5251 -0.1018 -1.5235
16111TIP3    H269825   5.697   4.621  17.058 -0.0514  1.0953  1.8431
16112TIP3   OH269826   2.316   5.484   5.928 -0.0062 -0.2104 -0.1583
16112TIP3    H169827   2.302   5.559   5.986 -0.2115  0.7512 -1.4133
16112TIP3    H269828   2.407   5.493   5.899 -0.2575 -0.0190 -0.8968
16113TIP3   OH269829   0.720   4.111   4.324  0.5785 -0.2305  0.2582
16113TIP3    H169830   0.736   4.079   4.412  0.7972 -0.2930  0.1951
16113TIP3    H269831   0.795   4.080   4.273  1.2792  1.1779  0.4007
16114TIP3   OH269832   3.384   3.863   1.986 -0.2779 -0.0955  0.1649
16114TIP3    H169833   3.420   3.898   1.904 -1.4567  1.3962  0.2699
16114TIP3    H269834   3.461   3.832   2.034  0.7858  1.9935 -0.1136
16115TIP3   OH269835   5.903   6.147  14.876  0.4034  0.5009 -0.0384
16115TIP3    H169836   5.896   6.240  14.857  1.4224  0.2860 -1.5556
16115TIP3    H269837   5.879   6.103  14.794  0.4473 -0.5570  0.4978
16116TIP3   OH269838   3.051   6.549  16.361 -0.4890  0.0289 -0.0611
16116TIP3    H169839   3.119   6.505  16.310 -0.2034  2.9164 -2.3654
16116TIP3    H269840   3.099   6.605  16.422 -0.7816  0.8740 -0.5932
16117TIP3   OH269841   2.169   1.872  11.225  0.1577 -0.0823 -0.0737
16117TIP3    H169842   2.189   1.820  11.147 -0.7425  0.0522 -0.3939
16117TIP3    H269843   2.255   1.888  11.265  0.5364 -0.9549 -0.5152
16118TIP3   OH269844   6.363   5.957   1.725  0.3239  0.1972  0.2681
16118TIP3    H169845   6.371   5.914   1.811  1.9940 -0.2415 -0.0919
16118TIP3    H269846   6.426   5.911   1.670 -1.0105  0.2332 -1.3082
16119TIP3   OH269847   2.403   0.282  14.552  0.0339  0.0968 -0.4203
16119TIP3    H169848   2.362   0.351  14.604  2.1195 -0.1542  1.6394
16119TIP3    H269849   2.448   0.329  14.482 -0.7042  0.6250 -0.5470
16120TIP3   OH269850   3.263   0.450   2.877 -0.0621 -0.1178 -0.3339
16120TIP3    H169851   3.336   0.391   2.893  0.1917 -0.0118 -1.0750
16120TIP3    H269852   3.303   0.536   2.869 -0.2900 -0.0286 -0.5407
16121TIP3   OH269853   6.387   2.295  11.103  0.6858 -0.1388  0.3399
16121TIP3    H169854   6.430   2.251  11.031  1.4612  1.2700 -0.0933
16121TIP3    H269855   6.304   2.250  11.114  0.8827 -0.8288 -0.9489
16122TIP3   OH269856   1.882   4.793  12.777 -0.2727 -0.2785  0.0870
16122TIP3    H169857   1.898   4.724  12.713 -1.7501 -1.3991  0.8506
16122TIP3    H269858   1.903   4.874  12.732  1.1918 -1.2043 -0.9506
16123TIP3   OH269859   6.225   2.674  16.322 -0.1391 -0.4990 -0.1555
16123TIP3    H169860   6.243   2.580  16.316  0.1893 -0.4142 -0.5134
16123TIP3    H269861   6.264   2.711  16.243 -0.0109 -0.0234  0.1318
16124TIP3   OH269862   0.746   2.325  13.407 -0.3425  0.1131  0.4400
16124TIP3    H169863   0.742   2.325  13.311  0.2803 -1.3563  0.4039
16124TIP3    H269864   0.833   2.360  13.427  0.7239 -2.3830  0.3758
16125TIP3   OH269865   0.759   1.603   2.619 -0.2322 -0.3101  0.1135
16125TIP3    H169866   0.800   1.588   2.704 -1.7655 -0.6710  0.7998
16125TIP3    H269867   0.832   1.608   2.558  0.9591  1.1587  1.6281
16126TIP3   OH269868   6.344   1.837   0.312  0.7197  0.2557  0.7012
16126TIP3    H169869   6.272   1.805   0.368  1.6273 -0.7228  1.3145
16126TIP3    H269870   6.304   1.848   0.226 -0.1121 -0.4886  0.9843
16127TIP3   OH269871   1.637   0.334   4.069 -0.0146 -0.1072  0.1783
16127TIP3    H169872   1.623   0.269   4.000 -1.3098  1.2771 -0.9163
16127TIP3    H269873   1.556   0.334   4.119 -0.1166  0.8039  0.0291
16128TIP3   OH269874   5.651   2.559  12.537  0.1589  0.0343 -0.2692
16128TIP3    H169875   5.720   2.519  12.590  0.2040  0.1494 -0.2400
16128TIP3    H269876   5.577   2.567  12.597  0.4278  0.7891 -0.0395
16129TIP3   OH269877   2.369   5.069   3.593  0.1359  0.0850  0.3351
16129TIP3    H169878   2.375   5.002   3.525 -1.0989  1.3627 -1.0568
16129TIP3    H269879   2.410   5.028   3.670  0.8832 -1.6461 -0.9426
16130TIP3   OH269880   3.541   0.864  13.277  0.3506 -0.4137  0.4287
16130TIP3    H169881   3.496   0.780  13.267 -2.0134  0.6015  1.9170
16130TIP3    H269882   3.624   0.842  13.318 -1.5384 -1.7973  3.7306
16131TIP3   OH269883   6.819   4.253  10.396  0.4541  0.0511  0.3627
16131TIP3    H169884   6.915   4.258  10.392  0.5225 -0.4592  1.3027
16131TIP3    H269885   6.799   4.163  10.371  0.1096  0.6058 -1.4492
16132TIP3   OH269886   3.306   0.184  12.397 -0.4033  0.4228 -0.0703
16132TIP3    H169887   3.385   0.164  12.447  1.1616  0.9610 -2.2633
16132TIP3    H269888   3.337   0.200  12.308 -3.1015 -0.3984 -1.2160
16133TIP3   OH269889   5.162   4.766  13.224 -0.1106  0.3496 -0.2996
16133TIP3    H169890   5.200   4.692  13.271  0.2467 -0.9418 -2.5592
16133TIP3    H269891   5.074   4.737  13.200  0.0754  0.6099 -1.3039
16134TIP3   OH269892   1.031   5.364   4.373 -0.1697  0.2149  0.1079
16134TIP3    H169893   0.961   5.325   4.321  1.5494 -1.1380 -1.2356
16134TIP3    H269894   1.045   5.303   4.445  0.6579 -0.3278 -0.4926
16135TIP3   OH269895   4.827   0.626  14.242  0.1024  0.0894  0.6299
16135TIP3    H169896   4.913   0.625  14.199 -0.0418 -1.0920  0.3808
16135TIP3    H269897   4.765   0.607  14.173 -0.2406 -0.5135  1.1047
16136TIP3   OH269898   5.585   0.234  15.361 -0.3244 -0.3260 -0.7403
16136TIP3    H169899   5.504   0.273  15.329 -0.9534  1.5519  2.8291
16136TIP3    H269900   5.560   0.148  15.394 -0.7621 -0.0352 -0.2992
16137TIP3   OH269901   6.377   0.003  14.550 -0.0066  0.1093 -0.1074
16137TIP3    H169902   6.407   0.068  14.487 -2.1232  0.1978 -1.0601
16137TIP3    H269903   6.440   0.008  14.622  1.7061  0.8934 -1.6460
16138TIP3   OH269904   0.664   2.672   0.421 -0.0078  0.3103 -0.3139
16138TIP3    H169905   0.587   2.728   0.420 -1.9353 -2.2248 -3.2618
16138TIP3    H269906   0.646   2.606   0.489  0.0819  0.3482 -0.2516
16139TIP3   OH269907   5.912   1.556  13.847 -0.1817  0.0317 -0.0948
16139TIP3    H169908   5.938   1.586  13.760  0.4584  1.4487  0.5702
16139TIP3    H269909   5.950   1.469  13.855  1.7148  0.8103 -0.3751
16140TIP3   OH269910   5.305   0.628  13.177 -0.0149 -0.0202 -0.2163
16140TIP3    H169911   5.343   0.713  13.197 -0.6711 -0.0235  1.0587
16140TIP3    H269912   5.380   0.570  13.164  0.4551 -0.2333  3.1129
16141TIP3   OH269913   6.819   4.560   4.580  0.4360  0.1334 -0.3119
16141TIP3    H169914   6.790   4.550   4.489 -0.3415  0.5781 -0.1257
16141TIP3    H269915   6.904   4.603   4.574 -0.1674  1.2873 -0.7997
16142TIP3   OH269916   5.303   4.494   0.006 -0.2269  0.1055  0.1891
16142TIP3    H169917   5.210   4.474  -0.007  0.1620 -1.4874 -0.2880
16142TIP3    H269918   5.304   4.579   0.050 -1.8914  0.4341 -0.3752
16143TIP3   OH269919   2.550   3.467   4.557  0.0498  0.2417  0.2956
16143TIP3    H169920   2.599   3.543   4.526 -1.8331  1.3307 -0.1098
16143TIP3    H269921   2.557   3.404   4.485  0.1326  0.7232 -0.1273
16144TIP3   OH269922   6.533   3.615  14.325 -0.0979  0.2419 -0.5975
16144TIP3    H169923   6.461   3.675  14.304 -0.8094 -0.2711  0.3460
16144TIP3    H269924   6.541   3.559  14.248 -1.7829 -0.7526 -0.0797
16145TIP3   OH269925   3.998   6.394  15.276  0.2129 -0.2444  0.0646
16145TIP3    H169926   3.980   6.305  15.306 -2.6257 -0.2918 -1.5832
16145TIP3    H269927   3.984   6.449  15.352 -0.5855 -0.9749  0.4518
16146TIP3   OH269928   0.423   6.139  14.809  0.0799 -0.4305  0.1455
16146TIP3    H169929   0.507   6.130  14.764  0.3955  2.2016  0.1401
16146TIP3    H269930   0.387   6.050  14.811  1.5236 -1.1175 -2.4262
16147TIP3   OH269931   0.927   3.057   2.440 -0.1061  0.1497  0.4578
16147TIP3    H169932   1.005   3.113   2.443 -0.6006  0.8141  0.9383
16147TIP3    H269933   0.894   3.067   2.351 -1.0616  1.8335  0.9752
16148TIP3   OH269934   6.082   4.306  15.970  0.0105 -0.1026 -0.2524
16148TIP3    H169935   6.079   4.360  16.048  1.3912  0.0103 -0.2753
16148TIP3    H269936   6.150   4.241  15.988 -0.4521 -0.7787 -0.9061
16149TIP3   OH269937   1.952   6.682   4.867  0.3792 -0.5598  0.0315
16149TIP3    H169938   1.984   6.771   4.853  1.5017 -0.8906  0.4960
16149TIP3    H269939   1.930   6.651   4.779 -1.0436  0.5485 -0.0215
16150TIP3   OH269940   5.210   5.360   4.469  0.0960 -0.4492  0.2554
16150TIP3    H169941   5.164   5.401   4.396  0.6858  1.9276  1.1795
16150TIP3    H269942   5.300   5.349   4.437  0.1702 -0.1225  0.3529
16151TIP3   OH269943   1.526   0.682   3.962 -0.2767  0.6342 -0.3323
16151TIP3    H169944   1.544   0.694   3.869  2.2487  1.8091  0.2732
16151TIP3    H269945   1.467   0.607   3.966 -0.4951  0.6516 -2.8771
16152TIP3   OH269946   3.158   2.578  13.380  0.4706 -0.2331  0.1113
16152TIP3    H169947   3.089   2.577  13.447 -0.0788  0.7140 -0.4330
16152TIP3    H269948   3.164   2.487  13.352  0.7152 -0.6471  1.4533
16153TIP3   OH269949   4.329   6.375  16.755  0.3057 -0.1120  1.0093
16153TIP3    H169950   4.236   6.392  16.770  0.6165  2.3967  0.2960
16153TIP3    H269951   4.368   6.462  16.744  2.8754 -1.0700  2.0941
16154TIP3   OH269952   6.038   2.498   0.729  0.1720 -0.5511  0.1503
16154TIP3    H169953   6.005   2.477   0.816  0.0092  0.1158  0.2488
16154TIP3    H269954   6.127   2.463   0.728  0.4241  0.0601  0.8243
16155TIP3   OH269955   3.081   6.204   1.253  0.3826  0.2615  0.1669
16155TIP3    H169956   3.083   6.110   1.273  0.5049  0.1361 -0.4313
16155TIP3    H269957   3.172   6.231   1.252  0.4995 -0.1348 -2.0804
16156TIP3   OH269958   0.154   3.762   1.110 -0.1923  0.2154 -0.0446
16156TIP3    H169959   0.111   3.791   1.191 -0.4842 -3.5063  1.2719
16156TIP3    H269960   0.084   3.761   1.045 -0.2841  1.8403  0.0180
16157TIP3   OH269961   0.702   0.070   0.874  0.5052 -0.1072  0.3524
16157TIP3    H169962   0.754   0.137   0.830  0.5026  0.0173  0.5389
16157TIP3    H269963   0.716  -0.009   0.822 -1.1377  0.5108 -1.0850
16158TIP3   OH269964   2.473   3.140   6.536  0.1622  0.1717 -0.8641
16158TIP3    H169965   2.412   3.071   6.564  0.4391  0.2906  0.0622
16158TIP3    H269966   2.418   3.218   6.528 -0.1126 -0.0978 -1.6956
16159TIP3   OH269967   1.191   1.660  11.344  0.3783  0.0030 -0.2097
16159TIP3    H169968   1.253   1.730  11.325 -2.0991  1.5209 -3.1814
16159TIP3    H269969   1.197   1.602  11.267  0.9168 -1.9905  1.2828
16160TIP3   OH269970   1.095   0.044   0.987  0.0943  0.4782 -0.2875
16160TIP3    H169971   1.055   0.120   1.031  1.4327  0.5282  0.8959
16160TIP3    H269972   1.188   0.051   1.009  0.1208 -1.9152  0.4200
16161TIP3   OH269973   5.433   4.029   5.290  0.4280  0.0446 -0.0140
16161TIP3    H169974   5.460   3.937   5.287  2.3136  0.5066  1.6958
16161TIP3    H269975   5.509   4.075   5.324 -0.6427  2.2072 -0.4729
16162TIP3   OH269976   4.141   5.686  13.681 -0.1497 -0.0208 -0.4193
16162TIP3    H169977   4.220   5.738  13.668  0.6179 -1.2033 -0.4961
16162TIP3    H269978   4.164   5.622  13.749 -1.3300  0.2347  0.2429
16163TIP3   OH269979   4.344   6.497   2.277  0.5850 -0.5278  0.4196
16163TIP3    H169980   4.354   6.423   2.217  0.1397 -0.3464  0.1219
16163TIP3    H269981   4.320   6.456   2.361 -2.1375 -0.5694 -0.3524
16164TIP3   OH269982   0.918   5.817  13.733  0.5218 -0.5201 -0.5593
16164TIP3    H169983   0.943   5.888  13.791  0.6954  0.6751 -2.0677
16164TIP3    H269984   0.963   5.835  13.651 -0.7362 -1.4640 -1.4927
16165TIP3   OH269985   4.901   1.780  16.249 -0.0397 -0.1760 -0.0195
16165TIP3    H169986   4.889   1.865  16.293  2.9385  0.7171 -0.7714
16165TIP3    H269987   4.966   1.735  16.303 -0.8819 -1.5963 -0.1747
16166TIP3   OH269988   3.118   6.004  15.624  0.5279  0.8459  0.0243
16166TIP3    H169989   3.177   6.053  15.568  2.6772 -0.3582  1.1732
16166TIP3    H269990   3.115   5.916  15.586  2.5719 -0.1936  2.0849
16167TIP3   OH269991   4.687   6.775   0.790 -0.2766  0.4387  0.4117
16167TIP3    H169992   4.737   6.791   0.871  0.5607  1.4329 -0.2899
16167TIP3    H269993   4.727   6.696   0.753  0.0690  0.6191  0.3984
16168TIP3   OH269994   1.827   2.294   3.372  0.5709 -0.3254  0.3111
16168TIP3    H169995   1.918   2.324   3.368  0.0217  1.4890  0.7433
16168TIP3    H269996   1.826   2.231   3.444  1.9418 -2.0720 -1.1693
16169TIP3   OH269997   2.123   6.112  14.473  0.3829 -0.4360  0.2643
16169TIP3    H169998   2.146   6.204  14.457 -0.1147 -0.3896 -0.2078
16169TIP3    H269999   2.057   6.116  14.543 -0.9372 -0.3013 -0.9645
16170TIP3   OH270000   3.616   0.376   3.219  0.2266  0.8073  0.1133
16170TIP3    H170001   3.529   0.347   3.245  0.8802 -0.3493  1.0105
16170TIP3    H270002   3.676   0.312   3.256  1.2925  0.0062 -2.8375
16171TIP3   OH270003   3.044   3.377   6.512  0.1045 -0.0385 -0.4866
16171TIP3    H170004   2.970   3.416   6.466 -1.9262 -1.4603  1.4756
16171TIP3    H270005   3.055   3.291   6.471 -1.2894 -1.0425  1.1909
16172TIP3   OH270006   6.447   6.070  16.038  0.0293  0.2852  0.4682
16172TIP3    H170007   6.392   6.062  15.960  0.5430 -2.3364  0.3202
16172TIP3    H270008   6.482   6.159  16.034 -0.3942  0.3816 -1.9787
16173TIP3   OH270009   2.316   0.361   5.404  0.5288 -0.1892  0.4148
16173TIP3    H170010   2.284   0.272   5.417  2.3884 -0.8056  0.9342
16173TIP3    H270011   2.269   0.413   5.469  1.3858 -1.2800  1.9444
16174TIP3   OH270012   0.253   6.208   5.411 -0.0304  0.2803  0.2391
16174TIP3    H170013   0.279   6.129   5.365 -0.3522  0.4924 -0.3160
16174TIP3    H270014   0.312   6.276   5.379 -1.3611  0.8132 -1.2005
16175TIP3   OH270015   0.488   5.471   4.528 -0.5207 -0.0619  0.4296
16175TIP3    H170016   0.530   5.442   4.447 -0.5659 -1.7950  1.0169
16175TIP3    H270017   0.523   5.414   4.596 -2.2519 -0.1814  1.2585
16176TIP3   OH270018   5.098   6.117  12.812  0.0789 -0.2187  0.7476
16176TIP3    H170019   5.124   6.209  12.817  0.6359 -0.3215 -0.2322
16176TIP3    H270020   5.118   6.091  12.722 -1.5262 -0.8671  0.5631
16177TIP3   OH270021   4.206   4.483  13.723  0.7012 -0.4214 -0.0456
16177TIP3    H170022   4.114   4.467  13.703  0.2103  0.8544  1.1296
16177TIP3    H270023   4.246   4.396  13.723 -0.3798 -0.9311 -1.1298
16178TIP3   OH270024   3.640   1.098  16.371 -0.0787 -0.1226 -0.1750
16178TIP3    H170025   3.696   1.070  16.299  0.0868  0.8044 -0.4039
16178TIP3    H270026   3.660   1.191  16.382  0.3255 -0.3846  1.4387
16179TIP3   OH270027   2.837   2.819  11.050 -0.0114  0.4923  0.0845
16179TIP3    H170028   2.781   2.891  11.021 -1.6381 -0.5964  0.4570
16179TIP3    H270029   2.825   2.817  11.145 -0.5635 -0.7585 -0.0092
16180TIP3   OH270030   1.862   3.347  14.915  0.3116 -0.1311  0.3845
16180TIP3    H170031   1.909   3.311  14.990  0.5801 -0.7525 -0.0757
16180TIP3    H270032   1.773   3.314  14.925  0.1910  0.3202  0.7819
16181TIP3   OH270033   0.175   6.425  10.633 -0.1241  0.3284 -0.1394
16181TIP3    H170034   0.088   6.457  10.659 -0.2410  1.7251 -2.1075
16181TIP3    H270035   0.158   6.342  10.589 -0.2382 -0.4314  1.3089
16182TIP3   OH270036   4.247   1.707  16.741 -0.5694 -0.6303 -0.6636
16182TIP3    H170037   4.304   1.649  16.791  1.3444  0.2464 -1.7470
16182TIP3    H270038   4.224   1.656  16.663 -0.8397 -0.8058 -0.4654
16183TIP3   OH270039   2.602   1.717  14.864  0.1526  0.2686  0.2768
16183TIP3    H170040   2.597   1.792  14.805  0.4920 -1.0330 -1.4221
16183TIP3    H270041   2.696   1.704  14.879  0.0320  1.3901  2.1591
16184TIP3   OH270042   3.688   2.514   4.244  0.0587  0.7680 -0.0961
16184TIP3    H170043   3.756   2.580   4.260  1.1857 -0.4371  0.1885
16184TIP3    H270044   3.716   2.468   4.165 -0.3761  0.1917  0.0782
16185TIP3   OH270045   4.056   5.477   1.754 -0.0421  0.1971 -0.2165
16185TIP3    H170046   4.049   5.536   1.679 -1.3281  0.6251  0.2276
16185TIP3    H270047   3.986   5.413   1.742  0.0470 -0.0193  0.3690
16186TIP3   OH270048   1.072   1.995   3.165  0.1453  0.2995 -0.0546
16186TIP3    H170049   1.107   2.082   3.184 -3.3771  1.8485 -0.2504
16186TIP3    H270050   1.094   1.980   3.073  1.3916  0.6622  0.1728
16187TIP3   OH270051   3.768   4.948   6.096 -0.4248 -0.3244 -0.1633
16187TIP3    H170052   3.847   4.895   6.091  0.5729  1.0312  0.8463
16187TIP3    H270053   3.762   4.975   6.187 -3.0780 -1.8845  0.1798
16188TIP3   OH270054   4.388   2.691  12.033 -0.3536 -0.3971 -0.5877
16188TIP3    H170055   4.352   2.605  12.053  0.1994 -0.6421 -0.6312
16188TIP3    H270056   4.393   2.694  11.938 -2.9576  0.7606 -0.7195
16189TIP3   OH270057   4.302   4.296   4.760  0.1975  0.3139  0.0436
16189TIP3    H170058   4.366   4.272   4.828  0.2284  1.4678  0.4340
16189TIP3    H270059   4.317   4.389   4.745 -1.2123  0.5374 -0.0625
16190TIP3   OH270060   5.552   2.418  11.145 -0.0718  0.1163 -0.3744
16190TIP3    H170061   5.555   2.507  11.180  1.3220  0.0572 -0.3480
16190TIP3    H270062   5.643   2.392  11.135 -0.4490 -0.6852 -1.9879
16191TIP3   OH270063   5.445   5.773   0.186 -0.0689  0.1060 -0.5657
16191TIP3    H170064   5.374   5.709   0.189 -2.3492  2.5994  0.3476
16191TIP3    H270065   5.521   5.727   0.222 -2.0000 -1.6682  1.3388
16192TIP3   OH270066   2.277   1.619   5.880  0.1825  0.1489  0.1987
16192TIP3    H170067   2.308   1.636   5.969 -1.9966 -0.2032  1.0378
16192TIP3    H270068   2.193   1.664   5.875  0.1854 -0.0280 -1.6159
16193TIP3   OH270069   1.376   6.007  14.599 -0.3449 -0.5270  0.0682
16193TIP3    H170070   1.384   5.916  14.570  1.0327 -0.9449  1.6749
16193TIP3    H270071   1.285   6.016  14.625  0.0095 -2.1609  2.0537
16194TIP3   OH270072   3.429   2.111  10.963 -0.0968 -0.5956  0.2968
16194TIP3    H170073   3.363   2.133  11.029 -0.2193 -0.3500  0.0900
16194TIP3    H270074   3.405   2.162  10.886 -0.5022 -1.6038 -0.2515
16195TIP3   OH270075   2.658   2.141  12.767 -0.5371  0.4459  0.4949
16195TIP3    H170076   2.609   2.176  12.693  0.5678  1.6458  0.3037
16195TIP3    H270077   2.683   2.052  12.740  0.7664  1.2583 -1.0114
16196TIP3   OH270078   4.769   6.144  14.845 -0.0897  0.1320 -0.4913
16196TIP3    H170079   4.690   6.148  14.791 -0.4758  0.5483  0.1018
16196TIP3    H270080   4.833   6.197  14.798  0.0531 -0.7422 -1.3129
16197TIP3   OH270081   3.260   5.162  13.698 -0.5545 -0.8548  0.4817
16197TIP3    H170082   3.225   5.223  13.763  0.6261  0.2778  0.0754
16197TIP3    H270083   3.321   5.215  13.646 -0.3588 -2.1167 -0.5849
16198TIP3   OH270084   1.974   6.815   2.754  0.2883  0.3055  0.5544
16198TIP3    H170085   2.043   6.872   2.789 -0.4010  0.2762  1.9612
16198TIP3    H270086   1.986   6.732   2.798 -1.1166  0.5250  1.3660
16199TIP3   OH270087   6.395   2.282  16.746 -0.7519  0.2800  0.2650
16199TIP3    H170088   6.435   2.198  16.766  2.4339  1.3028 -1.3203
16199TIP3    H270089   6.382   2.280  16.651  1.6482  2.3930 -0.1877
16200TIP3   OH270090   3.940   6.280  11.058 -0.0121  0.1610  0.0156
16200TIP3    H170091   3.966   6.331  10.981  2.0320 -0.2039  0.4433
16200TIP3    H270092   3.983   6.323  11.132 -2.0691  0.5874  0.9887
16201TIP3   OH270093   2.793   6.298  12.733 -0.3611 -0.2517 -0.0275
16201TIP3    H170094   2.858   6.292  12.663  1.2367 -1.5482  1.5031
16201TIP3    H270095   2.709   6.292  12.689  0.5445  1.0500 -2.0265
16202TIP3   OH270096   2.651   0.769   1.010 -0.1897 -0.3315  0.2306
16202TIP3    H170097   2.705   0.696   0.979 -0.0340  0.0298 -0.3597
16202TIP3    H270098   2.699   0.804   1.085  1.6930  1.5493 -1.7907
16203TIP3   OH270099   2.728   2.869  13.919  0.3454  0.4946  0.5424
16203TIP3    H170100   2.772   2.803  13.865  0.7371 -1.2627  2.9285
16203TIP3    H270101   2.642   2.830  13.938 -0.1577  1.5233  0.4154
16204TIP3   OH270102   0.807   1.556  16.521 -0.4088  0.1476  0.0145
16204TIP3    H170103   0.851   1.536  16.439 -0.1619  1.2038 -0.1167
16204TIP3    H270104   0.751   1.632  16.501 -0.6521  0.1586  0.7145
16205TIP3   OH270105   4.248   2.751  16.337 -0.3269  0.0794  0.2841
16205TIP3    H170106   4.234   2.702  16.256  0.2234 -0.7460  0.6867
16205TIP3    H270107   4.330   2.797  16.324 -1.2893  1.6388 -0.4470
16206TIP3   OH270108   1.187   4.177   2.885 -0.0490 -0.3348 -0.9604
16206TIP3    H170109   1.253   4.115   2.853 -1.4743 -1.5938 -1.5429
16206TIP3    H270110   1.110   4.161   2.829 -0.5915  1.6700 -0.8313
16207TIP3   OH270111   4.639   4.381   5.524  0.1658 -0.1358 -0.5603
16207TIP3    H170112   4.728   4.416   5.527  0.3114 -0.4721 -0.9398
16207TIP3    H270113   4.586   4.446   5.570  0.7369 -0.3261  0.3715
16208TIP3   OH270114   5.725   0.192  15.866  0.1444 -0.0275 -0.5440
16208TIP3    H170115   5.651   0.140  15.835 -0.2840  0.9362 -1.1712
16208TIP3    H270116   5.717   0.191  15.961 -0.1294 -0.7046 -0.5669
16209TIP3   OH270117   6.181   4.548  12.321 -0.2884 -0.1006 -0.0468
16209TIP3    H170118   6.228   4.611  12.376  0.9734  0.2275 -1.4557
16209TIP3    H270119   6.148   4.483  12.382  2.0929 -0.3847  0.9861
16210TIP3   OH270120   5.355   0.377  12.011 -0.0862 -0.8496  0.1024
16210TIP3    H170121   5.295   0.333  12.071 -0.1582  0.0726  0.7271
16210TIP3    H270122   5.333   0.470  12.020 -0.2819 -0.7158 -1.5588
16211TIP3   OH270123   5.700   1.624   5.040 -0.2568  0.7448 -0.4123
16211TIP3    H170124   5.681   1.595   5.129 -0.5254  0.2393 -0.6352
16211TIP3    H270125   5.778   1.679   5.049  0.3487 -0.1611 -0.0086
16212TIP3   OH270126   6.432   3.895  15.490  0.1976  0.3860  0.2692
16212TIP3    H170127   6.440   3.984  15.523 -1.2381  0.2785  0.9855
16212TIP3    H270128   6.516   3.854  15.511  0.4738  1.2604  0.9067
16213TIP3   OH270129   5.739   4.017   4.558  0.1237 -0.5457  0.7433
16213TIP3    H170130   5.794   3.946   4.525 -1.8874 -1.9172  0.2522
16213TIP3    H270131   5.737   4.082   4.488  1.9383  0.0159  1.1778
16214TIP3   OH270132   3.219   4.558  13.383 -0.5587  0.7310  0.1456
16214TIP3    H170133   3.146   4.565  13.322  0.3732 -0.8088 -1.1910
16214TIP3    H270134   3.272   4.636  13.366 -1.2568  1.2394  0.2801
16215TIP3   OH270135   0.123   4.564   5.483 -0.2021  0.0348  0.2034
16215TIP3    H170136   0.030   4.578   5.503 -0.3098 -0.3744 -0.0084
16215TIP3    H270137   0.153   4.503   5.550 -0.8328 -2.1978 -1.4944
16216TIP3   OH270138   2.518   0.355   5.224  0.0207  0.0270 -0.2615
16216TIP3    H170139   2.455   0.352   5.296 -2.0032 -0.5808 -2.0081
16216TIP3    H270140   2.554   0.444   5.228 -1.9368  0.8381 -0.0378
16217TIP3   OH270141   1.487   0.390   2.068 -0.6887  0.4557 -0.3600
16217TIP3    H170142   1.578   0.410   2.088  0.1957 -2.1677 -1.4536
16217TIP3    H270143   1.458   0.463   2.014  1.5458  0.1359 -2.0750
16218TIP3   OH270144   0.488   6.337  16.337 -0.0533 -0.1023  0.2339
16218TIP3    H170145   0.440   6.290  16.269 -2.0528  0.4942  1.2175
16218TIP3    H270146   0.444   6.422  16.344  1.0459  0.4018  1.2598
16219TIP3   OH270147   3.786   0.471   0.453  0.2621  0.2037  0.0729
16219TIP3    H170148   3.783   0.566   0.445 -1.5434  0.1896  0.2177
16219TIP3    H270149   3.749   0.453   0.540  1.3463 -0.5988  0.3862
16220TIP3   OH270150   0.387   6.290   1.942  0.3470 -0.3697 -0.0923
16220TIP3    H170151   0.461   6.270   1.884  0.0359  0.3387 -0.7429
16220TIP3    H270152   0.313   6.243   1.904  0.2408 -0.2693 -0.0115
16221TIP3   OH270153   2.382   5.520   0.820  0.8411  0.3737  0.0359
16221TIP3    H170154   2.434   5.492   0.744  1.3190  0.7522  0.2236
16221TIP3    H270155   2.425   5.599   0.851 -0.4959  1.3185 -0.4750
16222TIP3   OH270156   1.510   4.330   5.907  0.2170 -0.0421  0.0704
16222TIP3    H170157   1.428   4.320   5.860 -0.1810  2.3897  0.1711
16222TIP3    H270158   1.555   4.401   5.862  1.8769 -0.7726  0.5548
16223TIP3   OH270159   0.374   0.165  16.241  1.0677 -0.7984  0.0196
16223TIP3    H170160   0.376   0.213  16.324 -0.5282 -0.9109  0.1519
16223TIP3    H270161   0.466   0.154  16.217  1.4995  1.5914  0.4030
16224TIP3   OH270162   4.252   2.342   5.726  0.4695 -0.4968 -0.0490
16224TIP3    H170163   4.243   2.436   5.740  1.5780 -0.3550 -0.2040
16224TIP3    H270164   4.320   2.316   5.788  2.0696 -0.7075 -1.8657
16225TIP3   OH270165   2.988   4.394   0.501 -0.3505  0.2597  0.7774
16225TIP3    H170166   2.948   4.308   0.487 -0.6081  0.4399  0.4130
16225TIP3    H270167   3.036   4.412   0.420  1.4766 -0.4980  1.6658
16226TIP3   OH270168   5.710   6.693  13.931 -0.1052  0.1675 -0.3449
16226TIP3    H170169   5.616   6.705  13.942  0.0601  0.9068  0.3700
16226TIP3    H270170   5.719   6.614  13.878 -1.1179 -0.1160 -0.0965
16227TIP3   OH270171   4.185   4.177   3.858  0.1566 -0.1473 -0.1018
16227TIP3    H170172   4.166   4.206   3.948 -0.1232  0.3704 -0.3260
16227TIP3    H270173   4.262   4.227   3.833  1.3449 -1.6409  0.5088
16228TIP3   OH270174   2.012   5.702  11.687  0.2447  0.3513  0.0328
16228TIP3    H170175   1.940   5.653  11.646  0.3858  0.3667 -0.2373
16228TIP3    H270176   1.969   5.766  11.743 -0.0069  1.5557 -1.5050
16229TIP3   OH270177   1.508   1.573   5.954  0.6326  0.0206  0.2638
16229TIP3    H170178   1.460   1.534   5.881 -1.3828  0.6730  1.1928
16229TIP3    H270179   1.510   1.505   6.021  0.9288  0.0198  0.2539
16230TIP3   OH270180   0.585   1.558   5.263  0.4972  0.1553 -0.0037
16230TIP3    H170181   0.516   1.506   5.304 -0.1085  1.3376  0.4982
16230TIP3    H270182   0.597   1.633   5.321  1.7016  0.3437 -0.4673
16231TIP3   OH270183   3.620   5.473   3.699 -0.0505 -0.8105 -0.2454
16231TIP3    H170184   3.674   5.540   3.741 -0.7941 -0.1886 -0.2930
16231TIP3    H270185   3.677   5.436   3.631  0.9081 -1.3243  0.8075
16232TIP3   OH270186   0.179   0.330  14.732  0.2027 -0.6009  0.1513
16232TIP3    H170187   0.210   0.317  14.643  2.2061  1.8610  0.4330
16232TIP3    H270188   0.107   0.392  14.725  0.5792 -0.1473  0.2689
16233TIP3   OH270189   1.277   3.262  16.081 -0.4235 -0.2170 -0.1443
16233TIP3    H170190   1.288   3.168  16.068  0.4406 -0.6924  3.4667
16233TIP3    H270191   1.366   3.297  16.074 -0.7999  0.4452 -1.9395
16234TIP3   OH270192   3.384   0.701   1.866 -0.4012 -0.6718 -0.0341
16234TIP3    H170193   3.303   0.652   1.880 -0.5866 -0.0847  1.0811
16234TIP3    H270194   3.425   0.660   1.790 -0.7909 -2.2282  0.5650
16235TIP3   OH270195   0.151   4.175  15.908 -0.4154  0.2951  0.3841
16235TIP3    H170196   0.203   4.101  15.939  0.8880  0.5093 -1.2585
16235TIP3    H270197   0.099   4.139  15.836  1.1861  1.2377 -1.2992
16236TIP3   OH270198   4.088   5.799  10.960 -0.1467  0.3179  0.0393
16236TIP3    H170199   4.161   5.745  10.990 -0.3354  0.5819  0.9981
16236TIP3    H270200   4.121   5.888  10.961  0.4205  0.1500 -2.3459
16237TIP3   OH270201   5.422   2.661   0.396  0.2443  0.3451  0.2278
16237TIP3    H170202   5.442   2.739   0.448  1.5866  1.1089 -1.3733
16237TIP3    H270203   5.428   2.588   0.459 -0.2215  1.4396  1.5626
16238TIP3   OH270204   0.017   4.426   0.403 -0.1250  0.0909 -0.4150
16238TIP3    H170205  -0.037   4.402   0.327  0.5860 -1.3995 -0.4730
16238TIP3    H270206  -0.045   4.427   0.476 -0.1956 -2.1551 -0.3854
16239TIP3   OH270207   4.119   0.398  10.917 -0.4084 -0.0784  0.1285
16239TIP3    H170208   4.027   0.405  10.944 -0.2178 -0.5968  0.9258
16239TIP3    H270209   4.120   0.326  10.855 -0.8099  0.9740 -1.1238
16240TIP3   OH270210   2.269   2.353  13.315  0.1182  0.9135  0.4992
16240TIP3    H170211   2.335   2.415  13.346  0.4086  1.1926 -0.6634
16240TIP3    H270212   2.247   2.383  13.227 -1.9591  1.1433  1.0684
16241TIP3   OH270213   0.562   5.925   2.092 -0.0195  0.0107  0.1753
16241TIP3    H170214   0.593   5.838   2.116  1.7402  0.3212 -0.8917
16241TIP3    H270215   0.553   5.971   2.175  0.5595 -0.6873  0.6384
16242TIP3   OH270216   3.143   6.231  11.827 -0.3885 -1.0586 -0.6808
16242TIP3    H170217   3.199   6.231  11.750 -2.2515 -2.4717 -2.0868
16242TIP3    H270218   3.185   6.168  11.887 -0.8125 -2.6473 -2.0119
16243TIP3   OH270219   0.376   6.328   2.545  0.4954 -0.0915  0.4488
16243TIP3    H170220   0.351   6.264   2.479 -0.9150 -0.6752  1.5212
16243TIP3    H270221   0.303   6.389   2.549  1.0470  0.5657  0.6900
16244TIP3   OH270222   2.457   2.297  14.043  0.3072 -0.1114 -0.0039
16244TIP3    H170223   2.519   2.345  13.989 -0.5604  0.3474 -0.6192
16244TIP3    H270224   2.393   2.363  14.071 -1.4557 -1.0282 -1.6700
16245TIP3   OH270225   0.426   5.871  14.828 -0.2158  0.3994 -0.1334
16245TIP3    H170226   0.394   5.843  14.914 -0.0377  0.0227 -0.1930
16245TIP3    H270227   0.357   5.844  14.767  0.2953 -0.5556 -0.2830
16246TIP3   OH270228   5.315   5.427  15.187 -0.4426  0.1063  0.0397
16246TIP3    H170229   5.280   5.380  15.112 -0.2707 -0.3538  0.2459
16246TIP3    H270230   5.250   5.495  15.205 -1.0072 -0.4639  0.1528
16247TIP3   OH270231   6.025   4.707   1.827  0.2557  0.6125 -0.3227
16247TIP3    H170232   6.110   4.719   1.784  0.4256  1.6356  0.2944
16247TIP3    H270233   5.967   4.771   1.784 -0.3102 -0.3363 -1.0034
16248TIP3   OH270234   3.681   0.716   1.406  0.2921  0.7062 -1.1457
16248TIP3    H170235   3.769   0.689   1.433 -0.8899 -0.4677  1.6432
16248TIP3    H270236   3.642   0.637   1.368 -0.6601  0.3565  0.5245
16249TIP3   OH270237   1.978   1.635  15.550  0.5501  0.0755  0.0898
16249TIP3    H170238   1.946   1.588  15.473  1.4113 -0.0219 -0.2072
16249TIP3    H270239   2.071   1.650  15.532  0.5974  0.6351  0.8147
16250TIP3   OH270240   4.972   6.418   2.161 -0.0605 -0.0133  0.0389
16250TIP3    H170241   5.030   6.365   2.216  0.6611  0.0051 -0.7023
16250TIP3    H270242   4.986   6.507   2.192 -0.9701 -0.1947  1.0094
16251TIP3   OH270243   4.132   0.893  11.632 -0.3430  0.1767 -0.2086
16251TIP3    H170244   4.165   0.971  11.676  2.7480  0.5256 -2.9388
16251TIP3    H270245   4.206   0.832  11.634 -2.0077 -1.8955 -0.0516
16252TIP3   OH270246   1.382   1.602   2.514 -0.3741 -0.2823 -0.0414
16252TIP3    H170247   1.330   1.545   2.571  1.8583 -1.6929  0.6732
16252TIP3    H270248   1.420   1.667   2.573  1.6537 -1.5293  0.0739
16253TIP3   OH270249   4.554   5.509  14.976 -0.0188 -0.2824  0.6057
16253TIP3    H170250   4.527   5.601  14.980  2.0770  0.3272  1.0859
16253TIP3    H270251   4.491   5.469  14.916  0.0962  1.8580 -1.0308
16254TIP3   OH270252   5.260   3.774  16.583  0.2812  0.1816  0.5005
16254TIP3    H170253   5.304   3.759  16.499  0.4523  0.2410  0.5784
16254TIP3    H270254   5.307   3.716  16.644  1.2150  1.3381  0.8909
16255TIP3   OH270255   0.054   2.054  11.625 -0.5457 -0.0544  0.4184
16255TIP3    H170256  -0.018   2.101  11.668 -0.4151  0.4729  0.0710
16255TIP3    H270257   0.125   2.057  11.689 -1.2712 -1.8043  1.3312
16256TIP3   OH270258   1.516   3.913   5.983 -0.4834  0.2684  0.2821
16256TIP3    H170259   1.576   3.954   5.922 -1.6023  0.2333 -0.8637
16256TIP3    H270260   1.570   3.854   6.035  0.5167  0.4978 -0.4870
16257TIP3   OH270261   5.063   4.425  16.044  0.3196 -0.1555  1.1744
16257TIP3    H170262   5.103   4.385  15.966  0.3912  0.3684  0.9393
16257TIP3    H270263   4.980   4.379  16.056  0.1518 -0.0016  0.5878
16258TIP3   OH270264   2.071   2.116   5.647  0.0059  0.0486  0.2208
16258TIP3    H170265   2.047   2.080   5.562 -0.6872  0.3013  0.3113
16258TIP3    H270266   2.053   2.210   5.640 -0.3876  0.0195  0.7601
16259TIP3   OH270267   6.188   6.725   2.592 -0.3292  0.5329 -0.0953
16259TIP3    H170268   6.209   6.717   2.685  0.9776  2.0141 -0.2320
16259TIP3    H270269   6.168   6.818   2.580 -2.3185  0.0318 -0.9559
16260TIP3   OH270270   3.456   2.668   6.395  0.1057 -0.4141 -0.1866
16260TIP3    H170271   3.473   2.760   6.373 -1.1066 -0.4086 -1.1696
16260TIP3    H270272   3.516   2.619   6.338 -0.1687 -0.2668 -0.6063
16261TIP3   OH270273   3.646   5.365   2.443  0.4153  0.2448  0.7541
16261TIP3    H170274   3.658   5.272   2.459 -1.9901 -0.1140  0.6932
16261TIP3    H270275   3.656   5.375   2.348  0.4154  0.0022  0.7288
16262TIP3   OH270276   2.468   5.660   5.734  0.4403  0.0482  0.6355
16262TIP3    H170277   2.504   5.701   5.655 -2.2042 -0.0824 -0.6870
16262TIP3    H270278   2.526   5.586   5.751  1.7429  0.7864 -0.4598
16263TIP3   OH270279   5.824   0.809   6.042  0.0359 -0.4767  0.3662
16263TIP3    H170280   5.786   0.883   6.090  0.4279  0.1947 -0.3519
16263TIP3    H270281   5.913   0.838   6.021  0.3686 -1.3643  0.5409
16264TIP3   OH270282   2.683   0.189   2.222  0.0025  0.4602  1.0487
16264TIP3    H170283   2.725   0.229   2.147 -0.0499  2.7257  2.1980
16264TIP3    H270284   2.666   0.099   2.195  2.0674  0.5902 -0.8119
16265TIP3   OH270285   3.839   6.396  13.268 -0.1232 -0.2085  0.3414
16265TIP3    H170286   3.884   6.475  13.240 -0.3757 -0.4776 -0.8384
16265TIP3    H270287   3.825   6.346  13.188 -0.9632 -0.9342  0.9220
16266TIP3   OH270288   3.354   4.576   4.459  0.3023  0.4656  0.3125
16266TIP3    H170289   3.333   4.506   4.520  0.1926  0.4482  0.2555
16266TIP3    H270290   3.360   4.654   4.514 -0.3318  0.5452  0.2749
16267TIP3   OH270291   3.580   6.720  15.283 -0.5256 -0.2433  0.3458
16267TIP3    H170292   3.668   6.739  15.249  0.0274 -1.1676  1.2357
16267TIP3    H270293   3.538   6.805  15.291  1.1322  0.4402  2.1561
16268TIP3   OH270294   5.481   2.365   0.840 -0.0132  0.4945 -0.2144
16268TIP3    H170295   5.439   2.283   0.867  1.2608 -0.2490 -0.4779
16268TIP3    H270296   5.465   2.370   0.746  1.3473 -0.2866 -0.4863
16269TIP3   OH270297   4.538   5.654   0.129 -0.3039 -0.8543  0.4566
16269TIP3    H170298   4.502   5.565   0.130  0.5276 -1.2088 -0.0445
16269TIP3    H270299   4.605   5.654   0.197 -1.0878 -0.2684  1.2309
16270TIP3   OH270300   5.467   3.182   4.891  0.2288 -0.0974 -0.4611
16270TIP3    H170301   5.555   3.148   4.908  0.9368  0.1703 -3.3954
16270TIP3    H270302   5.420   3.168   4.974  3.4974  1.3928  1.7692
16271TIP3   OH270303   5.608   4.269  11.649 -0.7331  0.5295 -0.2570
16271TIP3    H170304   5.534   4.247  11.705  0.7114 -0.7627  1.2204
16271TIP3    H270305   5.675   4.204  11.672  0.7448  1.4997 -1.7395
16272TIP3   OH270306   3.778   2.759  16.866  0.5724  0.7364  0.2554
16272TIP3    H170307   3.715   2.742  16.796 -1.3485 -0.3643  2.1821
16272TIP3    H270308   3.864   2.747  16.825 -0.4290  2.6381 -2.5113
16273TIP3   OH270309   3.029   5.469  16.669 -0.0706  0.3241  0.0045
16273TIP3    H170310   3.073   5.467  16.585 -0.8150  2.3479 -0.4693
16273TIP3    H270311   2.936   5.472  16.647 -0.2536  1.3351  0.8760
16274TIP3   OH270312   1.245   6.584   4.471  0.2122 -0.0535  0.1795
16274TIP3    H170313   1.241   6.662   4.526 -1.7017 -0.4660  0.6604
16274TIP3    H270314   1.337   6.577   4.446  0.6406  1.5964  1.2188
16275TIP3   OH270315   0.299   4.057   0.833  0.1599 -0.4474  0.4394
16275TIP3    H170316   0.302   4.147   0.865 -0.6202  0.2423 -1.3919
16275TIP3    H270317   0.205   4.035   0.833  0.3672 -1.3605  1.1399
16276TIP3   OH270318   1.382   3.064  12.062 -0.0352 -0.0161 -0.8458
16276TIP3    H170319   1.330   3.022  12.130 -2.6663  2.8084 -1.0101
16276TIP3    H270320   1.426   2.992  12.017 -0.5373 -2.1348  1.9743
16277TIP3   OH270321   3.121   2.244  11.030 -0.5606 -0.0445 -0.1743
16277TIP3    H170322   3.040   2.223  10.984  1.4865 -0.8145 -3.6409
16277TIP3    H270323   3.104   2.328  11.073 -3.0532 -0.0026 -1.1893
16278TIP3   OH270324   4.332   5.682  11.043 -0.2224 -0.3428  0.3805
16278TIP3    H170325   4.257   5.655  11.096 -1.3421  0.8842 -0.5669
16278TIP3    H270326   4.406   5.679  11.104 -1.4655  0.9629  2.0116
16279TIP3   OH270327   3.716   6.467   0.045 -0.3271 -0.4411  0.0864
16279TIP3    H170328   3.671   6.397   0.092 -0.5533 -0.2462  0.1632
16279TIP3    H270329   3.803   6.470   0.085 -0.1459 -1.0186 -0.2647
16280TIP3   OH270330   5.958   4.767  13.747 -0.0417 -0.0727 -0.2914
16280TIP3    H170331   6.047   4.795  13.766  0.4582 -1.8623  0.0463
16280TIP3    H270332   5.913   4.772  13.831  0.3066 -1.2107 -0.0344
16281TIP3   OH270333   4.158   2.854  11.908  0.6459  0.5925 -0.3935
16281TIP3    H170334   4.183   2.815  11.991  1.7367  0.8999 -0.5640
16281TIP3    H270335   4.164   2.782  11.845  2.2006  0.8870 -0.6235
16282TIP3   OH270336   3.756   1.743   4.824 -0.0385 -0.7876 -0.2712
16282TIP3    H170337   3.833   1.747   4.880 -1.4261 -0.0721  1.6594
16282TIP3    H270338   3.761   1.824   4.772  1.0624 -1.2709 -0.9319
16283TIP3   OH270339   2.262   3.953  13.519 -0.2349  0.3330  0.3426
16283TIP3    H170340   2.235   3.862  13.504 -1.8340  0.7665  0.4645
16283TIP3    H270341   2.180   3.999  13.541  0.2618  2.1252 -1.3360
16284TIP3   OH270342   3.518   4.462  15.132  0.1990 -0.2587  0.3036
16284TIP3    H170343   3.513   4.550  15.094 -0.1198 -1.4786 -2.6592
16284TIP3    H270344   3.611   4.447  15.146  0.1540  1.0695  2.1677
16285TIP3   OH270345   2.267   2.524   2.207  0.1329 -0.7602  0.1631
16285TIP3    H170346   2.234   2.564   2.287 -0.8340 -0.5695 -0.3181
16285TIP3    H270347   2.204   2.550   2.140  1.2541 -0.4405 -0.7661
16286TIP3   OH270348   0.039   6.671  14.419 -0.1519  0.1985 -0.4131
16286TIP3    H170349   0.009   6.599  14.474  0.3472 -1.5908 -2.3806
16286TIP3    H270350   0.023   6.641  14.329 -0.1612  2.6512 -1.2933
16287TIP3   OH270351   0.003   2.326  13.397 -0.0657 -0.1167 -0.4725
16287TIP3    H170352   0.077   2.315  13.455 -1.6339 -2.0633  1.1980
16287TIP3    H270353  -0.016   2.238  13.363 -2.5935  0.0401  0.3981
16288TIP3   OH270354   3.161   3.458  12.882 -0.4070 -0.0900  0.2935
16288TIP3    H170355   3.105   3.533  12.865  0.0203  0.3223  0.6869
16288TIP3    H270356   3.242   3.495  12.918  0.5079 -0.6053 -1.1775
16289TIP3   OH270357   4.959   0.477  11.694 -0.0884  0.7585  0.0683
16289TIP3    H170358   4.987   0.435  11.612  1.2124  1.7606 -0.0215
16289TIP3    H270359   4.955   0.405  11.757  1.3054  0.3544 -0.2885
16290TIP3   OH270360   2.028   4.844   1.964 -0.5428  0.9001 -0.6450
16290TIP3    H170361   2.026   4.813   1.873 -0.0162  0.4668 -0.5088
16290TIP3    H270362   2.110   4.893   1.972 -0.0294 -0.0325 -0.0917
16291TIP3   OH270363   5.729   5.777  10.475  0.4471 -1.1903 -0.6685
16291TIP3    H170364   5.783   5.698  10.462  2.8622  0.2968  0.0145
16291TIP3    H270365   5.789   5.850  10.458 -1.2254  0.5242  0.6669
16292TIP3   OH270366   4.390   4.495   5.362  0.4240  0.3844 -0.7710
16292TIP3    H170367   4.472   4.543   5.347  1.4224 -1.1825 -0.4771
16292TIP3    H270368   4.366   4.515   5.452  1.2203 -0.2309 -0.4194
16293TIP3   OH270369   5.503   1.223  16.310  0.5391 -0.4614  0.3015
16293TIP3    H170370   5.418   1.267  16.304  0.3135 -0.9828 -0.3115
16293TIP3    H270371   5.490   1.157  16.379  0.6536 -0.0627  0.7019
16294TIP3   OH270372   0.259   4.041   5.547 -0.4241  0.6489 -0.4474
16294TIP3    H170373   0.206   4.114   5.514 -0.9230 -0.8161 -2.9703
16294TIP3    H270374   0.197   3.968   5.555  0.9191 -0.7081 -2.1661
16295TIP3   OH270375   0.508   6.760   2.802 -0.3811 -0.1335  0.0270
16295TIP3    H170376   0.521   6.774   2.708 -1.6300 -1.1894 -0.3036
16295TIP3    H270377   0.416   6.738   2.811 -0.1843 -0.4138  1.4654
16296TIP3   OH270378   2.272   5.704  14.905 -0.1212 -0.1442 -0.0871
16296TIP3    H170379   2.277   5.656  14.822 -0.4254 -2.0346  0.9544
16296TIP3    H270380   2.208   5.773  14.890 -1.3903 -1.4923 -0.9181
16297TIP3   OH270381   6.605   0.584   5.388  0.2264 -0.1874 -0.6955
16297TIP3    H170382   6.538   0.603   5.322  0.2021  1.9526 -0.0933
16297TIP3    H270383   6.678   0.642   5.365  0.1411  0.7165  1.2559
16298TIP3   OH270384   1.602   3.390  13.696  0.5382  0.1599  0.2187
16298TIP3    H170385   1.634   3.302  13.719 -1.0412 -1.0874 -2.1126
16298TIP3    H270386   1.510   3.389  13.720 -0.0208  0.3932 -1.7966
16299TIP3   OH270387   2.651   5.462   3.514  0.2609 -0.0391 -0.0348
16299TIP3    H170388   2.647   5.510   3.431 -3.1763 -2.0137 -1.1273
16299TIP3    H270389   2.600   5.515   3.575  0.7095  0.1753  0.1594
16300TIP3   OH270390   6.489   4.538  16.233  0.1752  0.0206 -0.7838
16300TIP3    H170391   6.418   4.474  16.245 -0.3700  0.2700 -2.4317
16300TIP3    H270392   6.550   4.494  16.174  1.0459  0.0793  0.0731
16301TIP3   OH270393   1.791   4.226   1.143 -0.2769 -0.0184  0.0090
16301TIP3    H170394   1.736   4.265   1.212 -1.2312 -0.3241 -0.5700
16301TIP3    H270395   1.750   4.141   1.126  1.6081 -1.1670  1.0377
16302TIP3   OH270396   5.765   6.198   1.047 -0.7307 -0.3844  0.6043
16302TIP3    H170397   5.751   6.249   1.127 -1.7250 -1.0861  0.8862
16302TIP3    H270398   5.677   6.179   1.015 -0.3344  2.1433 -2.1408
16303TIP3   OH270399   1.059   5.896   0.462  0.6862  0.6333  0.1314
16303TIP3    H170400   1.059   5.968   0.525 -1.9953  0.2716  0.5962
16303TIP3    H270401   0.996   5.833   0.498  1.4808 -1.0201 -1.3059
16304TIP3   OH270402   3.351   5.208  11.217 -0.6555 -0.2008 -0.1571
16304TIP3    H170403   3.335   5.137  11.154  0.4554 -1.6784  1.1683
16304TIP3    H270404   3.280   5.200  11.280 -0.9607  0.3636 -0.4265
16305TIP3   OH270405   5.841   6.196  14.453 -0.6102  0.1264  0.6054
16305TIP3    H170406   5.858   6.289  14.470  1.4967  0.0648 -0.9397
16305TIP3    H270407   5.832   6.190  14.358  2.1975 -1.6422  0.3866
16306TIP3   OH270408   0.766   5.495   2.344  0.4701 -0.5011 -0.0004
16306TIP3    H170409   0.816   5.468   2.267 -2.3694 -1.0753 -1.7342
16306TIP3    H270410   0.702   5.425   2.357 -0.2656  0.4655  1.7807
16307TIP3   OH270411   3.199   6.815   4.741 -0.2953 -0.8027  0.0186
16307TIP3    H170412   3.157   6.796   4.825 -1.4179 -0.4292 -0.4506
16307TIP3    H270413   3.213   6.910   4.741 -2.1235 -0.4960 -1.0230
16308TIP3   OH270414   3.801   4.922   4.233 -0.0368 -0.5225 -0.0441
16308TIP3    H170415   3.758   4.979   4.170  0.5601 -0.9334 -0.8235
16308TIP3    H270416   3.856   4.865   4.180  1.3423 -0.1171  0.9346
16309TIP3   OH270417   0.721   6.774  13.583 -0.0595  0.6272 -0.4090
16309TIP3    H170418   0.735   6.829  13.660 -1.0058  0.7275 -0.2961
16309TIP3    H270419   0.786   6.804  13.520 -0.9851  2.3251 -0.5853
16310TIP3   OH270420   5.390   0.302   2.584  0.2908 -0.3725 -0.2540
16310TIP3    H170421   5.315   0.282   2.640 -0.2806  0.4907 -0.6891
16310TIP3    H270422   5.419   0.218   2.551 -0.5148 -0.7140 -0.1094
16311TIP3   OH270423   1.615   5.625  13.846  0.2654  0.5464 -0.2101
16311TIP3    H170424   1.680   5.688  13.878  2.1484 -1.0996 -0.6240
16311TIP3    H270425   1.541   5.678  13.817  1.2476  2.4613  0.7069
16312TIP3   OH270426   6.333   4.398   2.449  0.5279  0.0694 -0.2222
16312TIP3    H170427   6.315   4.489   2.427 -0.4054  0.1094  0.6924
16312TIP3    H270428   6.279   4.347   2.389  0.2338  0.1354 -0.0143
16313TIP3   OH270429   2.924   1.929   1.699 -0.3560  0.2541  0.1057
16313TIP3    H170430   3.007   1.976   1.688 -0.5184  0.4809 -0.1119
16313TIP3    H270431   2.867   1.991   1.744 -1.0807  0.8098 -1.5721
16314TIP3   OH270432   5.714   4.122  13.109 -0.2240  0.2865  0.0824
16314TIP3    H170433   5.775   4.050  13.127 -1.4205 -0.6475  0.4820
16314TIP3    H270434   5.703   4.121  13.014 -0.4413 -0.2222  0.1149
16315TIP3   OH270435   1.762   5.793   0.852 -0.2368 -0.3483  1.3199
16315TIP3    H170436   1.706   5.866   0.879  0.7444  0.9533 -0.0667
16315TIP3    H270437   1.813   5.828   0.779  0.1600 -2.4737  0.5416
16316TIP3   OH270438   2.355   0.401  12.915 -0.1432 -0.1931  0.1529
16316TIP3    H170439   2.335   0.457  12.990 -2.1964  0.9084 -1.1981
16316TIP3    H270440   2.436   0.438  12.880  0.5052 -0.3413  1.4428
16317TIP3   OH270441   1.513   1.909   0.333  0.3014 -0.0711 -0.0425
16317TIP3    H170442   1.493   1.851   0.259  0.4054 -0.4652  0.2352
16317TIP3    H270443   1.534   1.993   0.292 -1.0626  0.1160 -0.3786
16318TIP3   OH270444   4.782   2.985   2.308 -0.8168  0.1858  0.3190
16318TIP3    H170445   4.876   2.998   2.291 -1.1869  2.8877  0.1737
16318TIP3    H270446   4.779   2.945   2.395  0.4260  1.9885  1.2287
16319TIP3   OH270447   3.628   0.908   0.177  0.7777  0.0178  0.2210
16319TIP3    H170448   3.680   0.946   0.107 -1.7040  2.7017 -0.2640
16319TIP3    H270449   3.540   0.901   0.139 -0.0048 -1.0702  2.1858
16320TIP3   OH270450   1.395   0.325   4.238 -0.5000 -0.4103 -0.1278
16320TIP3    H170451   1.315   0.372   4.217 -0.1569  0.6899  1.0275
16320TIP3    H270452   1.378   0.283   4.322  0.3305  0.2838  0.3933
16321TIP3   OH270453   3.537   3.780  15.154  0.3664  1.0148 -0.5029
16321TIP3    H170454   3.524   3.864  15.111  0.2317  1.2938  0.0765
16321TIP3    H270455   3.591   3.800  15.230 -1.1360  0.8680  0.6251
16322TIP3   OH270456   5.235   1.687  11.206 -0.6917  0.1550  0.2205
16322TIP3    H170457   5.196   1.702  11.292 -1.2934 -0.1508  0.0022
16322TIP3    H270458   5.161   1.666  11.149 -0.0583 -2.0749  0.1722
16323TIP3   OH270459   0.046   3.559   2.616 -0.5148 -0.4629 -0.1106
16323TIP3    H170460   0.032   3.649   2.584  0.9431  0.0488  0.6252
16323TIP3    H270461  -0.020   3.507   2.571 -0.7744  0.8289 -1.2675
16324TIP3   OH270462   0.044   1.823   2.220  0.4815 -0.2613  0.3513
16324TIP3    H170463   0.116   1.877   2.187  0.5246  0.7670  2.0658
16324TIP3    H270464   0.084   1.769   2.287 -0.6574  1.5994  2.6005
16325TIP3   OH270465   4.868   1.683  10.679  0.0063  0.0107  0.1267
16325TIP3    H170466   4.918   1.755  10.643 -0.7991  0.5613  0.0950
16325TIP3    H270467   4.778   1.699  10.651 -0.6523  0.4403  2.3433
16326TIP3   OH270468   1.012   2.777   2.909 -0.1570  0.1577  0.1760
16326TIP3    H170469   0.993   2.831   2.833  1.3204  1.2503  0.5483
16326TIP3    H270470   0.994   2.687   2.881  1.4700  0.4386 -1.8459
16327TIP3   OH270471   1.311   2.544  11.484 -0.2697 -0.5175 -0.1338
16327TIP3    H170472   1.315   2.636  11.457  0.3356 -0.5871 -0.3054
16327TIP3    H270473   1.266   2.545  11.568 -0.9174 -0.1441 -0.4818
16328TIP3   OH270474   6.644   6.578   3.392 -0.1093 -0.1154  0.3162
16328TIP3    H170475   6.595   6.495   3.390 -0.4060  0.0776 -0.4410
16328TIP3    H270476   6.720   6.562   3.336 -0.2929  0.2029 -0.0234
16329TIP3   OH270477   3.009   2.265  14.247 -0.7758  0.2815 -0.2472
16329TIP3    H170478   2.930   2.224  14.281 -0.4542 -0.5522 -0.4848
16329TIP3    H270479   3.007   2.247  14.153  0.5658 -1.2689 -0.0015
16330TIP3   OH270480   3.152   5.541  17.185  0.0172 -0.0960  0.1749
16330TIP3    H170481   3.091   5.609  17.213  0.8173  0.8937 -0.4644
16330TIP3    H270482   3.097   5.465  17.167 -0.8935  0.4139  0.7732
16331TIP3   OH270483   0.617   1.119   3.620  0.4525  0.0874  0.3469
16331TIP3    H170484   0.652   1.144   3.535  1.0863 -1.6246  0.0752
16331TIP3    H270485   0.549   1.054   3.600  0.9655 -0.7144  1.1649
16332TIP3   OH270486   1.927   4.579  13.929  0.0994  0.1683 -0.1729
16332TIP3    H170487   1.846   4.616  13.962  0.2032  1.1644 -1.0226
16332TIP3    H270488   1.970   4.542  14.006 -0.2576  1.3472  0.5959
16333TIP3   OH270489   5.783   5.734   0.664 -0.0101  0.0667  0.5785
16333TIP3    H170490   5.875   5.711   0.651 -0.5565 -0.8672 -2.0120
16333TIP3    H270491   5.737   5.650   0.658 -1.3046  0.8744 -1.2341
16334TIP3   OH270492   1.958   3.507   1.208 -0.2672  0.4124  0.2762
16334TIP3    H170493   2.043   3.507   1.165  0.5679 -1.1028  1.8945
16334TIP3    H270494   1.977   3.491   1.300 -2.1545  2.1601  0.9961
16335TIP3   OH270495   5.430   3.330  13.163 -0.3199 -0.2317  0.0418
16335TIP3    H170496   5.400   3.412  13.202  1.4523  0.6206 -0.3230
16335TIP3    H270497   5.442   3.271  13.237 -1.2396 -0.0480  0.3458
16336TIP3   OH270498   5.978   3.826  16.671  0.3838  0.0547  0.0898
16336TIP3    H170499   5.985   3.903  16.728 -0.7915 -0.6054  1.1337
16336TIP3    H270500   5.903   3.778  16.704  0.7156 -1.2186 -0.9660
16337TIP3   OH270501   4.197   0.851  15.630 -0.2091  0.3725  0.4892
16337TIP3    H170502   4.165   0.800  15.705 -0.6226  1.4920  1.0861
16337TIP3    H270503   4.119   0.897  15.598  0.2515  0.9575  0.2075
16338TIP3   OH270504   2.595   2.868   2.573 -0.0669 -0.0182 -0.0040
16338TIP3    H170505   2.656   2.850   2.645  0.0550  0.3577 -0.0133
16338TIP3    H270506   2.583   2.783   2.530  0.8417  0.0024 -0.3042
16339TIP3   OH270507   3.181   3.797   1.632 -0.9153 -0.2913 -0.0624
16339TIP3    H170508   3.122   3.832   1.699  0.8899  0.0354  1.4268
16339TIP3    H270509   3.125   3.747   1.573 -2.4139 -1.6588  2.4368
16340TIP3   OH270510   5.325   3.726  12.012  0.3649  0.2081  0.3955
16340TIP3    H170511   5.291   3.720  11.923  1.0796 -0.2606  0.1490
16340TIP3    H270512   5.407   3.775  12.004  1.6084 -1.7884  0.4482
16341TIP3   OH270513   6.214   6.429   1.695  0.5994 -0.2225  0.0809
16341TIP3    H170514   6.210   6.469   1.782 -0.4233 -0.4071  0.1184
16341TIP3    H270515   6.258   6.345   1.710 -1.5876 -1.2625  0.7982
16342TIP3   OH270516   0.272   1.095   0.505  0.4631 -0.2426  0.3867
16342TIP3    H170517   0.182   1.125   0.506  0.0618 -1.3364 -1.2059
16342TIP3    H270518   0.320   1.163   0.457  0.2501 -0.2885  0.1097
16343TIP3   OH270519   4.350   6.263  10.842  0.1747  0.3303  0.6561
16343TIP3    H170520   4.420   6.308  10.889 -0.8161  1.5499  0.9777
16343TIP3    H270521   4.351   6.301  10.754  0.1528  0.0813  0.5450
16344TIP3   OH270522   2.287   0.935  11.984  0.1462  0.0855  0.2582
16344TIP3    H170523   2.340   0.857  11.967 -3.0990 -1.7803 -1.8874
16344TIP3    H270524   2.291   0.946  12.079  0.1431 -3.1176  0.6925
16345TIP3   OH270525   1.716   3.324  16.979 -0.8639  0.3462  0.0893
16345TIP3    H170526   1.760   3.248  17.015  0.7071  1.8674  1.4656
16345TIP3    H270527   1.678   3.369  17.054 -1.9234  0.8387 -0.7195
16346TIP3   OH270528   3.293   0.866   5.224  0.5669  0.2538 -0.0587
16346TIP3    H170529   3.271   0.833   5.311 -3.1946  1.2546 -0.5697
16346TIP3    H270530   3.281   0.791   5.166 -0.3222  0.4684 -0.1602
16347TIP3   OH270531   1.258   0.458  16.871 -0.2907 -0.2236 -0.0306
16347TIP3    H170532   1.330   0.422  16.924 -0.9600 -1.0153  0.3492
16347TIP3    H270533   1.261   0.552  16.886  1.3600 -0.1189 -0.8672
16348TIP3   OH270534   2.903   4.521   2.617  0.2724 -0.2739  0.5557
16348TIP3    H170535   2.943   4.525   2.704  1.0762 -3.9179  0.4040
16348TIP3    H270536   2.814   4.553   2.630  1.1819  1.6805  2.1785
16349TIP3   OH270537   0.725   4.036   4.574  0.5396 -0.0593  0.2929
16349TIP3    H170538   0.643   4.060   4.618  2.3473  1.9618  2.7505
16349TIP3    H270539   0.731   3.941   4.585 -1.1847 -0.1538  0.5855
16350TIP3   OH270540   4.260   3.266  16.241 -0.7898 -0.1992  0.5546
16350TIP3    H170541   4.237   3.346  16.194  1.7914  0.4596  0.3106
16350TIP3    H270542   4.273   3.293  16.331 -0.4028 -0.4474  0.5754
16351TIP3   OH270543   0.648   0.521  15.905  0.3726 -0.1306 -0.7955
16351TIP3    H170544   0.566   0.551  15.945  1.9316 -0.2959  2.6607
16351TIP3    H270545   0.706   0.596  15.910  1.4948 -1.0285 -0.1816
16352TIP3   OH270546   1.800   6.019  12.639  0.4564 -0.5597 -0.1024
16352TIP3    H170547   1.712   6.021  12.602  0.8311 -2.2629 -1.1603
16352TIP3    H270548   1.795   5.954  12.709  0.8947 -0.7534 -0.2490
16353TIP3   OH270549   2.205   4.041  16.985 -0.3828 -0.1697  0.8405
16353TIP3    H170550   2.189   4.124  16.939  0.7620 -0.0966  0.5573
16353TIP3    H270551   2.119   3.997  16.986 -0.0830 -1.0193 -3.0437
16354TIP3   OH270552   1.260   3.410   2.662 -0.5864  0.4891 -0.3087
16354TIP3    H170553   1.296   3.350   2.596  0.7742  1.7135 -0.7087
16354TIP3    H270554   1.294   3.378   2.745  0.3194  0.8063 -0.5451
16355TIP3   OH270555   4.443   5.914  14.097 -0.5741  0.0335  0.0413
16355TIP3    H170556   4.458   5.966  14.176 -3.2208  0.5242  0.2711
16355TIP3    H270557   4.370   5.857  14.120 -0.1464 -1.1357 -1.4539
16356TIP3   OH270558   6.173   1.868   1.859 -0.3689  0.4115  0.7392
16356TIP3    H170559   6.256   1.912   1.879 -0.5576  0.5094  1.3327
16356TIP3    H270560   6.191   1.816   1.781  0.4210 -0.0376  1.2123
16357TIP3   OH270561   0.757   5.630   4.659 -0.3199  0.1943 -0.2290
16357TIP3    H170562   0.671   5.670   4.677  0.1980  2.1364 -1.8933
16357TIP3    H270563   0.772   5.573   4.734 -3.4267 -0.8045 -0.2873
16358TIP3   OH270564   0.414   4.145  16.203 -0.5621  0.0841 -0.7212
16358TIP3    H170565   0.467   4.095  16.141  0.2616  0.2324 -0.1494
16358TIP3    H270566   0.324   4.118  16.185 -0.5308  1.6192 -3.3288
16359TIP3   OH270567   0.140   4.995   2.997  0.5285 -0.1637 -0.2518
16359TIP3    H170568   0.231   5.014   3.020  0.4433  0.3016 -0.2945
16359TIP3    H270569   0.137   4.900   2.991  0.5520 -0.3172  1.7122
16360TIP3   OH270570   1.257   4.574   3.880  0.3180  0.5167  0.2965
16360TIP3    H170571   1.319   4.566   3.953  1.5407  3.3827 -0.3270
16360TIP3    H270572   1.174   4.598   3.922  0.2817 -0.7002  0.9413
16361TIP3   OH270573   4.030   6.036  17.066  0.1428  0.3563  0.0656
16361TIP3    H170574   4.045   6.088  17.145 -0.5438  1.2771 -0.4085
16361TIP3    H270575   3.993   6.097  17.003  1.4882 -0.1807 -1.2676
16362TIP3   OH270576   5.832   2.247   2.368 -0.4420 -0.8733  0.2545
16362TIP3    H170577   5.840   2.285   2.281 -1.8621  1.8136  1.2395
16362TIP3    H270578   5.741   2.218   2.374 -0.0654 -2.0493  0.4676
16363TIP3   OH270579   1.902   4.052  17.146  0.0384 -0.0067  0.4715
16363TIP3    H170580   1.916   4.121  17.210  1.0897  1.9390 -1.8086
16363TIP3    H270581   1.953   3.978  17.180  1.1352  1.2095  1.5231
16364TIP3   OH270582   4.576   4.385  16.577  0.0587 -0.2605  0.5984
16364TIP3    H170583   4.531   4.305  16.605 -0.1208 -0.9150 -1.4203
16364TIP3    H270584   4.547   4.452  16.638 -0.4047 -1.5716  1.8511
16365TIP3   OH270585   1.062   5.252  13.172  0.5602  0.2291  0.1979
16365TIP3    H170586   0.986   5.293  13.215  1.3502  1.8487  0.0753
16365TIP3    H270587   1.130   5.319  13.174  1.8466 -1.0424 -0.1430
16366TIP3   OH270588   5.736   4.374   0.363 -0.0591 -0.0633 -0.0103
16366TIP3    H170589   5.663   4.312   0.370  0.8772 -0.9723  2.0118
16366TIP3    H270590   5.714   4.445   0.423  1.3200 -0.9884  1.6281
16367TIP3   OH270591   5.189   1.819  17.276 -0.0196 -0.0315 -0.1651
16367TIP3    H170592   5.188   1.724  17.286 -0.8426 -0.0769 -0.6786
16367TIP3    H270593   5.257   1.849  17.337 -2.0446 -0.6575  2.4627
16368TIP3   OH270594   2.498   3.887  11.085 -0.1647 -0.3946  0.2988
16368TIP3    H170595   2.575   3.927  11.045  0.1119 -2.5347 -1.4396
16368TIP3    H270596   2.424   3.937  11.051  0.3776  0.8352  0.9218
16369TIP3   OH270597   5.090   2.857   5.073 -0.3313 -0.3115  0.2022
16369TIP3    H170598   5.117   2.783   5.129 -1.4249 -0.5792  0.4060
16369TIP3    H270599   5.070   2.817   4.989 -3.1324 -0.6202  0.9698
16370TIP3   OH270600   5.870   5.854  11.352  0.1923  0.4656  0.3779
16370TIP3    H170601   5.868   5.946  11.325 -2.1741  0.1560 -0.6161
16370TIP3    H270602   5.778   5.832  11.367  0.7090 -1.8260  0.3024
16371TIP3   OH270603   3.855   0.352  15.663 -0.0384  0.0149 -0.6035
16371TIP3    H170604   3.825   0.261  15.668 -2.1543  0.6773 -0.8665
16371TIP3    H270605   3.874   0.366  15.571 -2.6776  0.7276 -1.0807
16372TIP3   OH270606   3.064   3.273  14.422 -0.2114  0.7789  0.3133
16372TIP3    H170607   3.076   3.302  14.332  0.4372  0.1964  0.2084
16372TIP3    H270608   3.153   3.261  14.456 -0.4533  0.4611  0.8549
16373TIP3   OH270609   2.511   5.256   2.865  0.2432  0.1853  0.6132
16373TIP3    H170610   2.578   5.192   2.891  1.0990  0.9515  0.3441
16373TIP3    H270611   2.551   5.341   2.885  0.8055  0.8059 -2.9221
16374TIP3   OH270612   4.236   0.118   3.670 -0.2156  0.5772 -0.5079
16374TIP3    H170613   4.171   0.049   3.662  2.1518 -2.0088  1.6321
16374TIP3    H270614   4.275   0.124   3.583 -0.7284 -0.4753 -0.8191
16375TIP3   OH270615   0.901   4.998   0.310 -0.0970  0.0230  0.2635
16375TIP3    H170616   0.926   5.051   0.385  2.0033 -0.8392  0.2131
16375TIP3    H270617   0.957   4.920   0.316 -0.8617 -0.6850 -1.4346
16376TIP3   OH270618   0.770   1.875  15.651 -0.1213  0.5657  0.7838
16376TIP3    H170619   0.808   1.949  15.603  2.7181 -1.6148 -0.4869
16376TIP3    H270620   0.697   1.846  15.597  0.5698  0.6589 -0.2206
16377TIP3   OH270621   3.647   4.406   1.425  0.3594 -0.1066 -0.2499
16377TIP3    H170622   3.580   4.393   1.492 -0.1838  1.7545 -0.4233
16377TIP3    H270623   3.612   4.362   1.348 -0.4603  0.4561 -0.2053
16378TIP3   OH270624   4.489   4.991  11.856  0.4689 -0.4391 -0.6535
16378TIP3    H170625   4.528   4.905  11.844  0.8299 -0.2850 -0.6258
16378TIP3    H270626   4.511   5.015  11.947 -0.4991 -0.7455 -0.3335
16379TIP3   OH270627   6.766   1.709   3.664 -0.1174 -0.3300 -0.3680
16379TIP3    H170628   6.681   1.669   3.648 -0.1779 -0.4935  0.3443
16379TIP3    H270629   6.768   1.786   3.607 -1.1275  0.2249  0.3253
16380TIP3   OH270630   5.327   3.547   4.538  0.3897 -0.6781 -0.0751
16380TIP3    H170631   5.337   3.552   4.633  1.7629  1.0759 -0.2857
16380TIP3    H270632   5.355   3.458   4.515  0.1392 -1.0729  1.1374
16381TIP3   OH270633   4.392   2.102  14.315 -0.2728  0.5174  0.2666
16381TIP3    H170634   4.301   2.122  14.337 -0.7473 -0.0198 -1.1475
16381TIP3    H270635   4.401   2.009  14.335 -0.5495  0.1552 -1.2499
16382TIP3   OH270636   6.277   1.889  16.689 -0.2113 -0.1983  0.2060
16382TIP3    H170637   6.210   1.947  16.726 -2.1894 -1.0710 -1.8752
16382TIP3    H270638   6.340   1.948  16.648  0.6285  0.6585  2.6579
16383TIP3   OH270639   4.892   4.356   2.446  0.1281 -0.2889  0.3553
16383TIP3    H170640   4.798   4.371   2.458 -0.0880 -1.9202  0.8171
16383TIP3    H270641   4.907   4.269   2.482  1.9089  0.1281  0.6663
16384TIP3   OH270642   2.009   3.898  12.492 -0.1334  0.2223 -0.4580
16384TIP3    H170643   1.924   3.935  12.468 -0.3790 -0.4839 -0.6838
16384TIP3    H270644   1.996   3.863  12.580  0.2578  1.1766 -0.0168
16385TIP3   OH270645   6.465   1.105  13.440 -0.2250 -0.0753  0.0746
16385TIP3    H170646   6.433   1.143  13.358  1.7360  1.7312  0.0957
16385TIP3    H270647   6.462   1.178  13.502 -1.0352 -1.2522  1.4441
16386TIP3   OH270648   5.770   0.298   1.981 -0.3271  0.2386 -0.2469
16386TIP3    H170649   5.675   0.286   1.989 -0.0923 -1.9857 -0.5557
16386TIP3    H270650   5.791   0.264   1.894  0.6104  1.7653 -0.6329
16387TIP3   OH270651   6.349   0.829   3.995  0.1146 -0.0552  0.0759
16387TIP3    H170652   6.260   0.839   3.963 -0.0129 -1.4382 -0.0385
16387TIP3    H270653   6.363   0.904   4.052 -1.4771 -0.3563  0.8775
16388TIP3   OH270654   6.643   0.162  10.824 -0.3633 -0.0446 -0.3761
16388TIP3    H170655   6.612   0.167  10.914  1.6640  0.3290  0.3289
16388TIP3    H270656   6.609   0.241  10.782 -1.5778 -0.3803 -0.0380
16389TIP3   OH270657   2.984   2.479  13.105 -0.5002  0.0715 -0.1949
16389TIP3    H170658   3.031   2.453  13.184 -0.4437 -1.8224 -0.8281
16389TIP3    H270659   2.957   2.397  13.064 -2.5566  1.0711 -0.9456
16390TIP3   OH270660   5.884   4.233  13.727  0.0774  0.3527 -0.3976
16390TIP3    H170661   5.800   4.200  13.761 -0.2921 -1.1127 -2.5555
16390TIP3    H270662   5.871   4.327  13.719 -0.0090  0.6492  2.8737
16391TIP3   OH270663   3.793   1.725  15.747  0.1138  0.5315 -0.3499
16391TIP3    H170664   3.703   1.703  15.771 -0.2274  2.6872  0.3861
16391TIP3    H270665   3.838   1.640  15.744 -1.4490 -0.3769  1.2281
16392TIP3   OH270666   4.195   5.894  16.828  0.1527 -0.6849  0.0806
16392TIP3    H170667   4.172   5.928  16.914  1.2243 -2.1545  0.9803
16392TIP3    H270668   4.230   5.969  16.781 -2.8512  0.7216 -0.0056
16393TIP3   OH270669   0.666   0.357   5.524 -0.3595  0.4277 -1.0340
16393TIP3    H170670   0.758   0.356   5.548  0.2855 -2.9921 -3.3538
16393TIP3    H270671   0.663   0.400   5.438 -0.9383  0.5955 -0.9356
16394TIP3   OH270672   2.289   5.641  12.711  0.2668  0.1297 -0.1958
16394TIP3    H170673   2.310   5.557  12.669  0.2157  0.2534 -0.4720
16394TIP3    H270674   2.372   5.688  12.714  0.1908  0.2912 -0.5479
16395TIP3   OH270675   0.084   4.393  16.083 -0.1675  0.1281  0.1793
16395TIP3    H170676   0.136   4.371  16.161 -0.1328 -0.5449 -0.0376
16395TIP3    H270677   0.097   4.320  16.023  1.4606  1.5930 -1.2976
16396TIP3   OH270678   0.406   5.155  13.164  0.0860 -0.8579 -0.1735
16396TIP3    H170679   0.421   5.239  13.122 -0.7256  0.7032  2.5593
16396TIP3    H270680   0.492   5.129  13.199  0.1413 -0.6868 -0.1852
16397TIP3   OH270681   6.615   1.642  15.892  0.3984 -0.0594  0.3467
16397TIP3    H170682   6.667   1.639  15.812 -0.1278  1.7310 -0.0930
16397TIP3    H270683   6.536   1.691  15.868  0.1791  0.4052  1.9284
16398TIP3   OH270684   1.832   4.062  16.309  0.1889 -0.0762 -0.0826
16398TIP3    H170685   1.925   4.078  16.322  0.0201 -0.4525  1.7070
16398TIP3    H270686   1.815   4.091  16.220  1.8113  0.9815 -0.0699
16399TIP3   OH270687   2.466   0.215  12.243 -0.6155 -0.1490  0.0392
16399TIP3    H170688   2.482   0.121  12.236  0.6649  0.1530 -1.2625
16399TIP3    H270689   2.513   0.253  12.169 -0.3153  1.6273  1.1199
16400TIP3   OH270690   1.807   0.151   2.544 -0.5025 -0.2696 -0.5533
16400TIP3    H170691   1.852   0.215   2.599 -0.9478  0.0405 -0.5489
16400TIP3    H270692   1.754   0.100   2.606 -1.0397  0.1091 -0.6963
16401TIP3   OH270693   5.765   2.271   2.936 -0.1209  0.6465  0.2493
16401TIP3    H170694   5.784   2.287   2.843  0.5617 -1.2204  0.0370
16401TIP3    H270695   5.698   2.335   2.958  0.7008  2.0509 -1.1638
16402TIP3   OH270696   4.567   2.451   5.215 -0.3616 -0.5773  0.1739
16402TIP3    H170697   4.496   2.508   5.186  0.0032 -1.5176 -2.6797
16402TIP3    H270698   4.640   2.510   5.232 -0.2983 -0.0727 -1.7808
16403TIP3   OH270699   5.842   2.660   6.117 -0.0920 -0.1808  0.4669
16403TIP3    H170700   5.916   2.694   6.167 -1.1260 -0.6617  2.3692
16403TIP3    H270701   5.768   2.714   6.145 -0.5265  0.1379 -1.2377
16404TIP3   OH270702   3.534   5.965  10.848  0.0642  0.1043  0.2098
16404TIP3    H170703   3.602   5.993  10.909 -0.6532  0.5543  0.8302
16404TIP3    H270704   3.542   6.024  10.773  1.7097 -1.2110 -0.6631
16405TIP3   OH270705   2.505   2.125  11.660 -0.0377  0.1544  0.1380
16405TIP3    H170706   2.412   2.117  11.636  0.4675 -1.0349 -1.4818
16405TIP3    H270707   2.504   2.175  11.741 -1.9911  2.0346 -0.9697
16406TIP3   OH270708   5.206   1.685  13.547  0.1708  0.3801 -0.1151
16406TIP3    H170709   5.258   1.678  13.468 -1.1140  0.8974 -1.0211
16406TIP3    H270710   5.163   1.600  13.555  2.7660 -0.8265  1.8168
16407TIP3   OH270711   4.886   6.755  15.229  0.3296  0.4891 -0.3111
16407TIP3    H170712   4.924   6.745  15.317  0.3715  1.2650 -0.2419
16407TIP3    H270713   4.854   6.667  15.207  0.6721  0.2040  0.3168
16408TIP3   OH270714   0.037   6.325   2.338  0.5503 -0.6866  0.3211
16408TIP3    H170715   0.047   6.391   2.406  0.0165 -0.5042  0.2209
16408TIP3    H270716   0.092   6.357   2.266  1.3874 -1.0559  0.7940
16409TIP3   OH270717   1.632   1.768  12.387  0.9167  0.7198  0.0137
16409TIP3    H170718   1.696   1.698  12.372 -0.0347 -0.3041  0.7045
16409TIP3    H270719   1.577   1.767  12.309  0.9768  0.7905 -0.0294
16410TIP3   OH270720   0.493   4.929  11.588  0.3377 -0.0242  0.1081
16410TIP3    H170721   0.514   4.908  11.497 -1.5601 -0.2724 -0.2913
16410TIP3    H270722   0.450   4.850  11.622 -3.5200  1.8188 -0.3067
16411TIP3   OH270723   6.052   5.558   0.374 -0.0425 -0.3260  0.5853
16411TIP3    H170724   6.145   5.540   0.360  0.3245  1.5752  0.4132
16411TIP3    H270725   6.008   5.511   0.302  0.7633 -1.2910  0.7091
16412TIP3   OH270726   3.424   6.468   0.804  0.2130  0.2684 -0.0273
16412TIP3    H170727   3.364   6.449   0.731 -1.2310 -1.4654  1.5537
16412TIP3    H270728   3.375   6.443   0.882  3.0883 -1.4553  1.3056
16413TIP3   OH270729   6.700   2.275   0.667  0.3108  0.3192 -0.1709
16413TIP3    H170730   6.605   2.285   0.667  0.2555 -0.1220  0.8764
16413TIP3    H270731   6.716   2.204   0.604  0.0118  0.9172 -0.9247
16414TIP3   OH270732   3.249   4.178   5.758 -0.0201 -0.7511  0.1376
16414TIP3    H170733   3.184   4.237   5.721 -0.4620 -1.3961 -0.1243
16414TIP3    H270734   3.205   4.138   5.834  0.4954 -0.2656  0.6979
16415TIP3   OH270735   6.634   6.359   1.975 -0.0066  0.3649 -0.3074
16415TIP3    H170736   6.688   6.430   1.941 -0.3710  1.1594  0.7480
16415TIP3    H270737   6.564   6.403   2.024  1.9099 -0.7514  3.6273
16416TIP3   OH270738   5.975   1.730  15.087  0.0424 -0.4994 -0.1770
16416TIP3    H170739   6.027   1.656  15.056  0.8507 -0.1425  0.3089
16416TIP3    H270740   6.039   1.799  15.103  0.1103 -1.7009  5.5325
16417TIP3   OH270741   1.850   1.583   5.023 -0.3121 -0.2719 -0.6671
16417TIP3    H170742   1.904   1.662   5.017 -3.5823  2.0465 -1.0548
16417TIP3    H270743   1.905   1.514   4.987  3.5023  1.3348  1.7759
16418TIP3   OH270744   4.614   3.639   1.246  0.2130  0.1041  0.2952
16418TIP3    H170745   4.568   3.679   1.172 -0.5821  0.3182  0.8936
16418TIP3    H270746   4.706   3.640   1.220 -0.1316 -0.5533 -1.0240
16419TIP3   OH270747   4.564   5.927  16.996  0.3184  0.0915 -1.1733
16419TIP3    H170748   4.574   5.897  17.086  0.1156 -0.1951 -1.2452
16419TIP3    H270749   4.475   5.959  16.991  0.2668 -0.0751 -1.3233
16420TIP3   OH270750   3.852   1.342  10.640 -0.0561 -0.3458 -0.1865
16420TIP3    H170751   3.852   1.258  10.593  0.0862  0.1560 -1.0958
16420TIP3    H270752   3.870   1.318  10.731  1.2364 -1.2022 -0.6415
16421TIP3   OH270753   3.820   2.429   3.341 -0.1877 -0.0495 -0.6145
16421TIP3    H170754   3.769   2.381   3.276 -1.6163  0.8550 -0.1801
16421TIP3    H270755   3.766   2.427   3.420  0.3999  1.0347 -0.1780
16422TIP3   OH270756   4.594   0.331   3.987 -0.0041 -0.2246  0.5663
16422TIP3    H170757   4.634   0.343   3.901  0.8832  0.1802  1.0414
16422TIP3    H270758   4.552   0.415   4.006  1.1180  0.1854  1.2217
16423TIP3   OH270759   5.931   6.527  14.795 -0.6493  0.5226  0.0513
16423TIP3    H170760   5.838   6.531  14.818 -0.0057  1.4360  2.6792
16423TIP3    H270761   5.972   6.485  14.870  1.0936  0.2682 -1.0202
16424TIP3   OH270762   2.705   0.194   0.152 -0.7696 -0.3261 -0.0447
16424TIP3    H170763   2.650   0.117   0.135 -1.8804  0.3820  0.2749
16424TIP3    H270764   2.643   0.267   0.156  0.1263  0.3846  1.0556
16425TIP3   OH270765   0.059   0.429  16.175  0.3974 -0.2477 -0.1321
16425TIP3    H170766   0.118   0.467  16.240 -0.1823 -0.1173  0.3293
16425TIP3    H270767   0.084   0.470  16.092  0.0135  0.8934  0.2973
16426TIP3   OH270768   0.658   5.121   2.885  0.0073 -0.0084 -0.0413
16426TIP3    H170769   0.709   5.137   2.806 -0.3076  1.0122 -0.0329
16426TIP3    H270770   0.709   5.161   2.956  0.1227 -0.6272  0.2319
16427TIP3   OH270771   2.835   0.326   3.393  0.1477 -0.0258  0.3382
16427TIP3    H170772   2.823   0.363   3.481  2.2117  0.0714  0.6012
16427TIP3    H270773   2.907   0.377   3.355 -1.3203  0.5482 -1.7820
16428TIP3   OH270774   2.346   5.275  14.080 -0.1537 -0.2371  0.3512
16428TIP3    H170775   2.422   5.321  14.115  0.8691 -0.8761 -0.9951
16428TIP3    H270776   2.381   5.218  14.012 -1.8795 -0.2710 -0.5520
16429TIP3   OH270777   5.618   0.048   1.261  0.6849  0.8933  0.3104
16429TIP3    H170778   5.605   0.131   1.215  1.3376  0.7790 -0.0874
16429TIP3    H270779   5.628  -0.017   1.191  0.7996  0.5813  0.6156
16430TIP3   OH270780   3.051   3.382   0.340  0.0725 -0.0054  0.3669
16430TIP3    H170781   3.140   3.377   0.374 -0.7416 -0.1876  2.5573
16430TIP3    H270782   3.006   3.307   0.380 -1.7818  1.6855  1.5465
16431TIP3   OH270783   3.583   1.615   1.861  0.2151 -0.0936 -0.0037
16431TIP3    H170784   3.649   1.665   1.813  1.0334  0.3091  1.5461
16431TIP3    H270785   3.595   1.525   1.831 -0.0588  0.3175 -1.4250
16432TIP3   OH270786   1.159   0.578   4.836  0.7509  0.2134 -0.1509
16432TIP3    H170787   1.231   0.534   4.882  2.0946  0.0174 -2.3654
16432TIP3    H270788   1.190   0.666   4.820  0.2005  0.3518 -0.4904
16433TIP3   OH270789   5.096   6.533  11.178  0.0717 -0.0863  0.2074
16433TIP3    H170790   5.075   6.601  11.114  0.5835  1.1871  1.3424
16433TIP3    H270791   5.116   6.456  11.126 -0.2139  0.7269 -1.1319
16434TIP3   OH270792   3.102   5.581   6.721 -0.4839 -0.5762  0.8662
16434TIP3    H170793   3.082   5.553   6.811  0.3811  2.5845  2.0932
16434TIP3    H270794   3.018   5.572   6.675 -1.4215 -0.4180  2.4859
16435TIP3   OH270795   6.287   5.925  14.237  0.3226 -0.4104 -0.3366
16435TIP3    H170796   6.334   5.935  14.154  0.4720  0.9239 -0.1039
16435TIP3    H270797   6.228   6.001  14.240 -0.1396 -0.8021  0.4817
16436TIP3   OH270798   6.548   2.030   3.478 -0.2191 -0.4009  0.5652
16436TIP3    H170799   6.474   2.050   3.420 -0.1607  0.2762  0.7228
16436TIP3    H270800   6.524   2.070   3.561 -1.1098 -2.8422  1.5571
16437TIP3   OH270801   2.884   2.527   3.364 -0.1339  0.0782 -0.2378
16437TIP3    H170802   2.939   2.554   3.291 -0.2045  2.3300  0.5074
16437TIP3    H270803   2.794   2.539   3.333 -0.1766 -0.7755 -0.4397
16438TIP3   OH270804   4.034   5.047  13.068 -0.1574  0.5709 -0.2915
16438TIP3    H170805   4.094   4.972  13.063  0.7490  1.1526  1.3805
16438TIP3    H270806   3.994   5.039  13.155 -0.7398  1.5244 -0.4687
16439TIP3   OH270807   3.349   0.405   5.713  0.2149  0.0347 -0.5391
16439TIP3    H170808   3.420   0.357   5.755  0.1331  1.2671  1.0335
16439TIP3    H270809   3.391   0.484   5.679  0.0317 -0.3436 -1.6790
16440TIP3   OH270810   5.709   4.280   1.012 -0.2110  0.8999 -0.5742
16440TIP3    H170811   5.704   4.184   1.010 -1.0063  0.9481 -1.7522
16440TIP3    H270812   5.715   4.302   1.105 -1.2313 -0.2494 -0.2209
16441TIP3   OH270813   0.560   5.864   4.977  0.1029  0.0824 -0.0820
16441TIP3    H170814   0.555   5.882   4.883 -1.9163 -0.1748 -0.0315
16441TIP3    H270815   0.603   5.941   5.014  0.0032  0.6190 -1.0735
16442TIP3   OH270816   3.543   4.362  14.688 -0.1603  0.4549 -0.1784
16442TIP3    H170817   3.525   4.456  14.676  1.1196  0.6036 -1.1182
16442TIP3    H270818   3.637   4.359  14.708 -0.3839 -0.5620  0.7078
16443TIP3   OH270819   3.990   4.187  15.008  0.1982  0.1681  0.3706
16443TIP3    H170820   3.902   4.161  14.981  0.4886  0.3331 -0.7469
16443TIP3    H270821   4.045   4.112  14.989  0.2167 -0.1444  1.5964
16444TIP3   OH270822   3.624   0.158   4.672  0.4040  0.0084  0.3666
16444TIP3    H170823   3.624   0.119   4.760  0.6885  0.7755  0.7051
16444TIP3    H270824   3.534   0.149   4.641  0.1306  0.4604  1.0484
16445TIP3   OH270825   2.156   0.772   3.210  0.1909  0.0851  0.2207
16445TIP3    H170826   2.126   0.844   3.266 -2.1012 -0.0109 -0.8163
16445TIP3    H270827   2.156   0.808   3.122  0.4313 -0.7717 -0.1372
16446TIP3   OH270828   1.286   2.493  12.929  0.6667  0.1460  0.1350
16446TIP3    H170829   1.289   2.577  12.882  0.1602 -0.2020 -0.5196
16446TIP3    H270830   1.277   2.519  13.021  0.3948  0.8154 -0.0707
16447TIP3   OH270831   1.089   0.903   1.161  0.1083 -0.0743 -0.9101
16447TIP3    H170832   1.138   0.831   1.122  0.6117 -1.0067  1.3496
16447TIP3    H270833   1.156   0.967   1.185  0.2051 -0.9786  1.4055
16448TIP3   OH270834   0.782   4.068  16.142  0.3672 -0.0074 -0.4057
16448TIP3    H170835   0.738   4.075  16.058 -0.3791  0.0661 -0.0117
16448TIP3    H270836   0.787   3.974  16.160  2.3852 -0.1481 -1.4964
16449TIP3   OH270837   5.508   4.707  16.578  0.4507 -0.3375 -0.1357
16449TIP3    H170838   5.544   4.795  16.587 -0.2455 -0.0107 -0.4931
16449TIP3    H270839   5.501   4.675  16.668 -0.8083  0.5924  0.1108
16450TIP3   OH270840   5.932   6.726  16.354  0.1856 -0.3833  0.8817
16450TIP3    H170841   5.923   6.702  16.446  1.2085 -1.1543  0.7986
16450TIP3    H270842   5.843   6.730  16.321 -0.1817 -0.1788  1.8921
16451TIP3   OH270843   2.605   6.118   4.002 -0.6028 -0.2867  0.2661
16451TIP3    H170844   2.626   6.025   3.990 -1.5214 -0.1822 -2.4468
16451TIP3    H270845   2.523   6.117   4.051 -2.5529 -1.0508 -2.8614
16452TIP3   OH270846   4.529   5.321  15.390  0.0360  0.0982 -0.0078
16452TIP3    H170847   4.439   5.302  15.415 -0.1620 -0.9581 -1.4696
16452TIP3    H270848   4.538   5.416  15.403 -1.5993  0.3791 -0.8411
16453TIP3   OH270849   4.984   4.594   3.007  0.3553  0.8033  0.1328
16453TIP3    H170850   5.057   4.641   3.047 -0.4911  1.1952  1.2333
16453TIP3    H270851   4.906   4.632   3.047 -0.4395  0.0673 -0.6902
16454TIP3   OH270852   1.051   0.690   0.049 -0.3179 -0.1415  0.3955
16454TIP3    H170853   1.005   0.609   0.024  1.0496 -0.3787 -1.4312
16454TIP3    H270854   1.054   0.742  -0.032  0.9188  0.7029  0.9700
16455TIP3   OH270855   1.968   4.837  13.361  0.6274  0.5769 -0.0185
16455TIP3    H170856   2.038   4.785  13.320  0.7631 -0.7934  1.8552
16455TIP3    H270857   2.002   4.858  13.448 -1.8206 -1.3634  1.4881
16456TIP3   OH270858   1.370   5.124  15.756 -0.1981  0.1599 -0.0800
16456TIP3    H170859   1.301   5.189  15.742 -2.2814 -1.6171  1.5596
16456TIP3    H270860   1.396   5.136  15.847 -0.2658 -0.9769  0.0918
16457TIP3   OH270861   0.694   5.945   0.033 -0.3228 -0.1874  0.3715
16457TIP3    H170862   0.641   5.930  -0.046 -0.4598 -1.1944  0.6498
16457TIP3    H270863   0.780   5.969  -0.001 -0.4571 -0.3424 -0.0908
16458TIP3   OH270864   6.337   6.756  11.722 -0.3673  0.6155  0.1065
16458TIP3    H170865   6.324   6.705  11.642 -1.3207  0.1969  0.5193
16458TIP3    H270866   6.414   6.716  11.764  0.1886  0.8939 -0.6374
16459TIP3   OH270867   1.636   3.962  15.615 -0.2854 -0.1710  0.0800
16459TIP3    H170868   1.595   3.909  15.684 -1.4894 -0.2625 -0.6942
16459TIP3    H270869   1.688   3.899  15.565 -0.4070 -0.3245  0.1457
16460TIP3   OH270870   5.007   4.974  12.724  0.0882  0.0825 -0.5065
16460TIP3    H170871   4.965   5.056  12.750 -1.6769 -0.5679 -1.2193
16460TIP3    H270872   4.982   4.911  12.792 -1.7387 -0.7853 -1.9325
16461TIP3   OH270873   0.844   2.824  12.540 -0.3580  0.0719  0.0488
16461TIP3    H170874   0.859   2.736  12.576  0.8107 -0.0717 -0.7631
16461TIP3    H270875   0.912   2.878  12.579 -0.1888  0.3054 -0.5710
16462TIP3   OH270876   4.349   3.980  13.820 -0.4626 -0.4282 -0.4298
16462TIP3    H170877   4.304   3.901  13.849 -0.0909 -0.9968 -1.3917
16462TIP3    H270878   4.415   3.996  13.887 -2.2339  0.5615  1.1343
16463TIP3   OH270879   5.692   2.934  15.538  0.3608  0.0603 -0.3997
16463TIP3    H170880   5.769   2.971  15.495  0.5851 -0.4573 -0.4544
16463TIP3    H270881   5.728   2.868  15.598  0.1218  1.3246  1.1777
16464TIP3   OH270882   3.989   3.794  12.600 -0.1488  0.4438 -0.4030
16464TIP3    H170883   4.019   3.723  12.544 -0.9440 -0.4862  0.3377
16464TIP3    H270884   3.958   3.861  12.539 -0.0713 -0.1365 -1.0911
16465TIP3   OH270885   2.268   5.649  16.953  0.1127 -0.3393 -0.1440
16465TIP3    H170886   2.276   5.554  16.960  1.6011 -0.1925  0.4148
16465TIP3    H270887   2.279   5.667  16.859 -0.7773 -0.7539 -0.3327
16466TIP3   OH270888   0.037   3.290  11.787  0.0915  0.1658  0.2465
16466TIP3    H170889   0.076   3.298  11.700  0.2128  1.3085  0.3960
16466TIP3    H270890   0.055   3.200  11.813 -2.1916 -0.9568 -1.9586
16467TIP3   OH270891   1.705   4.547   2.475  0.2164  0.5325 -0.2861
16467TIP3    H170892   1.686   4.635   2.443 -1.5638  0.0147 -0.7238
16467TIP3    H270893   1.654   4.539   2.555  0.3249 -0.1248 -0.2787
16468TIP3   OH270894   0.587   2.817   2.790 -0.2316  0.1811  0.5265
16468TIP3    H170895   0.594   2.812   2.695  0.2192  1.5286  0.4929
16468TIP3    H270896   0.611   2.729   2.820 -0.5938 -0.3165 -0.6082
16469TIP3   OH270897   3.247   4.718  16.476 -0.0106  0.1621  0.3261
16469TIP3    H170898   3.198   4.791  16.440  0.8453 -0.4161 -2.0841
16469TIP3    H270899   3.338   4.733  16.449  0.6224 -0.4390  2.0180
16470TIP3   OH270900   2.872   3.949  11.099  0.3277  0.2033  0.2426
16470TIP3    H170901   2.837   3.861  11.087  1.1427 -0.2228  0.9623
16470TIP3    H270902   2.883   3.982  11.010  1.2635 -0.9182 -0.0694
16471TIP3   OH270903   3.325   1.821   0.956  0.5139 -0.1039  0.3264
16471TIP3    H170904   3.328   1.915   0.940 -0.4598 -0.1479 -0.1793
16471TIP3    H270905   3.235   1.805   0.984 -0.5183 -1.4802 -3.4727
16472TIP3   OH270906   2.866   3.328   3.327  0.2730  0.2409  0.2296
16472TIP3    H170907   2.820   3.403   3.289 -0.3665  0.1233  0.7654
16472TIP3    H270908   2.904   3.282   3.251 -2.8413 -1.2320 -0.4839
16473TIP3   OH270909   2.542   3.265   5.211 -0.2277  0.6196  0.0167
16473TIP3    H170910   2.467   3.299   5.259 -0.3207 -0.7673  0.9047
16473TIP3    H270911   2.618   3.295   5.261 -0.3255 -0.8564  1.1012
16474TIP3   OH270912   5.506   0.967  14.126  0.0510 -0.2057  0.3500
16474TIP3    H170913   5.562   0.895  14.096 -0.0002 -0.8698  1.8245
16474TIP3    H270914   5.486   0.945  14.217 -0.3985  1.4099  0.6452
16475TIP3   OH270915   1.832   5.608   1.723  0.0765  0.3949  0.1972
16475TIP3    H170916   1.793   5.588   1.638  0.2290  0.8761  0.0145
16475TIP3    H270917   1.864   5.523   1.755 -1.1817 -0.0172  0.3927
16476TIP3   OH270918   1.876   2.678   0.528 -0.1504  0.5531 -0.1452
16476TIP3    H170919   1.810   2.730   0.482 -0.7890 -0.6542 -0.6002
16476TIP3    H270920   1.858   2.694   0.621  2.0884  4.1907 -0.2559
16477TIP3   OH270921   4.723   0.065   2.812 -0.1949  0.3055 -0.2728
16477TIP3    H170922   4.698   0.112   2.891 -0.1177  0.3584 -0.2798
16477TIP3    H270923   4.799   0.012   2.837 -0.1989  0.2869 -0.2989
16478TIP3   OH270924   5.106   1.559  15.243 -0.0871  0.5842 -0.1705
16478TIP3    H170925   5.020   1.598  15.230 -0.8263 -1.0625 -0.3238
16478TIP3    H270926   5.162   1.601  15.178 -1.4298 -0.3475 -1.9898
16479TIP3   OH270927   2.712   3.537  15.655  0.5675 -0.2436  0.3083
16479TIP3    H170928   2.762   3.467  15.697  2.3827  0.4166 -0.7386
16479TIP3    H270929   2.696   3.506  15.566  0.8809  0.4348  0.0145
16480TIP3   OH270930   1.004   1.641   2.470  0.0214 -0.1247 -0.0386
16480TIP3    H170931   1.061   1.575   2.510  0.1476 -0.2899 -0.4937
16480TIP3    H270932   1.026   1.639   2.377 -0.9610 -0.4225 -0.2660
16481TIP3   OH270933   2.467   0.504  13.429 -0.4003  0.2875 -0.3464
16481TIP3    H170934   2.380   0.469  13.409 -1.9172  3.3413  0.5949
16481TIP3    H270935   2.510   0.509  13.344 -1.5025 -0.3556 -0.9632
16482TIP3   OH270936   6.085   3.131   5.870 -0.3389  0.2549 -0.3478
16482TIP3    H170937   6.044   3.177   5.798 -0.6295 -0.7594 -0.8436
16482TIP3    H270938   6.058   3.040   5.859 -0.0144  0.0093  0.7734
16483TIP3   OH270939   2.576   2.627  14.622  0.6404  0.1215  0.0515
16483TIP3    H170940   2.637   2.601  14.691 -0.1233 -0.5193  0.4906
16483TIP3    H270941   2.627   2.621  14.542  1.4706  0.6558  0.5323
16484TIP3   OH270942   0.028   1.216  16.970 -0.5002 -0.0358 -0.3877
16484TIP3    H170943  -0.006   1.304  16.981 -1.7428 -0.5880  0.3269
16484TIP3    H270944   0.119   1.221  17.000 -0.3947  1.1153 -0.8815
16485TIP3   OH270945   5.547   4.959  16.962  0.2437  0.0488 -0.1525
16485TIP3    H170946   5.492   4.957  17.040 -0.8928  0.0342 -0.9309
16485TIP3    H270947   5.535   5.047  16.927  1.4354  0.3381  0.1660
16486TIP3   OH270948   3.309   2.720   4.511  0.3325  0.2585  0.0780
16486TIP3    H170949   3.268   2.641   4.545  0.3475 -0.4522 -1.5301
16486TIP3    H270950   3.251   2.791   4.539  0.5495 -0.2587  1.8987
16487TIP3   OH270951   6.009   2.754  14.664  0.2862 -0.1018  0.0251
16487TIP3    H170952   6.060   2.779  14.587  0.1580  0.3655  0.0906
16487TIP3    H270953   5.950   2.828  14.679  1.4956  0.5761  1.5836
16488TIP3   OH270954   3.774   5.416  15.685 -0.7907  0.0269 -0.2677
16488TIP3    H170955   3.753   5.339  15.739  1.3061 -0.8649 -0.6622
16488TIP3    H270956   3.794   5.485  15.748  2.5808 -1.2704  0.1861
16489TIP3   OH270957   1.615   5.960   1.118  0.3569  0.0274  0.1349
16489TIP3    H170958   1.614   5.865   1.111 -0.7330  0.0339  0.0913
16489TIP3    H270959   1.615   5.991   1.027 -1.9883  0.0668  0.1203
16490TIP3   OH270960   0.643   3.021  11.982 -0.1262 -0.5241 -0.3610
16490TIP3    H170961   0.569   2.960  11.976 -1.2018  0.9417 -3.0953
16490TIP3    H270962   0.707   2.988  11.920  1.7988 -2.0337  2.3118
16491TIP3   OH270963   4.071   3.564   4.935  0.2469 -0.1374  0.3581
16491TIP3    H170964   4.099   3.483   4.893  0.1414 -0.1495  0.3114
16491TIP3    H270965   3.996   3.538   4.989 -1.2753  0.3591 -1.4757
16492TIP3   OH270966   2.416   1.306  13.304  0.1080  0.5200 -0.2484
16492TIP3    H170967   2.501   1.263  13.315  0.2410  0.5481 -1.1465
16492TIP3    H270968   2.364   1.245  13.252 -0.3472  0.6118  0.0921
16493TIP3   OH270969   2.958   3.730   3.245  0.0037 -0.5744  0.0173
16493TIP3    H170970   2.985   3.821   3.255 -0.1138 -0.6410  1.0436
16493TIP3    H270971   3.027   3.680   3.290 -0.2130 -0.9461 -0.0627
16494TIP3   OH270972   5.710   1.769  12.099 -0.2786 -0.3928 -0.3983
16494TIP3    H170973   5.636   1.749  12.156 -0.2598 -0.5482 -0.4283
16494TIP3    H270974   5.777   1.705  12.123 -0.5942 -1.0328 -1.2137
16495TIP3   OH270975   4.236   6.129   3.808  0.0623  0.4887  0.1308
16495TIP3    H170976   4.244   6.139   3.903  0.8388 -0.1467  0.1448
16495TIP3    H270977   4.255   6.215   3.773  1.2453  0.3900  0.4899
16496TIP3   OH270978   5.085   0.853  10.811 -0.0695  0.0092 -0.4320
16496TIP3    H170979   5.134   0.922  10.767 -2.7483  1.1052 -1.8567
16496TIP3    H270980   5.025   0.819  10.744 -1.0993 -1.4213  1.1526
16497TIP3   OH270981   0.840   0.100  15.108 -0.1967 -0.1290 -0.0907
16497TIP3    H170982   0.932   0.088  15.085 -0.5598 -1.2956 -0.9628
16497TIP3    H270983   0.841   0.112  15.203  0.8870  0.2481 -0.1392
16498TIP3   OH270984   6.360   4.018   4.780  0.4229 -0.1576  0.2142
16498TIP3    H170985   6.286   4.067   4.816 -0.5162 -1.6823  0.4282
16498TIP3    H270986   6.399   4.077   4.716 -1.3897  0.4422 -0.3697
16499TIP3   OH270987   4.070   1.086   2.634 -0.0609 -0.2801  0.1016
16499TIP3    H170988   4.081   1.014   2.571  1.4274  0.3498 -0.3846
16499TIP3    H270989   4.149   1.139   2.623 -1.6328  2.0245 -0.2953
16500TIP3   OH270990   2.437   0.232   0.221  0.2018  0.4696  0.0145
16500TIP3    H170991   2.435   0.305   0.160  0.8880  0.6757  0.2374
16500TIP3    H270992   2.346   0.221   0.249 -0.1956  0.0485 -1.4257
16501TIP3   OH270993   1.882   3.149   4.653  0.2386 -0.5528  0.2724
16501TIP3    H170994   1.966   3.195   4.659 -0.5050  1.1309 -1.5298
16501TIP3    H270995   1.830   3.183   4.726  0.4373 -0.0789  0.1968
16502TIP3   OH270996   6.635   1.260  11.411  0.1612 -0.2405  0.4377
16502TIP3    H170997   6.705   1.314  11.447 -0.8338  1.1612  0.3090
16502TIP3    H270998   6.609   1.204  11.485  1.5890 -0.9744  0.4027
16503TIP3   OH270999   0.574   6.262  15.269 -0.0724 -0.9430  0.4576
16503TIP3    H171000   0.553   6.219  15.351  1.3700 -0.9343  0.8470
16503TIP3    H271001   0.627   6.199  15.221  0.7395 -0.2033  0.3715
16504TIP3   OH271002   0.336   0.021   2.538 -0.2872 -0.5490  0.1500
16504TIP3    H171003   0.373   0.053   2.456 -2.7411 -0.7023 -1.0827
16504TIP3    H271004   0.301  -0.065   2.516  1.5123 -1.8216  2.1009
16505TIP3   OH271005   4.096   6.553   3.850 -0.6249 -0.2809 -0.5004
16505TIP3    H171006   4.023   6.614   3.859 -0.7783 -0.4702 -0.4572
16505TIP3    H271007   4.156   6.596   3.789  0.2726  0.8622  1.1661
16506TIP3   OH271008   2.832   5.918  15.420  0.4568  0.0349  0.0370
16506TIP3    H171009   2.773   5.953  15.353  1.0985  0.7317 -0.1734
16506TIP3    H271010   2.918   5.918  15.379  0.8908  0.6479  0.9261
16507TIP3   OH271011   5.307   6.397  15.384  0.9267 -0.5648 -0.7201
16507TIP3    H171012   5.349   6.322  15.426  1.2862  1.2514  2.3012
16507TIP3    H271013   5.281   6.364  15.298  2.0509 -3.8220  0.0946
16508TIP3   OH271014   1.537   6.774   2.971  0.0741  0.2013  0.3219
16508TIP3    H171015   1.513   6.741   3.058  0.4306  0.8362  0.6628
16508TIP3    H271016   1.455   6.773   2.921  0.0209 -0.8890  0.4276
16509TIP3   OH271017   3.060   0.077   5.566  0.2963  0.1349  0.2660
16509TIP3    H171018   2.972   0.061   5.598  0.4996  0.3699  0.9599
16509TIP3    H271019   3.050   0.093   5.472 -0.4504  0.6113  0.4273
16510TIP3   OH271020   1.587   3.287  12.443  0.7299  0.5082 -0.0203
16510TIP3    H171021   1.586   3.238  12.361  0.1100 -1.9416  1.4061
16510TIP3    H271022   1.507   3.340  12.440  0.8033  0.5720 -1.0690
16511TIP3   OH271023   2.537   6.701   5.665 -0.0172  0.4279 -0.5983
16511TIP3    H171024   2.590   6.712   5.743  0.6477  0.2608 -1.0238
16511TIP3    H271025   2.447   6.718   5.694  0.1093 -0.5782  0.4056
16512TIP3   OH271026   6.107   6.339  16.472 -0.4695  0.4951 -1.2938
16512TIP3    H171027   6.027   6.292  16.448 -0.9034  0.2633  0.5083
16512TIP3    H271028   6.143   6.289  16.545  1.1587  0.7856 -1.8710
16513TIP3   OH271029   0.468   2.195  13.985 -0.1929 -0.2582  0.2800
16513TIP3    H171030   0.454   2.109  14.025 -0.2143 -0.9484 -1.1889
16513TIP3    H271031   0.471   2.256  14.059 -0.8720 -1.4296  1.2813
16514TIP3   OH271032   5.012   3.562   6.516 -0.7911 -0.2916 -0.3234
16514TIP3    H171033   5.052   3.647   6.534 -2.6287  0.0599  2.3852
16514TIP3    H271034   5.086   3.504   6.496  0.6292  1.4750 -0.2976
16515TIP3   OH271035   5.997   4.808   2.253 -0.4250  0.0946  0.2990
16515TIP3    H171036   6.058   4.861   2.201 -0.3622  1.4776  1.7416
16515TIP3    H271037   5.916   4.859   2.253 -0.4121  0.1271  1.5832
16516TIP3   OH271038   0.276   3.239   1.552  0.2022 -0.0767 -0.3105
16516TIP3    H171039   0.238   3.212   1.636 -0.8073 -1.2382 -1.1232
16516TIP3    H271040   0.342   3.304   1.576 -0.2816 -0.1638  1.3622
16517TIP3   OH271041   2.159   5.662   3.870  0.4133 -0.2440 -0.3682
16517TIP3    H171042   2.219   5.634   3.939  0.3354  0.3844 -0.0417
16517TIP3    H271043   2.216   5.686   3.797  0.4830 -1.2257 -0.6511
16518TIP3   OH271044   2.358   0.722   3.977  0.6075 -0.0561  0.1187
16518TIP3    H171045   2.416   0.755   4.045 -0.8835 -1.5250  2.1635
16518TIP3    H271046   2.315   0.800   3.941  1.9691  0.7931  0.3197
16519TIP3   OH271047   6.441   2.904  13.907 -0.6737  0.2757  0.5162
16519TIP3    H171048   6.450   2.842  13.979 -0.5241  0.9490  1.0813
16519TIP3    H271049   6.456   2.852  13.828 -1.6751 -0.6435  0.9201
16520TIP3   OH271050   6.472   6.704   1.099  0.6268 -0.3395  0.0221
16520TIP3    H171051   6.507   6.771   1.158  0.8520  0.0930 -0.6008
16520TIP3    H271052   6.407   6.750   1.046  0.0837 -0.8401  0.2546
16521TIP3   OH271053   1.578   4.644  16.919 -0.4927  0.1330 -0.1212
16521TIP3    H171054   1.664   4.663  16.957 -0.7173 -0.2168  0.5696
16521TIP3    H271055   1.553   4.724  16.874  0.6949 -0.1355 -1.2751
16522TIP3   OH271056   3.238   4.001   2.198 -0.1409 -0.3169 -0.0032
16522TIP3    H171057   3.189   3.960   2.269 -1.1862  0.2603 -0.4004
16522TIP3    H271058   3.309   3.938   2.180 -0.7860 -1.1962  0.4864
16523TIP3   OH271059   2.643   3.708  16.291  0.3117 -0.2694  0.3419
16523TIP3    H171060   2.684   3.730  16.208 -0.0310  0.1766  0.2852
16523TIP3    H271061   2.625   3.614  16.286  0.8532 -0.3599  0.1652
16524TIP3   OH271062   1.157   3.405   0.543 -0.0665 -0.3026  0.3878
16524TIP3    H171063   1.251   3.419   0.548 -0.2867  1.9314 -0.9945
16524TIP3    H271064   1.147   3.324   0.492  1.0879 -0.9590  1.1788
16525TIP3   OH271065   3.989   0.497  11.643  0.2110 -0.1602  0.0117
16525TIP3    H171066   4.070   0.507  11.592 -0.3186 -2.3082 -1.3512
16525TIP3    H271067   3.988   0.404  11.667 -2.5122 -0.5090 -1.2166
16526TIP3   OH271068   5.026   6.311   0.068  0.5222  0.3384 -0.3549
16526TIP3    H171069   4.984   6.226   0.051  1.9687 -0.6922  1.0692
16526TIP3    H271070   4.972   6.374   0.021 -1.1251 -1.2655 -0.6849
16527TIP3   OH271071   3.366   4.058  15.358 -0.3201 -0.1786  0.0641
16527TIP3    H171072   3.409   3.977  15.386 -0.8704 -0.2446  0.7482
16527TIP3    H271073   3.406   4.078  15.274  0.4933 -0.6568  0.3232
16528TIP3   OH271074   2.830   4.152   3.658  0.1172  0.0044 -0.5591
16528TIP3    H171075   2.883   4.202   3.720 -0.5594 -0.4418  0.4028
16528TIP3    H271076   2.893   4.107   3.603  0.7450 -0.2057  0.3161
16529TIP3   OH271077   3.292   3.827  12.712 -0.8308  0.6308  0.1547
16529TIP3    H171078   3.334   3.745  12.686 -0.1964  2.2092 -4.0726
16529TIP3    H271079   3.209   3.799  12.752  0.4639 -2.1423  1.0407
16530TIP3   OH271080   3.736   1.270   5.053 -0.4354  0.1787 -0.1311
16530TIP3    H171081   3.705   1.277   4.963 -0.8124 -0.5505 -0.0571
16530TIP3    H271082   3.763   1.359   5.075  0.7825  0.1317 -1.3577
16531TIP3   OH271083   3.268   2.022  12.522  0.0968 -0.4564 -0.7000
16531TIP3    H171084   3.176   2.026  12.495 -0.3257  0.0914  0.7546
16531TIP3    H271085   3.284   1.928  12.535 -0.2997 -0.5467 -0.8343
16532TIP3   OH271086   5.544   1.468   2.343 -0.3946  0.2670  0.4691
16532TIP3    H171087   5.458   1.424   2.346 -1.3704  2.1289  0.8578
16532TIP3    H271088   5.542   1.518   2.262  2.0699 -3.0123 -1.6882
16533TIP3   OH271089   3.898   0.607  12.971  0.4794 -0.4748  0.3497
16533TIP3    H171090   3.817   0.575  13.010  0.4902 -0.8378  0.0756
16533TIP3    H271091   3.896   0.574  12.881  0.8695 -0.3786  0.3058
16534TIP3   OH271092   6.019   1.214  17.205 -0.3851  0.1866  0.1767
16534TIP3    H171093   6.113   1.205  17.216 -0.3110 -0.1189 -0.6888
16534TIP3    H271094   5.995   1.288  17.261  0.7110  1.6485 -1.2209
16535TIP3   OH271095   4.518   6.700  11.124 -0.1672 -0.0949 -0.4238
16535TIP3    H171096   4.462   6.630  11.091 -0.2874 -1.4076  2.4399
16535TIP3    H271097   4.607   6.668  11.110 -0.2246 -0.8975  1.0189
16536TIP3   OH271098   5.236   3.906   2.874  0.8357 -0.6676  0.0544
16536TIP3    H171099   5.311   3.956   2.843  1.2580 -0.5582  1.2380
16536TIP3    H271100   5.205   3.954   2.952 -1.2494  0.0152 -1.1337
16537TIP3   OH271101   3.453   1.282   0.863  0.4923 -0.5029  0.2787
16537TIP3    H171102   3.466   1.295   0.769 -1.7110 -0.9632 -0.1034
16537TIP3    H271103   3.488   1.362   0.903 -2.2572  1.5362 -1.2447
16538TIP3   OH271104   4.666   3.150  16.908  0.3551 -0.3957 -0.6941
16538TIP3    H171105   4.575   3.123  16.897  0.1409 -0.6371  1.3937
16538TIP3    H271106   4.717   3.088  16.856 -0.6720 -0.3255 -1.7838
16539TIP3   OH271107   3.149   0.402   5.497 -0.4256 -0.0368  0.2509
16539TIP3    H171108   3.204   0.352   5.557 -0.8211 -0.9859 -0.1726
16539TIP3    H271109   3.106   0.336   5.443 -0.8068  0.7689 -0.4410
16540TIP3   OH271110   1.583   2.394   4.419  0.0200  0.0473  0.5870
16540TIP3    H171111   1.598   2.307   4.383 -1.6067 -0.6381  1.4800
16540TIP3    H271112   1.586   2.452   4.344 -0.3098 -0.9752 -0.2307
16541TIP3   OH271113   6.193   5.672  14.651  0.9097  0.4361 -0.0281
16541TIP3    H171114   6.211   5.582  14.624 -0.8568  0.1183 -0.2185
16541TIP3    H271115   6.162   5.664  14.742  0.9512  0.8747  0.0255
16542TIP3   OH271116   2.721   3.228   2.458 -0.4512  0.0849  0.0098
16542TIP3    H171117   2.810   3.249   2.429 -0.7915  0.0997 -1.0435
16542TIP3    H271118   2.664   3.278   2.399 -1.1901 -1.1522 -0.3493
16543TIP3   OH271119   6.564   3.170   2.668  0.1517  1.1544 -0.3216
16543TIP3    H171120   6.526   3.195   2.752  2.7633  0.8276  1.0119
16543TIP3    H271121   6.609   3.249   2.638 -2.7203  2.0185 -2.6271
16544TIP3   OH271122   4.594   4.286   2.546 -0.4782  0.6102  0.0616
16544TIP3    H171123   4.524   4.233   2.508  0.6181 -0.1398 -0.9304
16544TIP3    H271124   4.671   4.229   2.544  0.3633  1.7251  0.3678
16545TIP3   OH271125   3.331   2.463   1.458 -0.0505  0.2890 -0.6881
16545TIP3    H171126   3.327   2.499   1.546  0.2694  2.1593 -1.4046
16545TIP3    H271127   3.240   2.442   1.436 -0.2899  0.9235 -0.3315
16546TIP3   OH271128   2.393   6.715  12.844 -0.7538  0.5983  0.5542
16546TIP3    H171129   2.456   6.672  12.902 -0.6520  0.7756  0.5732
16546TIP3    H271130   2.377   6.800  12.885 -2.2968 -0.1151  1.4726
16547TIP3   OH271131   5.641   5.604   0.314 -0.1617 -0.4458  0.4553
16547TIP3    H171132   5.590   5.524   0.319 -0.5456 -0.1192  2.0834
16547TIP3    H271133   5.726   5.577   0.279 -0.7454 -1.3345 -0.2642
16548TIP3   OH271134   6.660   1.009  16.868  0.3718 -0.6542 -0.7409
16548TIP3    H171135   6.698   1.096  16.855  0.9248 -0.8210 -0.2883
16548TIP3    H271136   6.601   0.997  16.794 -1.1747  0.8913  0.2081
16549TIP3   OH271137   2.369   0.087  10.937 -0.3252  0.1373 -0.0763
16549TIP3    H171138   2.375   0.048  11.024 -0.9377 -2.0771 -0.9986
16549TIP3    H271139   2.279   0.069  10.909 -0.0480  0.5687 -1.2832
16550TIP3   OH271140   5.589   0.604  12.888 -0.2496 -0.3244  0.5931
16550TIP3    H171141   5.548   0.690  12.877  0.0894 -0.0527  1.4099
16550TIP3    H271142   5.655   0.600  12.819 -1.0163 -0.3855 -0.1458
16551TIP3   OH271143   5.260   1.215  11.889 -0.4919 -0.0887 -0.3349
16551TIP3    H171144   5.165   1.214  11.897 -0.6241  0.7734 -1.6662
16551TIP3    H271145   5.283   1.129  11.855 -0.6116 -0.9963  1.8161
16552TIP3   OH271146   6.767   1.516   4.039 -0.2060  0.5451  0.8355
16552TIP3    H171147   6.707   1.519   3.964 -0.1883 -1.3613  0.7148
16552TIP3    H271148   6.740   1.589   4.094  0.9059  3.0780 -1.8609
16553TIP3   OH271149   2.862   3.735   2.616 -0.3796  0.1489  0.4233
16553TIP3    H171150   2.945   3.692   2.598 -1.3424 -2.0707  1.1337
16553TIP3    H271151   2.819   3.741   2.530 -0.2289 -0.2845  0.3191
16554TIP3   OH271152   1.971   0.512  11.561 -0.4195 -0.1292  0.3575
16554TIP3    H171153   1.927   0.479  11.482 -1.4813  1.1357  0.4047
16554TIP3    H271154   1.919   0.588  11.587 -0.0370 -0.4963  2.2533
16555TIP3   OH271155   5.102   5.942   2.231 -0.0088  0.2670  0.0201
16555TIP3    H171156   5.012   5.917   2.214  0.5675 -0.7952 -1.5716
16555TIP3    H271157   5.118   5.916   2.322 -0.6143 -1.5980 -0.3913
16556TIP3   OH271158   5.468   4.561  14.360  0.0454  0.0800  0.1774
16556TIP3    H171159   5.379   4.596  14.355 -0.1120 -0.0102  2.0408
16556TIP3    H271160   5.456   4.469  14.381  0.5671 -0.0934 -0.2852
16557TIP3   OH271161   6.798   0.672   0.441 -0.0571  0.0343 -0.3934
16557TIP3    H171162   6.824   0.692   0.531 -0.7045 -1.4134  0.1281
16557TIP3    H271163   6.708   0.704   0.434  0.3362  1.0541 -0.8407
16558TIP3   OH271164   6.689   3.797  13.600  0.0550  0.0829 -0.3308
16558TIP3    H171165   6.677   3.780  13.693 -1.7354 -0.9542 -0.7387
16558TIP3    H271166   6.743   3.724  13.569 -2.0776 -1.3643 -0.7380
16559TIP3   OH271167   4.006   1.833  17.081  0.5029  0.5827 -0.5110
16559TIP3    H171168   4.008   1.882  16.999 -0.7263 -0.5450 -1.2373
16559TIP3    H271169   3.993   1.742  17.054 -1.0744  0.3368  0.9693
16560TIP3   OH271170   4.391   3.951  15.493 -0.8178  0.1608  0.0919
16560TIP3    H171171   4.485   3.935  15.496 -0.7541  0.3535 -0.8989
16560TIP3    H271172   4.378   4.008  15.418 -1.9112 -1.1489 -0.7452
16561TIP3   OH271173   1.717   3.117   4.437  0.3139  0.1175  0.3474
16561TIP3    H171174   1.772   3.126   4.359  0.1968 -1.0555  0.1308
16561TIP3    H271175   1.777   3.132   4.510  0.6962 -0.1009  0.0790
16562TIP3   OH271176   6.386   0.939  13.634 -0.2011 -0.7076 -0.2251
16562TIP3    H171177   6.437   0.979  13.564  0.2600 -0.7039  0.1108
16562TIP3    H271178   6.401   0.995  13.710  0.8200 -1.7585  0.3711
16563TIP3   OH271179   5.528   2.878  13.319 -0.4247 -0.0693 -0.5424
16563TIP3    H171180   5.510   2.971  13.335 -0.2066 -0.0136 -0.6266
16563TIP3    H271181   5.618   2.865  13.349  0.4080  0.2975 -2.7606
16564TIP3   OH271182   0.342   3.511  14.942 -0.1542  0.1240 -0.7826
16564TIP3    H171183   0.352   3.416  14.931  1.7139  0.4080 -1.6486
16564TIP3    H271184   0.263   3.533  14.892 -0.7629 -1.0005 -0.3387
16565TIP3   OH271185   3.509   1.163   2.558  0.4504  0.1161  0.4675
16565TIP3    H171186   3.503   1.124   2.471 -1.7747 -0.6127  0.9345
16565TIP3    H271187   3.500   1.257   2.543  1.0233  0.0725 -0.1756
16566TIP3   OH271188   0.664   3.958  11.321  0.1890  0.4380  0.2598
16566TIP3    H171189   0.663   3.951  11.225  1.2066  2.2025  0.1109
16566TIP3    H271190   0.600   4.027  11.340 -0.7167 -0.5772  0.9229
16567TIP3   OH271191   1.456   0.007   4.336 -0.0422 -0.7678  0.3236
16567TIP3    H171192   1.395   0.044   4.400  0.4054 -1.3754  1.0963
16567TIP3    H271193   1.482   0.082   4.283  0.3290 -0.0887  1.4516
16568TIP3   OH271194   2.734   5.779  16.483 -0.0076  0.2462  0.1827
16568TIP3    H171195   2.731   5.685  16.500 -1.3505  0.1867 -0.2604
16568TIP3    H271196   2.825   5.797  16.463  0.1886 -1.0467 -0.1585
16569TIP3   OH271197   4.426   4.954   5.193  0.2565  0.3500  0.3607
16569TIP3    H171198   4.338   4.989   5.202 -0.1595 -0.3217 -1.0169
16569TIP3    H271199   4.442   4.953   5.099  0.0717 -3.5411  0.2967
16570TIP3   OH271200   0.019   4.510   6.115 -0.1363  0.0445 -0.4166
16570TIP3    H171201  -0.056   4.478   6.066 -0.0464  0.4054 -0.7982
16570TIP3    H271202   0.025   4.452   6.191 -0.5452 -0.2439 -0.6005
16571TIP3   OH271203   0.361   0.765   5.374  0.3273 -0.0678 -0.4152
16571TIP3    H171204   0.277   0.803   5.399  0.4495 -1.4179  2.1730
16571TIP3    H271205   0.341   0.674   5.353  0.9782 -0.1137 -0.8540
16572TIP3   OH271206   3.099   6.362   6.272  0.0209  0.0858  0.5965
16572TIP3    H171207   3.024   6.307   6.297 -1.5433  2.1978  0.6430
16572TIP3    H271208   3.158   6.355   6.347 -1.6686  1.0884  2.0603
16573TIP3   OH271209   1.743   6.660   1.618 -1.1918 -0.0384  0.0973
16573TIP3    H171210   1.774   6.733   1.565  1.5470 -0.0981  1.5313
16573TIP3    H271211   1.736   6.586   1.558 -2.0357  0.8697 -0.9458
16574TIP3   OH271212   5.967   3.340  11.234  0.0573 -0.0327 -0.4625
16574TIP3    H171213   5.945   3.423  11.274 -1.0586 -0.8638  0.6814
16574TIP3    H271214   6.042   3.359  11.177  2.0399  1.0544  2.4272
16575TIP3   OH271215   4.972   4.646   1.381  0.0198  0.5522  0.0133
16575TIP3    H171216   5.027   4.576   1.346 -2.6887 -1.7237  0.0985
16575TIP3    H271217   5.011   4.668   1.465  0.5280 -1.3520  0.2894
16576TIP3   OH271218   1.500   5.560  12.861 -0.0090  0.6337  0.4161
16576TIP3    H171219   1.564   5.516  12.917 -0.9632  1.0755  1.8633
16576TIP3    H271220   1.461   5.489  12.809  0.2665  0.1145  0.9176
16577TIP3   OH271221   0.702   3.852  11.964  0.0474  0.3234  0.2865
16577TIP3    H171222   0.650   3.853  11.884 -2.9527  0.0868  2.1570
16577TIP3    H271223   0.655   3.909  12.024  0.7968 -1.5449  2.7318
16578TIP3   OH271224   0.711   5.900  15.833 -0.4703  0.1706 -0.5003
16578TIP3    H171225   0.705   5.821  15.779  1.4711 -0.4969  0.2174
16578TIP3    H271226   0.753   5.965  15.776 -1.0264  0.3460 -0.7164
16579TIP3   OH271227   1.608   6.022  15.592 -0.4163  0.0536 -0.3604
16579TIP3    H171228   1.695   5.985  15.578  0.1579  1.6610 -1.2144
16579TIP3    H271229   1.619   6.080  15.668 -1.2497 -1.2948  0.8239
16580TIP3   OH271230   3.110   6.766   3.407  0.2339  0.5657  0.1884
16580TIP3    H171231   3.017   6.770   3.429  0.2344 -1.1366  0.6201
16580TIP3    H271232   3.120   6.824   3.332 -0.8620  2.0201  1.1444
16581TIP3   OH271233   5.029   6.092   5.439  0.2270  0.1646  0.0261
16581TIP3    H171234   5.076   6.055   5.365  1.1919 -1.9595  1.6495
16581TIP3    H271235   4.938   6.096   5.410  0.8307  0.8095 -1.8026
16582TIP3   OH271236   1.665   3.432  15.445 -0.4845  0.1029  0.2271
16582TIP3    H171237   1.668   3.517  15.402 -2.0679  1.2187  2.2316
16582TIP3    H271238   1.716   3.443  15.525 -0.1867 -1.0149  0.1957
16583TIP3   OH271239   6.336   3.454  11.190  0.1493  0.4911  0.2315
16583TIP3    H171240   6.391   3.397  11.244  0.5831  0.9196  0.2429
16583TIP3    H271241   6.266   3.398  11.160  0.7072 -0.1141  0.0505
16584TIP3   OH271242   4.352   1.975  16.807  0.8410  0.1956  0.5050
16584TIP3    H171243   4.312   1.888  16.802  2.2653 -0.4207 -0.6943
16584TIP3    H271244   4.294   2.031  16.755  0.2097 -0.1449  0.8288
16585TIP3   OH271245   3.603   2.315  16.217 -0.0231  0.2116  0.2022
16585TIP3    H171246   3.625   2.381  16.283  1.1071 -0.3715  0.4383
16585TIP3    H271247   3.686   2.297  16.173 -0.0192 -2.0208  1.0582
16586TIP3   OH271248   3.547   5.690  12.985  0.0885  0.1732 -0.2186
16586TIP3    H171249   3.618   5.740  13.026 -0.4254  0.6157  0.1471
16586TIP3    H271250   3.561   5.700  12.891 -0.3568  1.5246 -0.1533
16587TIP3   OH271251   0.916   6.795  16.297 -0.5142  0.4446  0.2966
16587TIP3    H171252   0.899   6.701  16.308 -0.8926  0.4772  0.0044
16587TIP3    H271253   0.991   6.812  16.354  0.6968 -0.3979 -1.0147
16588TIP3   OH271254   5.305   0.310   5.242  0.0855 -0.2121  0.4662
16588TIP3    H171255   5.308   0.353   5.157 -0.3686  0.6675  0.8957
16588TIP3    H271256   5.212   0.295   5.259  0.2850 -2.4713 -0.2250
16589TIP3   OH271257   0.995   0.605  16.202  0.3530  0.1130 -0.5878
16589TIP3    H171258   0.958   0.610  16.290 -2.4590 -0.8267 -1.6576
16589TIP3    H271259   1.089   0.614  16.215  0.0392 -0.6094  2.5627
16590TIP3   OH271260   0.604   1.401  13.744 -0.3272  0.0621 -0.0686
16590TIP3    H171261   0.665   1.372  13.811  0.2502  0.4975 -0.4045
16590TIP3    H271262   0.568   1.320  13.708 -0.9350 -0.1640  1.0292
16591TIP3   OH271263   2.274   6.179   1.143 -0.1197 -0.4235 -0.1293
16591TIP3    H171264   2.237   6.209   1.060 -1.6026 -0.3144  0.5541
16591TIP3    H271265   2.200   6.179   1.203  0.5402 -2.3001  0.7209
16592TIP3   OH271266   6.670   6.472  16.942 -0.1988  0.1839  0.6448
16592TIP3    H171267   6.649   6.469  16.849 -0.5484  1.3345  0.6797
16592TIP3    H271268   6.606   6.413  16.983 -0.4328  0.1464  0.2287
16593TIP3   OH271269   1.693   1.415  12.768 -0.3768  0.2623  0.8580
16593TIP3    H171270   1.638   1.346  12.731 -0.0394  0.3739  0.1577
16593TIP3    H271271   1.667   1.494  12.721  1.6327 -0.0030 -0.7315
16594TIP3   OH271272   5.114   5.893  12.972  0.2880  0.2853 -0.2007
16594TIP3    H171273   5.092   5.970  12.919  0.9771 -0.9332 -2.2979
16594TIP3    H271274   5.209   5.892  12.975  0.2842 -0.6199 -0.3527
16595TIP3   OH271275   3.325   5.708   4.818 -0.2196 -0.4317 -0.0580
16595TIP3    H171276   3.357   5.776   4.759  0.6688 -0.7026  0.1016
16595TIP3    H271277   3.392   5.639   4.814  0.1089 -0.2396  1.6198
16596TIP3   OH271278   6.378   2.509   4.248  0.3705 -0.2702  0.1887
16596TIP3    H171279   6.364   2.440   4.313  1.5608 -0.6780  0.0272
16596TIP3    H271280   6.471   2.530   4.256  0.1914  0.7271 -0.3508
16597TIP3   OH271281   4.178   4.284  15.161  0.2861 -0.1347  0.9107
16597TIP3    H171282   4.106   4.263  15.102 -0.4833 -0.6371  2.0187
16597TIP3    H271283   4.143   4.353  15.218  1.2997  0.9553  0.2556
16598TIP3   OH271284   3.951   2.551   1.705  0.1025 -0.3100  0.2591
16598TIP3    H171285   3.949   2.574   1.798  0.8688  3.1344 -0.5180
16598TIP3    H271286   4.034   2.588   1.674 -1.3357  0.7940 -2.3400
16599TIP3   OH271287   1.058   4.921  11.976 -0.0315 -0.7588  0.0986
16599TIP3    H171288   1.147   4.956  11.972 -0.7877  1.0638 -1.2907
16599TIP3    H271289   1.057   4.868  12.056  1.8100  0.5872  1.0512
16600TIP3   OH271290   1.895   4.597   2.000  0.2220 -0.0712  0.1670
16600TIP3    H171291   1.812   4.571   2.041 -0.7340 -1.1369 -2.3522
16600TIP3    H271292   1.903   4.690   2.020 -2.3696  0.4037 -0.8117
16601TIP3   OH271293   2.899   4.886   2.230  0.1376  0.1964 -0.2358
16601TIP3    H171294   2.873   4.807   2.183  3.2164 -0.6021 -0.7511
16601TIP3    H271295   2.952   4.854   2.303 -0.7970  1.6733  1.1230
16602TIP3   OH271296   5.099   2.049   0.248 -0.1305  0.1064  0.4310
16602TIP3    H171297   5.018   2.065   0.199  0.6481  0.8377 -0.6261
16602TIP3    H271298   5.165   2.102   0.204  0.6312  0.6529  2.1679
16603TIP3   OH271299   1.320   1.362   1.347 -0.2969  0.4472 -0.3465
16603TIP3    H171300   1.391   1.402   1.297 -0.1599  0.7815  0.1075
16603TIP3    H271301   1.327   1.402   1.434 -1.1492  0.5975 -0.3468
16604TIP3   OH271302   6.710   3.118  13.350 -0.4856 -0.2562  0.5114
16604TIP3    H171303   6.670   3.058  13.287  1.2798  0.4306 -1.3154
16604TIP3    H271304   6.700   3.075  13.434  0.9654 -3.2665 -0.7961
16605TIP3   OH271305   0.001   5.388   1.590 -0.6309 -0.3554 -0.7553
16605TIP3    H171306   0.026   5.442   1.515  0.2826  0.3351  0.0394
16605TIP3    H271307   0.082   5.345   1.617 -0.2693  1.7186  1.6954
16606TIP3   OH271308   6.076   2.002   1.537  0.9255 -0.0997 -0.0274
16606TIP3    H171309   6.101   1.942   1.467 -0.4922  1.7384 -2.1644
16606TIP3    H271310   6.137   2.075   1.528  0.2576  0.4808  0.2004
16607TIP3   OH271311   4.783   1.743   4.931  0.1919 -0.9016  0.1618
16607TIP3    H171312   4.869   1.704   4.945  0.1493 -1.3776 -0.8624
16607TIP3    H271313   4.789   1.784   4.845 -1.7884 -4.1806 -1.6170
16608TIP3   OH271314   3.288   6.777   3.011  0.1696 -0.1765  0.2581
16608TIP3    H171315   3.278   6.873   3.011  0.0279 -0.1912  0.8234
16608TIP3    H271316   3.377   6.762   3.044 -0.2321 -0.2853  1.2828
16609TIP3   OH271317   3.315   6.525  11.672  0.1609  0.0060 -0.7213
16609TIP3    H171318   3.248   6.458  11.666 -0.3084  0.4283 -0.3182
16609TIP3    H271319   3.285   6.595  11.614 -0.3055  0.6560  0.2942
16610TIP3   OH271320   2.384   6.711  12.577 -0.5029  0.3160 -0.6163
16610TIP3    H171321   2.309   6.657  12.551 -1.3229  1.2082 -0.1274
16610TIP3    H271322   2.390   6.700  12.672  0.1786  0.0051 -0.6919
16611TIP3   OH271323   5.442   4.420   1.882 -0.1294  0.0605  0.5203
16611TIP3    H171324   5.518   4.407   1.939  0.4968 -1.2853 -0.5735
16611TIP3    H271325   5.461   4.501   1.834 -0.0516  0.4932  1.2829
16612TIP3   OH271326   4.805   0.511   3.564  0.1874 -0.5795  0.2220
16612TIP3    H171327   4.882   0.486   3.616  0.0905 -2.2336 -0.4077
16612TIP3    H271328   4.789   0.436   3.507 -0.0488  1.0046 -1.8239
16613TIP3   OH271329   4.718   1.397   2.417 -0.0103 -0.1984  0.1770
16613TIP3    H171330   4.811   1.372   2.418 -0.0672 -0.4665 -0.8762
16613TIP3    H271331   4.687   1.375   2.505  0.9081 -0.1652  0.5209
16614TIP3   OH271332   1.676   3.668   3.953 -0.0691  0.6107  0.0371
16614TIP3    H171333   1.676   3.717   3.870  2.5192  0.6290 -0.0083
16614TIP3    H271334   1.643   3.581   3.929  2.1225  0.1137 -1.4074
16615TIP3   OH271335   2.628   2.457  16.214  0.3955  0.6137  0.4370
16615TIP3    H171336   2.634   2.366  16.185 -0.9316  1.8028 -4.0053
16615TIP3    H271337   2.545   2.461  16.262 -0.8375  0.0213 -1.6025
16616TIP3   OH271338   4.884   5.809   2.390 -0.3851 -0.0444 -0.0469
16616TIP3    H171339   4.887   5.715   2.371 -0.6518  0.0031 -0.3406
16616TIP3    H271340   4.853   5.814   2.480  1.1792 -0.2834  0.5090
16617TIP3   OH271341   3.902   1.422   2.196 -0.0035  0.4098  0.0594
16617TIP3    H171342   3.868   1.424   2.286 -2.3728  0.8905 -0.8096
16617TIP3    H271343   3.857   1.349   2.155  0.9632  0.2797 -0.7823
16618TIP3   OH271344   6.153   0.683  12.330 -0.3298 -0.0926  0.5965
16618TIP3    H171345   6.098   0.734  12.272 -2.0438 -0.1209  2.1463
16618TIP3    H271346   6.110   0.688  12.416  0.9571 -1.8227  1.3983
16619TIP3   OH271347   0.104   4.662  14.728 -0.1750  0.0025 -0.0564
16619TIP3    H171348   0.040   4.602  14.689 -2.3593  2.4552 -0.3487
16619TIP3    H271349   0.052   4.720  14.783  2.3175 -0.5155  3.0035
16620TIP3   OH271350   5.987   3.065  15.690 -0.2701  0.3878  0.7480
16620TIP3    H171351   6.063   3.082  15.746 -0.9262 -0.3739  1.8890
16620TIP3    H271352   5.943   2.992  15.732 -1.3145  0.4451 -0.2431
16621TIP3   OH271353   0.885   3.707  12.175 -0.1660 -0.1923  0.0361
16621TIP3    H171354   0.797   3.685  12.203 -0.0209 -1.0358 -0.1275
16621TIP3    H271355   0.895   3.663  12.090 -0.0054  0.8865 -0.5153
16622TIP3   OH271356   5.004   1.911  16.586  0.0654 -0.1016  0.5302
16622TIP3    H171357   5.064   1.846  16.624  1.2320  0.7655  0.1959
16622TIP3    H271358   4.970   1.959  16.661  0.6722  0.1459  0.6570
16623TIP3   OH271359   0.996   4.936   5.722 -0.0371 -0.2635  0.0143
16623TIP3    H171360   0.944   5.012   5.694 -0.7858 -0.1877  1.5337
16623TIP3    H271361   0.950   4.904   5.800  0.8134 -1.7089 -0.0717
16624TIP3   OH271362   1.117   4.089  12.219 -0.3620  0.0210  0.2507
16624TIP3    H171363   1.144   4.061  12.131 -1.9828 -0.4452 -0.1023
16624TIP3    H271364   1.199   4.115  12.261  0.7224 -1.7951 -0.6558
16625TIP3   OH271365   0.352   4.234  15.499 -0.1434  0.3030  0.3055
16625TIP3    H171366   0.265   4.230  15.458 -0.9600 -0.2755  2.0595
16625TIP3    H271367   0.337   4.278  15.583  1.2774  0.3053  0.5673
16626TIP3   OH271368   6.372   3.567   4.040 -0.1244 -0.2521  0.2929
16626TIP3    H171369   6.343   3.476   4.036 -0.1586 -0.2303  0.0340
16626TIP3    H271370   6.420   3.580   3.958 -0.0053 -0.0758  0.3905
16627TIP3   OH271371   0.680   1.683  10.910  0.0241  0.1548  0.0866
16627TIP3    H171372   0.609   1.619  10.903  0.7798 -0.7010  0.0532
16627TIP3    H271373   0.639   1.761  10.948 -0.9706 -0.2551 -0.1317
16628TIP3   OH271374   0.717   5.268  15.915  0.0253  0.1852  0.4738
16628TIP3    H171375   0.745   5.176  15.910 -0.7538 -0.0130 -0.3553
16628TIP3    H271376   0.797   5.316  15.937  0.9175 -0.4455 -1.2791
16629TIP3   OH271377   5.460   4.909  13.260  0.3936  0.2793 -0.0382
16629TIP3    H171378   5.450   4.887  13.168  1.9599 -0.4181 -0.0728
16629TIP3    H271379   5.463   5.004  13.263  0.2351  0.3022 -0.6943
16630TIP3   OH271380   1.956   5.826  13.248 -0.6111 -0.1904 -0.2012
16630TIP3    H171381   2.006   5.842  13.328 -1.7200 -0.9532  0.6675
16630TIP3    H271382   2.009   5.764  13.199 -0.6851 -1.0057  0.7256
16631TIP3   OH271383   1.257   1.655  10.994  0.1122 -0.0846  0.4811
16631TIP3    H171384   1.184   1.617  10.945 -1.8518  2.5019  1.2649
16631TIP3    H271385   1.333   1.604  10.968 -1.4238 -0.8007 -2.8483
16632TIP3   OH271386   5.536   4.661  12.060  0.0826  0.9278 -0.0068
16632TIP3    H171387   5.579   4.608  12.127  1.2611  1.4130 -0.3671
16632TIP3    H271388   5.469   4.603  12.023  0.7645 -0.0161  0.2051
16633TIP3   OH271389   2.789   0.188   3.036  0.1655 -0.2062  0.2788
16633TIP3    H171390   2.875   0.175   2.995 -0.4552  1.9802 -1.7894
16633TIP3    H271391   2.732   0.124   2.994 -0.2155  1.2983 -1.5234
16634TIP3   OH271392   1.159   4.917   2.861  0.0443 -0.0950  0.1191
16634TIP3    H171393   1.208   4.835   2.858 -1.8347 -1.1665 -3.0220
16634TIP3    H271394   1.092   4.903   2.927  0.0754 -0.8897 -0.0161
16635TIP3   OH271395   2.169   3.972  11.454 -0.0765  0.0814  0.0783
16635TIP3    H171396   2.135   4.044  11.401  2.3601  2.9262  2.2074
16635TIP3    H271397   2.257   3.957  11.419 -0.1164 -1.0596  0.4406
16636TIP3   OH271398   0.578   3.373  12.726 -0.2193 -0.2395 -0.6902
16636TIP3    H171399   0.505   3.388  12.667 -0.3860  0.2230 -0.3661
16636TIP3    H271400   0.634   3.310  12.680 -1.2776 -1.3071 -0.5548
16637TIP3   OH271401   2.032   5.112   1.817  1.1875  0.7135  0.0781
16637TIP3    H171402   2.123   5.138   1.802  0.9229  0.6069 -1.8702
16637TIP3    H271403   2.024   5.027   1.773 -0.0752  1.1319 -0.5145
16638TIP3   OH271404   3.078   6.267   4.050 -0.4907 -0.4500  0.0765
16638TIP3    H171405   3.127   6.254   4.131 -0.0553  0.3183 -0.0526
16638TIP3    H271406   3.144   6.258   3.981 -0.2029  2.0792 -0.0268
16639TIP3   OH271407   5.088   1.560   1.877 -0.3226 -0.1271  0.0477
16639TIP3    H171408   5.093   1.597   1.789 -0.9543 -0.9206 -0.3303
16639TIP3    H271409   5.055   1.632   1.931 -0.0935  0.3116 -0.3969
16640TIP3   OH271410   6.686   6.617  12.980  0.2800  0.3447 -0.1217
16640TIP3    H171411   6.755   6.620  12.915  1.1905  1.3285  0.8692
16640TIP3    H271412   6.606   6.602  12.930  1.1574 -0.4630 -1.3030
16641TIP3   OH271413   1.640   5.077   5.864 -0.6167  0.1761 -0.1089
16641TIP3    H171414   1.608   4.987   5.856 -1.9757  0.6746 -0.3911
16641TIP3    H271415   1.689   5.092   5.783 -1.2136  0.0160 -0.5025
16642TIP3   OH271416   4.833   4.224  16.803 -0.3689  0.0426  0.2089
16642TIP3    H171417   4.856   4.157  16.739  0.3650 -1.6501  2.1994
16642TIP3    H271418   4.846   4.182  16.888  1.6324  3.1824  1.5556
16643TIP3   OH271419   1.330   5.878  15.228  0.0084 -0.2826 -0.1162
16643TIP3    H171420   1.238   5.886  15.201  0.2673  0.3195 -0.8141
16643TIP3    H271421   1.367   5.965  15.214  0.4728 -0.2885  1.0005
16644TIP3   OH271422   5.062   3.788  16.816  0.5311  0.0251  0.2861
16644TIP3    H171423   5.084   3.785  16.723 -2.2870  0.8682 -0.4544
16644TIP3    H271424   5.122   3.852  16.853  0.7941  0.6686 -1.2305
16645TIP3   OH271425   0.307   0.117  14.884 -0.2993 -0.1177  0.2267
16645TIP3    H171426   0.272   0.194  14.839  0.9089  0.4570  0.2308
16645TIP3    H271427   0.389   0.148  14.923 -0.8370 -0.8833  1.9829
16646TIP3   OH271428   1.178   3.022  15.541  0.2052 -0.9899  0.1612
16646TIP3    H171429   1.136   3.108  15.545  0.2393 -0.8920 -1.3088
16646TIP3    H271430   1.233   3.018  15.619 -0.0957  0.1721  0.4358
16647TIP3   OH271431   1.431   5.974   6.713 -0.0898 -0.4552  0.0503
16647TIP3    H171432   1.503   5.912   6.728  0.7002  0.0877 -1.3725
16647TIP3    H271433   1.353   5.919   6.705  0.4349 -1.1790 -0.1435
16648TIP3   OH271434   2.169   3.869   2.409 -0.6709 -0.0877  0.2385
16648TIP3    H171435   2.216   3.788   2.428  2.2602  0.9720 -2.1330
16648TIP3    H271436   2.081   3.840   2.385 -0.1827 -2.4178  1.0654
16649TIP3   OH271437   1.664   4.296  14.024 -0.4046 -0.2342  0.0670
16649TIP3    H171438   1.751   4.333  14.039 -0.5084 -0.0743  0.2757
16649TIP3    H271439   1.681   4.206  13.997 -0.1330  0.0584 -0.7736
16650TIP3   OH271440   4.279   2.914  12.206  0.0466 -0.4020 -0.0530
16650TIP3    H171441   4.305   2.842  12.148  1.2133  0.2482 -0.3499
16650TIP3    H271442   4.273   2.873  12.292 -2.1466 -1.4740 -0.6789
16651TIP3   OH271443   0.590   2.155  17.255 -0.3064  0.4288  0.6605
16651TIP3    H171444   0.591   2.197  17.341  0.4394 -1.6665  1.7059
16651TIP3    H271445   0.637   2.073  17.268  2.2382  1.2967 -2.4031
16652TIP3   OH271446   3.785   1.749  15.290 -0.3595  0.2657  0.5991
16652TIP3    H171447   3.861   1.717  15.241 -0.1720 -0.5985  1.4473
16652TIP3    H271448   3.822   1.801  15.361 -0.6338  1.5299 -0.1558
16653TIP3   OH271449   2.794   4.786   3.772 -0.0956  0.4179  0.4527
16653TIP3    H171450   2.802   4.875   3.736 -1.3766  0.2448 -0.2906
16653TIP3    H271451   2.830   4.730   3.704 -1.0521  0.2182  0.1071
16654TIP3   OH271452   1.007   2.905  17.085  0.3087  0.3447  0.6665
16654TIP3    H171453   1.001   2.900  16.990  0.8428 -0.7415  0.6749
16654TIP3    H271454   0.918   2.887  17.115  0.1853  0.4723  0.3809
16655TIP3   OH271455   1.622   1.909  13.004 -0.3590  0.3473  0.3123
16655TIP3    H171456   1.642   1.997  12.971  1.9341  0.7177  2.4849
16655TIP3    H271457   1.568   1.869  12.936 -0.6292  3.0989 -1.1492
16656TIP3   OH271458   5.376   1.261  12.173 -0.2528 -0.3430 -0.2833
16656TIP3    H171459   5.350   1.241  12.083 -1.0805 -1.8562  0.2749
16656TIP3    H271460   5.371   1.177  12.219 -3.1662  0.9827  1.9941
16657TIP3   OH271461   6.193   2.428   4.649 -0.0423  0.4824  0.0436
16657TIP3    H171462   6.219   2.371   4.577  2.3464  1.8272 -0.2355
16657TIP3    H271463   6.140   2.373   4.706  1.1262 -1.6553 -0.8715
16658TIP3   OH271464   0.741   4.835  13.004 -1.2508 -0.1058  0.1087
16658TIP3    H171465   0.736   4.910  13.063  0.6101 -0.0136  0.1756
16658TIP3    H271466   0.687   4.861  12.929 -0.5119  1.3865  0.0578
16659TIP3   OH271467   5.771   1.534  17.133 -0.2595 -0.3115 -0.0571
16659TIP3    H171468   5.838   1.518  17.199 -1.1462 -1.7876  0.5039
16659TIP3    H271469   5.800   1.613  17.087  0.8529  0.1668  1.4572
16660TIP3   OH271470   3.909   4.384  12.784 -0.1541 -0.6411  0.3497
16660TIP3    H171471   3.859   4.463  12.764  0.6770  0.1204  1.2388
16660TIP3    H271472   3.869   4.316  12.730 -0.2470  0.5962 -1.1733
16661TIP3   OH271473   1.060   5.106  15.350 -0.3951 -0.0617  0.0186
16661TIP3    H171474   1.124   5.158  15.300  0.2837 -1.1023 -0.1993
16661TIP3    H271475   1.098   5.019  15.355 -1.6256 -0.5966  0.2265
16662TIP3   OH271476   1.014   1.669   2.096 -0.6260  0.7452  0.4289
16662TIP3    H171477   1.108   1.674   2.079 -0.7578  1.9182  0.0290
16662TIP3    H271478   1.001   1.580   2.129  0.7254  0.8057  1.1692
16663TIP3   OH271479   2.697   1.330   0.500 -0.0890 -0.6166  0.7318
16663TIP3    H171480   2.770   1.364   0.552 -0.0218  0.9366 -0.3487
16663TIP3    H271481   2.628   1.312   0.564  0.6231 -0.4319  1.5614
16664TIP3   OH271482   3.375   2.306  12.503 -0.0669 -0.2558  0.0286
16664TIP3    H171483   3.310   2.250  12.461 -1.2225 -1.0212  2.7239
16664TIP3    H271484   3.383   2.272  12.592  0.5941  2.6889  1.1810
16665TIP3   OH271485   4.757   2.383  13.626 -0.3992 -0.1184 -0.2803
16665TIP3    H171486   4.676   2.421  13.661 -0.2299 -0.7922  0.8736
16665TIP3    H271487   4.824   2.412  13.688 -0.0690 -1.2085 -0.1233
16666TIP3   OH271488   3.750   3.888  14.450 -0.7106 -0.0619 -0.0552
16666TIP3    H171489   3.670   3.905  14.500 -0.7910 -0.0829 -0.1774
16666TIP3    H271490   3.743   3.797  14.421  0.7789 -1.0626  2.5517
16667TIP3   OH271491   4.655   1.865   0.275  0.1826  0.4297  0.1708
16667TIP3    H171492   4.717   1.872   0.349 -0.7919 -0.5756  1.1004
16667TIP3    H271493   4.697   1.804   0.215  0.6551  0.6904  0.2335
16668TIP3   OH271494   4.677   1.619  14.029  0.0932  0.3413  0.4655
16668TIP3    H171495   4.583   1.637  14.029 -0.4365 -2.2949  0.9372
16668TIP3    H271496   4.705   1.639  13.940 -0.9239  1.0456  0.2960
16669TIP3   OH271497   4.638   4.181  17.049  0.3773  0.2168  0.1367
16669TIP3    H171498   4.579   4.189  17.123 -1.5318 -1.2355 -1.1878
16669TIP3    H271499   4.635   4.088  17.025  0.3929  0.7687 -2.1912
16670TIP3   OH271500   0.936   3.646  13.196 -0.0275  0.0891 -0.4360
16670TIP3    H171501   1.024   3.636  13.159 -0.1001  0.3178 -0.6768
16670TIP3    H271502   0.951   3.679  13.285  0.1827 -1.4105  0.1042
16671TIP3   OH271503   0.540   6.004  13.562  0.0773 -0.1137 -0.4997
16671TIP3    H171504   0.625   6.024  13.601  1.0464  1.5732 -3.3697
16671TIP3    H271505   0.498   5.947  13.627  2.6179  0.5027  1.8151
16672TIP3   OH271506   6.814   3.682   4.976 -0.5448  0.1655 -0.2407
16672TIP3    H171507   6.902   3.719   4.968  0.1281 -1.5189 -0.7475
16672TIP3    H271508   6.768   3.743   5.035  0.7948  1.3213 -0.3638
16673TIP3   OH271509   6.564   0.624  11.091  0.6266 -0.0862 -0.1864
16673TIP3    H171510   6.542   0.705  11.045  1.6489 -1.3769 -3.0696
16673TIP3    H271511   6.659   0.625  11.095  0.5835 -0.5203  0.9692
16674TIP3   OH271512   3.863   6.796   0.789 -0.0501 -0.1984  0.4245
16674TIP3    H171513   3.799   6.737   0.749 -0.9234  1.4857 -0.7133
16674TIP3    H271514   3.946   6.771   0.749 -0.5049 -0.2865 -0.4723
16675TIP3   OH271515   4.301   5.436  14.356 -0.1232  0.5665  0.4129
16675TIP3    H171516   4.228   5.381  14.327 -1.7917  2.9073  0.0750
16675TIP3    H271517   4.344   5.463  14.274 -0.1066  0.8262  0.5068
16676TIP3   OH271518   6.076   3.630   3.307  0.0516 -0.7074  0.4239
16676TIP3    H171519   6.085   3.675   3.391 -0.5050  0.0895  0.0608
16676TIP3    H271520   6.038   3.695   3.249  0.3684 -1.2800 -0.4331
16677TIP3   OH271521   6.740   3.708  13.218  0.4494 -0.1273 -0.5907
16677TIP3    H171522   6.759   3.645  13.148 -0.6860  0.4421 -1.4357
16677TIP3    H271523   6.652   3.740  13.198 -0.6739 -1.3805  2.2313
16678TIP3   OH271524   0.635   5.779  16.994  0.1581  0.0447  0.3089
16678TIP3    H171525   0.645   5.706  17.056  1.6373 -0.6747 -0.7320
16678TIP3    H271526   0.556   5.758  16.944  0.1372 -0.4536  0.5479
16679TIP3   OH271527   1.718   0.734  14.015  0.3165  0.1406 -0.1145
16679TIP3    H171528   1.800   0.699  13.981  0.5469 -0.0455  0.6349
16679TIP3    H271529   1.668   0.759  13.937  0.5023 -1.0470 -0.6152
16680TIP3   OH271530   3.612   0.459  15.736  0.5024 -0.2284  0.2962
16680TIP3    H171531   3.695   0.412  15.724  1.2026  0.2930  2.7540
16680TIP3    H271532   3.580   0.430  15.821 -0.7396  1.2279  0.3490
16681TIP3   OH271533   3.651   3.556   2.141 -0.0743 -0.1188 -0.3339
16681TIP3    H171534   3.691   3.477   2.178  0.9608 -0.0334 -1.2786
16681TIP3    H271535   3.720   3.597   2.090 -1.2505  0.2172 -1.6862
16682TIP3   OH271536   2.707   6.122  16.397 -0.1489  0.2632 -0.1474
16682TIP3    H171537   2.767   6.058  16.360 -0.2948  0.5221 -0.8280
16682TIP3    H271538   2.763   6.197  16.419 -0.1807  0.3993 -0.5312
16683TIP3   OH271539   4.869   0.933  17.245  0.5004  0.0029 -0.3910
16683TIP3    H171540   4.826   0.850  17.264  1.7030 -0.6350 -0.4243
16683TIP3    H271541   4.893   0.968  17.331 -1.9271  1.3655 -0.2403
16684TIP3   OH271542   6.051   1.655  17.273 -0.2864  0.4037 -0.4718
16684TIP3    H171543   6.110   1.714  17.320  0.7741 -0.2734 -0.9289
16684TIP3    H271544   6.026   1.704  17.195 -1.5511  1.2852  0.4699
16685TIP3   OH271545   4.257   3.288  15.263  0.0152 -0.0318  0.5499
16685TIP3    H171546   4.235   3.195  15.255 -0.7268  0.2694 -1.1245
16685TIP3    H271547   4.172   3.332  15.273  0.0695  0.8045 -2.3778
16686TIP3   OH271548   5.960   0.983  14.403 -0.1932  0.7292 -0.0493
16686TIP3    H171549   5.969   1.040  14.479 -1.2942 -1.1529  1.5314
16686TIP3    H271550   5.983   0.896  14.436  0.1480  0.0362 -2.0830
16687TIP3   OH271551   5.764   2.446   5.951  0.3572 -0.1749 -0.0989
16687TIP3    H171552   5.800   2.508   6.014  1.3129 -0.3935 -0.4172
16687TIP3    H271553   5.824   2.451   5.876 -1.1850  0.6271 -1.2851
16688TIP3   OH271554   4.001   2.709   4.681  0.0109 -0.2532  0.7305
16688TIP3    H171555   3.954   2.626   4.687  0.6674 -0.5411  2.2203
16688TIP3    H271556   4.007   2.727   4.587 -0.4511 -1.7047  0.4067
16689TIP3   OH271557   4.542   1.679  12.212  0.3945 -0.2367  0.0153
16689TIP3    H171558   4.572   1.724  12.133  0.7227  0.6571  0.6415
16689TIP3    H271559   4.598   1.713  12.282  0.8581 -1.8666  0.4555
16690TIP3   OH271560   5.517   3.371  16.642 -0.6259  0.7620  0.1567
16690TIP3    H171561   5.573   3.335  16.574  0.4106  1.1945  0.7701
16690TIP3    H271562   5.436   3.395  16.597 -1.3230 -2.2473 -0.2899
16691TIP3   OH271563   0.460   1.633   1.696  0.3074  0.1224 -0.2733
16691TIP3    H171564   0.441   1.680   1.615 -1.2105 -0.1284 -0.0811
16691TIP3    H271565   0.555   1.635   1.704  0.4706  0.0478 -2.1163
16692TIP3   OH271566   1.671   6.581  16.931  0.2286 -0.0001 -0.2263
16692TIP3    H171567   1.673   6.491  16.898 -1.3228  0.2694 -1.0937
16692TIP3    H271568   1.620   6.575  17.012  1.9500 -0.2418  0.8766
16693TIP3   OH271569   5.066   4.747   1.604 -0.1088  0.6149 -0.1625
16693TIP3    H171570   4.985   4.788   1.634 -1.2189  0.1605 -2.4215
16693TIP3    H271571   5.079   4.673   1.664 -0.8983  1.1911  0.7324
16694TIP3   OH271572   2.954   1.598  17.086  0.2788 -0.0891 -1.4238
16694TIP3    H171573   2.997   1.549  17.016 -0.6523  0.1486 -2.1753
16694TIP3    H271574   2.909   1.670  17.041  0.7429  0.8381 -0.4417
16695TIP3   OH271575   3.505   1.757  15.169 -0.3721 -0.1733 -0.2556
16695TIP3    H171576   3.551   1.720  15.245  3.0764  1.8613 -1.2294
16695TIP3    H271577   3.486   1.847  15.195 -0.2810  0.1693 -1.3582
16696TIP3   OH271578   0.241   3.006  16.475  0.0172 -0.0246  0.0483
16696TIP3    H171579   0.276   3.095  16.467  1.5073 -0.7452 -1.9045
16696TIP3    H271580   0.274   2.975  16.560 -0.9891  1.4713  0.9988
16697TIP3   OH271581   4.472   1.052  15.340 -0.4496  0.2269 -0.2868
16697TIP3    H171582   4.556   1.096  15.352 -0.9341  1.6472 -1.9456
16697TIP3    H271583   4.412   1.098  15.398 -0.5956  0.7360 -0.8348
16698TIP3   OH271584   6.229   6.672  15.109 -0.2427 -0.0311  0.1986
16698TIP3    H171585   6.212   6.743  15.047  0.5528  0.6913  0.7876
16698TIP3    H271586   6.319   6.687  15.138  0.5627 -2.3434 -1.0041
16699TIP3   OH271587   4.843   3.101   6.523 -0.4765  0.0074  0.1585
16699TIP3    H171588   4.828   3.195   6.526 -1.9808 -0.2410  1.0761
16699TIP3    H271589   4.755   3.062   6.527  0.1309 -1.4373  0.0201
16700TIP3   OH271590   6.302   4.887  16.609 -0.4241  1.2358 -0.7468
16700TIP3    H171591   6.347   4.959  16.654 -0.1137  2.1876 -2.5244
16700TIP3    H271592   6.241   4.931  16.550 -0.1030  0.0543 -1.9731
16701TIP3   OH271593   1.813   2.777   5.085 -0.2624 -0.1236  0.3643
16701TIP3    H171594   1.751   2.769   5.158  1.3538  0.9564  1.8794
16701TIP3    H271595   1.858   2.859   5.101  1.9082 -1.1176 -0.4689
16702TIP3   OH271596   1.806   1.807  16.696  0.3044  0.5788  0.6208
16702TIP3    H171597   1.885   1.859  16.681  0.2165  0.5626  0.0782
16702TIP3    H271598   1.744   1.867  16.737  0.2882  0.8297  0.2254
16703TIP3   OH271599   3.913   4.821   5.802  0.2703 -0.0563 -0.5118
16703TIP3    H171600   3.905   4.820   5.898 -1.6931  3.7134 -0.5097
16703TIP3    H271601   3.962   4.742   5.781  2.9664  0.2831  3.8225
16704TIP3   OH271602   3.859   4.222   2.115  0.0767  0.3568  0.4671
16704TIP3    H171603   3.841   4.297   2.172  0.5031  2.1057 -1.6525
16704TIP3    H271604   3.942   4.187   2.148  0.3091  1.3371  0.9413
16705TIP3   OH271605   1.545   0.071   3.254 -0.2646 -0.6638  0.3523
16705TIP3    H171606   1.619   0.131   3.259  0.3612 -1.3947 -0.0796
16705TIP3    H271607   1.570  -0.004   3.307 -0.7469 -0.8618  0.3068
16706TIP3   OH271608   3.573   5.859  14.114 -0.0594  0.1825  0.1695
16706TIP3    H171609   3.598   5.785  14.169 -0.6356  0.6166  1.0277
16706TIP3    H271610   3.653   5.881  14.066  0.3697 -0.3931  0.6131
16707TIP3   OH271611   3.466   2.149  17.028  0.5442  0.0797 -0.8644
16707TIP3    H171612   3.502   2.101  16.954 -0.3240  1.4786 -2.2078
16707TIP3    H271613   3.380   2.180  16.998 -0.5327 -0.6975  1.2661
16708TIP3   OH271614   6.729   1.185   4.769  0.2316  0.0385  0.3430
16708TIP3    H171615   6.785   1.262   4.775 -0.2231  0.5425 -1.6371
16708TIP3    H271616   6.788   1.113   4.748  0.2723  0.3835 -0.7305
16709TIP3   OH271617   1.497   2.460  13.648  0.6438 -0.1994 -0.0597
16709TIP3    H171618   1.514   2.552  13.627 -3.1411  0.3358 -1.1792
16709TIP3    H271619   1.546   2.410  13.583  1.7512  1.0356 -0.1914
16710TIP3   OH271620   0.563   0.751   2.863  0.2108  0.8524 -0.0911
16710TIP3    H171621   0.619   0.829   2.875  0.3131  1.2612 -2.9067
16710TIP3    H271622   0.614   0.679   2.901  1.1574  1.7766  0.4184
16711TIP3   OH271623   3.389   0.374  13.355 -0.6026  0.1353  0.5397
16711TIP3    H171624   3.448   0.374  13.430  1.2579  0.4341 -0.8784
16711TIP3    H271625   3.397   0.286  13.319 -2.3669 -0.3666  1.3441
16712TIP3   OH271626   4.652   2.556   3.437  0.2619 -0.0227 -0.3852
16712TIP3    H171627   4.613   2.557   3.350  1.1076 -1.4581 -0.7971
16712TIP3    H271628   4.730   2.500   3.428  0.1225 -0.5364  1.3753
16713TIP3   OH271629   5.971   0.361  13.322 -0.4757 -0.6656 -0.6304
16713TIP3    H171630   6.017   0.321  13.396 -0.9153  0.0831  0.0608
16713TIP3    H271631   5.970   0.293  13.255  0.6912 -1.0568 -0.2653
16714TIP3   OH271632   4.324   5.649  15.359 -0.2514  0.0420  0.1416
16714TIP3    H171633   4.410   5.641  15.402 -0.3665  1.1951  0.6117
16714TIP3    H271634   4.276   5.712  15.414 -0.7950  0.6870 -1.0658
16715TIP3   OH271635   3.978   1.450  11.319 -0.3613  0.3913  0.0155
16715TIP3    H171636   3.924   1.488  11.251  1.9750  0.8811 -1.6194
16715TIP3    H271637   4.032   1.523  11.351  0.7780 -0.4942  0.1582
16716TIP3   OH271638   4.477   2.728   3.556  0.0762  0.0772 -0.0545
16716TIP3    H171639   4.533   2.658   3.524 -0.4811 -0.2219 -0.3725
16716TIP3    H271640   4.402   2.683   3.594 -0.9770  0.5408 -1.5549
16717TIP3   OH271641   3.109   4.934  16.369  0.5453  0.9196 -0.0716
16717TIP3    H171642   3.031   4.974  16.330 -1.1478 -1.0607  1.1399
16717TIP3    H271643   3.181   4.965  16.315 -1.3627  0.7392 -2.8799
16718TIP3   OH271644   4.308   3.933   0.124 -0.0918  0.2630 -0.3076
16718TIP3    H171645   4.227   3.911   0.169  0.3979  0.3286  0.6193
16718TIP3    H271646   4.358   3.852   0.122  0.0902  0.3736 -0.2946
16719TIP3   OH271647   3.869   3.890  13.503 -0.1615  0.0817  0.7423
16719TIP3    H171648   3.841   3.977  13.532 -1.3290 -0.4102  1.0869
16719TIP3    H271649   3.944   3.869  13.559 -0.2264  0.6259  1.0361
16720TIP3   OH271650   2.185   6.189  13.203  0.4204  0.4264 -0.1158
16720TIP3    H171651   2.197   6.270  13.154  0.3837  0.1571 -0.5772
16720TIP3    H271652   2.271   6.171  13.242  1.2764 -0.9064 -2.4986
16721TIP3   OH271653   0.378   6.590  10.669  0.0661  0.2797  0.0036
16721TIP3    H171654   0.378   6.599  10.765 -1.0360  1.4306 -0.0870
16721TIP3    H271655   0.315   6.521  10.652 -0.6744  0.9264  0.0607
16722TIP3   OH271656   3.647   4.025  15.241 -0.4461 -0.5647 -0.3995
16722TIP3    H171657   3.717   3.983  15.191  0.4008 -0.1976  0.4669
16722TIP3    H271658   3.664   4.001  15.332 -0.2035  1.2602  0.0616
16723TIP3   OH271659   6.758   4.828   5.531 -0.3365 -1.1231  0.1442
16723TIP3    H171660   6.821   4.776   5.581  1.4419 -0.3380 -1.2117
16723TIP3    H271661   6.775   4.918   5.557  1.4292 -0.5732 -2.6255
16724TIP3   OH271662   6.462   6.272   0.078  0.0844  0.1669 -0.0212
16724TIP3    H171663   6.508   6.348   0.113 -2.3818  1.2966  0.8614
16724TIP3    H271664   6.453   6.290  -0.016  1.1383  0.0741 -0.1497
16725TIP3   OH271665   6.636   2.301   3.606  0.7396 -0.2649  0.4365
16725TIP3    H171666   6.707   2.238   3.597  1.2984  0.5756 -1.1184
16725TIP3    H271667   6.678   2.380   3.639  0.5307  0.2492 -0.5297
16726TIP3   OH271668   4.131   0.927   2.420 -0.6229 -0.2096  0.0398
16726TIP3    H171669   4.137   0.960   2.330  0.1857 -1.7129 -0.4723
16726TIP3    H271670   4.127   0.832   2.411  2.2090 -0.5671  1.6743
16727TIP3   OH271671   6.651   1.470  16.617 -0.0812 -0.1946  0.2549
16727TIP3    H171672   6.694   1.515  16.544  0.4065 -1.5277 -0.2798
16727TIP3    H271673   6.669   1.526  16.693  2.7869 -0.8473  0.0794
16728TIP3   OH271674   6.755   5.989  12.468 -0.1888  0.8269 -0.1282
16728TIP3    H171675   6.778   6.072  12.511 -0.5628  0.9996 -0.2608
16728TIP3    H271676   6.701   6.015  12.393 -0.8131  0.4190  0.1773
16729TIP3   OH271677   5.991   5.055   3.659  0.0172 -0.2723  0.4209
16729TIP3    H171678   5.928   5.032   3.727 -0.4022 -0.5882 -0.0633
16729TIP3    H271679   6.076   5.031   3.696  0.1269  2.5000  2.0867
16730TIP3   OH271680   1.519   4.430  11.687  0.1534  0.3782  0.0870
16730TIP3    H171681   1.525   4.448  11.781 -1.6719 -0.9314  0.4831
16730TIP3    H271682   1.601   4.385  11.666  0.4462  0.4046  1.1242
16731TIP3   OH271683   0.794   2.103  14.023  0.1873 -0.2991  0.0808
16731TIP3    H171684   0.733   2.166  13.985  0.6786 -0.3729 -0.8268
16731TIP3    H271685   0.739   2.051  14.082 -1.2336 -2.1519 -2.7747
16732TIP3   OH271686   5.041   6.399   3.098  0.3211  0.2407 -0.2977
16732TIP3    H171687   5.100   6.439   3.034  2.5100 -1.0031  0.8754
16732TIP3    H271688   5.074   6.430   3.183 -1.7236  0.8117  0.3098
16733TIP3   OH271689   6.514   4.385  14.158  0.0714 -0.3151 -0.4848
16733TIP3    H171690   6.563   4.420  14.233 -2.7987 -1.3681  1.9858
16733TIP3    H271691   6.561   4.305  14.134 -1.9162 -2.9227  3.7371
16734TIP3   OH271692   3.375   5.367  17.281 -0.1440  0.5623 -0.7862
16734TIP3    H171693   3.350   5.309  17.209  0.3666 -0.6755  0.0088
16734TIP3    H271694   3.299   5.425  17.292 -0.8900 -0.2944 -1.2554
16735TIP3   OH271695   3.629   5.861  15.502 -0.6298 -0.2753  0.7371
16735TIP3    H171696   3.578   5.828  15.427 -1.1723  0.8582  0.5897
16735TIP3    H271697   3.645   5.784  15.556  1.8872 -1.5801 -1.7630
16736TIP3   OH271698   4.678   4.110  14.739 -0.2827 -0.5216  0.3138
16736TIP3    H171699   4.614   4.139  14.674 -1.3579  0.8074  1.9142
16736TIP3    H271700   4.672   4.015  14.738 -0.9756 -0.4716 -0.8532
16737TIP3   OH271701   4.096   6.446  13.899 -0.0435 -0.1423 -0.1921
16737TIP3    H171702   4.027   6.400  13.851 -0.6691  0.6966 -0.1229
16737TIP3    H271703   4.176   6.399  13.878 -0.3725 -0.0379 -1.7106
16738TIP3   OH271704   3.572   4.076  13.646 -0.0460  0.1829 -0.0090
16738TIP3    H171705   3.617   4.151  13.683  1.3429 -1.1321  1.0482
16738TIP3    H271706   3.479   4.101  13.646  0.2433  1.3182  1.6847
16739TIP3   OH271707   3.180   4.435  16.404  0.0145  0.2553  0.3135
16739TIP3    H171708   3.111   4.407  16.463  0.8702  0.6727  1.5424
16739TIP3    H271709   3.187   4.530  16.418  1.4877  0.0668  0.9363
16740TIP3   OH271710   0.334   5.709  12.446  0.0885 -0.5279 -0.2935
16740TIP3    H171711   0.341   5.792  12.400 -0.0919 -0.6837 -0.6044
16740TIP3    H271712   0.412   5.660  12.419  0.0457 -0.5729 -0.3333
16741TIP3   OH271713   4.807   5.793  13.394  0.3654  0.3042  0.1543
16741TIP3    H171714   4.767   5.735  13.329  0.6493  0.5544 -0.2446
16741TIP3    H271715   4.836   5.734  13.464  2.8129 -0.3171 -1.3493
16742TIP3   OH271716   0.995   3.223  14.391 -0.2191 -0.0810 -0.1344
16742TIP3    H171717   0.981   3.306  14.345  0.6691 -0.7283 -1.6351
16742TIP3    H271718   0.908   3.195  14.417 -0.6070  0.9524 -0.2721
16743TIP3   OH271719   0.433   1.700  15.822 -0.6345 -0.0313  0.3221
16743TIP3    H171720   0.499   1.674  15.757 -1.4351 -1.1705 -0.0666
16743TIP3    H271721   0.406   1.788  15.795 -0.5066 -0.2470 -0.5410
16744TIP3   OH271722   5.521   3.893  12.389 -0.4505  0.2558  0.0084
16744TIP3    H171723   5.562   3.848  12.315  1.9923  0.2799  1.2939
16744TIP3    H271724   5.569   3.975  12.397 -0.7473  0.2934  1.5610
16745TIP3   OH271725   4.196   4.965  15.335  0.1209  0.0637  0.4045
16745TIP3    H171726   4.279   4.917  15.333 -1.2014 -2.2759 -1.5615
16745TIP3    H271727   4.211   5.043  15.281  0.9386 -0.5574 -0.2773
16746TIP3   OH271728   4.832   5.580  14.350  0.0172 -0.7133  0.1127
16746TIP3    H171729   4.878   5.610  14.428  1.5260 -0.7596 -0.7465
16746TIP3    H271730   4.814   5.660  14.301  0.2446 -0.8040 -0.1208
16747TIP3   OH271731   3.706   5.416  12.664  0.2631  0.2926 -0.5102
16747TIP3    H171732   3.746   5.496  12.632  0.4209 -0.5677 -2.5202
16747TIP3    H271733   3.759   5.391  12.740  0.3417  1.9591 -0.0110
16748TIP3   OH271734   1.496   2.153   1.884 -0.3249  0.4797 -0.0049
16748TIP3    H171735   1.479   2.123   1.974 -2.1991 -1.2701 -0.8802
16748TIP3    H271736   1.590   2.168   1.881 -0.0239 -0.7744  1.8721
16749TIP3   OH271737   1.165   0.543   4.208  0.0037 -0.3178 -0.6395
16749TIP3    H171738   1.095   0.542   4.273 -2.0608  0.6203 -2.7504
16749TIP3    H271739   1.171   0.635   4.181  2.9555 -0.1671  0.4136
16750TIP3   OH271740   3.029   5.947   1.170 -0.6007 -0.3770 -0.3739
16750TIP3    H171741   2.946   5.972   1.211 -0.3775  1.1322 -0.8172
16750TIP3    H271742   3.007   5.869   1.118 -1.6093 -0.3306 -0.0347
16751TIP3   OH271743   1.103   2.524  11.667  0.2608 -0.2229  0.8177
16751TIP3    H171744   1.044   2.463  11.621 -0.5112  0.5214  0.8046
16751TIP3    H271745   1.061   2.610  11.657 -0.4232 -0.1618  3.6881
16752TIP3   OH271746   2.314   1.248  15.236  0.2940  0.0741  0.0079
16752TIP3    H171747   2.304   1.154  15.249 -0.7958  0.2323  0.3167
16752TIP3    H271748   2.348   1.256  15.147 -0.2677 -0.5742 -0.2703
16753TIP3   OH271749   3.020   1.074  14.980 -0.7100 -0.2500 -0.4261
16753TIP3    H171750   3.049   1.038  15.064  0.3334 -2.0915 -1.5422
16753TIP3    H271751   2.925   1.070  14.984 -0.6860  0.2656  0.9128
16754TIP3   OH271752   1.172   1.648  13.949  0.2384 -0.1205  0.4506
16754TIP3    H171753   1.199   1.735  13.920  1.2977 -0.3591  0.7015
16754TIP3    H271754   1.209   1.588  13.884 -1.8517 -0.2949 -0.6357
16755TIP3   OH271755   5.987   3.667  14.811  0.1226  0.6556 -0.0946
16755TIP3    H171756   6.048   3.720  14.863  3.0897 -3.6907  1.0982
16755TIP3    H271757   5.936   3.618  14.876  1.0519 -1.7878 -1.1600
16756TIP3   OH271758   5.467   3.781  13.776  0.1779 -0.3785  0.3423
16756TIP3    H171759   5.447   3.859  13.826  0.2368  0.7078 -1.2942
16756TIP3    H271760   5.453   3.709  13.837 -1.1414  0.8234  1.4914
16757TIP3   OH271761   1.839   0.987   6.710  0.1460  0.1308  0.6410
16757TIP3    H171762   1.854   1.005   6.617 -0.4517  0.0271  0.5221
16757TIP3    H271763   1.755   1.029   6.729  1.6926  2.8203  1.8906
16758TIP3   OH271764   3.137   6.407  14.687 -0.1793 -0.9341 -0.1724
16758TIP3    H171765   3.104   6.472  14.626  1.3276 -0.8463 -0.9127
16758TIP3    H271766   3.130   6.324  14.640  0.0377 -0.9983 -0.0921
16759TIP3   OH271767   3.300   1.289  13.431  0.3947 -0.2682  0.6089
16759TIP3    H171768   3.266   1.240  13.505  0.2305  1.2313  1.5418
16759TIP3    H271769   3.371   1.235  13.397  1.3315 -0.3652  2.6689
16760TIP3   OH271770   0.417   0.746   3.224  0.8011  0.4298  0.5555
16760TIP3    H171771   0.508   0.723   3.204 -0.0902 -1.1116 -1.8843
16760TIP3    H271772   0.368   0.665   3.209 -1.1488  1.5636  0.6653
16761TIP3   OH271773   4.711   4.428  15.899  0.1830 -0.0543  0.5095
16761TIP3    H171774   4.723   4.342  15.939  0.0121  0.9733  2.7889
16761TIP3    H271775   4.655   4.476  15.959 -1.8570  0.8147 -2.0043
16762TIP3   OH271776   3.036   4.634  14.491  0.0074 -0.0755 -0.0780
16762TIP3    H171777   3.004   4.651  14.579  0.0470  0.4898 -0.1735
16762TIP3    H271778   3.122   4.593  14.504  0.3975  0.8052  0.1312
16763TIP3   OH271779   1.151   6.030   0.961  0.0522  0.2902  0.3846
16763TIP3    H171780   1.137   6.118   0.926  0.3316  0.4185  0.5926
16763TIP3    H271781   1.070   5.983   0.941 -0.1884  0.6615  0.4836
16764TIP3   OH271782   0.216   0.588  15.759 -0.2024  0.6859  0.0893
16764TIP3    H171783   0.217   0.646  15.683 -0.1125 -0.0810 -0.4943
16764TIP3    H271784   0.167   0.511  15.730  0.2671  0.1736  0.6512
16765TIP3   OH271785   2.362   1.851   0.161  0.0410  0.3773 -0.2235
16765TIP3    H171786   2.430   1.913   0.136  0.0466  0.3274 -0.3294
16765TIP3    H271787   2.281   1.890   0.129 -0.0021  0.5235  0.0574
16766TIP3   OH271788   2.357   6.695   4.567 -0.3120 -0.6305  0.2879
16766TIP3    H171789   2.414   6.695   4.644  0.7105 -1.3588 -0.4523
16766TIP3    H271790   2.412   6.730   4.496 -1.8264  1.9056  0.2842
16767TIP3   OH271791   0.933   3.379  11.668 -0.3542  0.3672  0.3189
16767TIP3    H171792   0.956   3.464  11.707  0.5477 -0.8367  2.4837
16767TIP3    H271793   0.970   3.382  11.580 -0.2137  2.1603  0.4157
16768TIP3   OH271794   5.157   5.246  14.391  0.0967  0.1109 -0.2342
16768TIP3    H171795   5.146   5.334  14.356  1.0878  0.6333  0.7529
16768TIP3    H271796   5.073   5.226  14.432 -0.4410  0.2274 -1.2688
16769TIP3   OH271797   2.386   3.326   1.056 -0.2236  0.3795  0.5158
16769TIP3    H171798   2.322   3.394   1.073  1.3096  1.7276  1.0045
16769TIP3    H271799   2.419   3.301   1.143  3.0998  2.8757  0.0890
16770TIP3   OH271800   0.276   2.573  14.136 -0.1149  0.2826  0.2879
16770TIP3    H171801   0.328   2.557  14.058  0.2200 -0.5305  0.6695
16770TIP3    H271802   0.247   2.664  14.128  2.9071  1.3713  0.9962
16771TIP3   OH271803   0.128   4.346   4.661  0.4140 -0.3273  0.0239
16771TIP3    H171804   0.063   4.277   4.650 -0.4199  0.2992  0.9599
16771TIP3    H271805   0.084   4.426   4.632  1.4342 -0.2070 -1.2278
16772TIP3   OH271806   3.018   6.726  13.642  0.2066 -0.2341 -0.0754
16772TIP3    H171807   3.053   6.639  13.663  2.8041  0.6204 -0.6610
16772TIP3    H271808   3.006   6.769  13.726 -1.3453 -1.2217  0.2351
16773TIP3   OH271809   4.060   3.325  12.518  0.4189  0.7883 -0.1148
16773TIP3    H171810   4.150   3.356  12.529  1.0100 -0.2939 -1.7339
16773TIP3    H271811   4.067   3.247  12.463 -1.3240 -0.5651  1.5119
16774TIP3   OH271812   1.286   2.392  16.390 -0.2431  0.1092 -0.3314
16774TIP3    H171813   1.245   2.394  16.303  0.8420  1.1684 -0.8202
16774TIP3    H271814   1.235   2.327  16.438 -1.6110  0.3754 -1.3841
16775TIP3   OH271815   5.451   1.763   2.894  0.1910  0.2917  0.4404
16775TIP3    H171816   5.433   1.760   2.800 -0.1103  0.3309  0.4950
16775TIP3    H271817   5.439   1.856   2.917 -4.2933 -0.3880  1.3845
16776TIP3   OH271818   1.797   0.359  11.339 -0.4412 -0.1288  0.5579
16776TIP3    H171819   1.722   0.325  11.291  0.7671 -0.4367 -1.1813
16776TIP3    H271820   1.868   0.360  11.274  1.0283  0.2147  2.1410
16777TIP3   OH271821   3.685   4.339   3.693 -0.5331  0.5712  0.1718
16777TIP3    H171822   3.609   4.291   3.727  0.4882  0.3914  2.2638
16777TIP3    H271823   3.649   4.393   3.622 -2.2728 -0.9121 -0.1317
16778TIP3   OH271824   4.011   1.193  11.151  0.1911 -0.6269 -0.4623
16778TIP3    H171825   4.100   1.173  11.123  0.0718  0.7576 -1.9219
16778TIP3    H271826   4.018   1.275  11.199 -0.2899 -0.4879 -0.6226
16779TIP3   OH271827   0.404   4.909   4.784 -0.2717 -0.0152  0.1966
16779TIP3    H171828   0.344   4.984   4.788  0.2631  0.4552 -0.6365
16779TIP3    H271829   0.403   4.874   4.873  0.0250  1.4143  0.7790
16780TIP3   OH271830   1.072   3.914  14.725 -0.2250 -0.4215  0.0874
16780TIP3    H171831   1.123   3.948  14.652 -0.9872 -0.2077 -0.3399
16780TIP3    H271832   1.106   3.961  14.802 -1.3007  1.3436 -0.5009
16781TIP3   OH271833   5.355   5.334  11.175 -0.4049 -0.3136  0.4232
16781TIP3    H171834   5.432   5.280  11.195 -1.3948 -1.2665  1.7802
16781TIP3    H271835   5.316   5.291  11.098  1.1944  1.0131 -1.1551
16782TIP3   OH271836   6.229   4.541  15.769 -0.3548 -0.2038  0.1776
16782TIP3    H171837   6.258   4.454  15.739 -0.2264 -0.4950  1.1508
16782TIP3    H271838   6.227   4.534  15.864 -1.2598  0.5744  0.2179
16783TIP3   OH271839   3.544   3.086   0.790 -0.0633  0.1413  0.1704
16783TIP3    H171840   3.570   3.099   0.881  0.0598  0.1505  0.1347
16783TIP3    H271841   3.614   3.127   0.739 -1.6515  2.8654  0.0984
16784TIP3   OH271842   2.229   1.049  13.281 -0.0128 -0.4931 -0.4349
16784TIP3    H171843   2.189   1.135  13.294 -0.2101 -0.8858  1.8133
16784TIP3    H271844   2.276   1.056  13.198 -0.5601  1.5810 -0.5910
16785TIP3   OH271845   5.292   5.847  15.282 -0.3554  0.1720  0.1708
16785TIP3    H171846   5.322   5.905  15.353  1.2260 -0.9145  0.4128
16785TIP3    H271847   5.332   5.884  15.203  0.3747 -0.3541  0.2806
16786TIP3   OH271848   6.441   3.476  15.711  0.2742  1.0372 -0.1323
16786TIP3    H171849   6.465   3.566  15.733  1.3776  0.8143 -0.3998
16786TIP3    H271850   6.398   3.483  15.625 -0.7500  1.4517  0.4036
16787TIP3   OH271851   6.070   5.485  13.707 -0.2302 -0.3663 -0.5163
16787TIP3    H171852   6.149   5.503  13.758 -0.6483  0.3449 -0.1060
16787TIP3    H271853   6.102   5.438  13.629  0.1955 -3.4242  1.3982
16788TIP3   OH271854   0.591   5.288   2.361 -0.1177 -0.1350  0.3795
16788TIP3    H171855   0.497   5.299   2.374 -0.5374 -0.0667 -2.3136
16788TIP3    H271856   0.598   5.207   2.310  1.2467  0.0971  0.1949
16789TIP3   OH271857   4.817   6.754  12.622  0.0523 -0.3678  0.4635
16789TIP3    H171858   4.851   6.832  12.579  0.8174 -0.2062  1.3426
16789TIP3    H271859   4.886   6.688  12.612 -0.1628 -0.6215  0.6103
16790TIP3   OH271860   4.986   3.238  15.165 -0.3333 -0.3961 -0.0945
16790TIP3    H171861   5.081   3.238  15.170 -0.3868 -0.8189  1.0280
16790TIP3    H271862   4.966   3.194  15.082  0.4039 -2.0331  0.5792
16791TIP3   OH271863   4.814   6.310  11.378  0.0301 -0.5148  0.0753
16791TIP3    H171864   4.802   6.367  11.454  0.0292  0.6004 -0.7508
16791TIP3    H271865   4.874   6.358  11.321 -0.4639 -1.0556 -0.9150
16792TIP3   OH271866   3.124   1.613   4.625 -1.1999  0.3140 -0.0472
16792TIP3    H171867   3.102   1.646   4.537  1.3291 -0.4101 -0.9795
16792TIP3    H271868   3.216   1.634   4.636 -1.1905 -0.7025  1.9651
16793TIP3   OH271869   0.775   6.764   1.613 -0.6067  0.0665 -0.6715
16793TIP3    H171870   0.710   6.792   1.677  0.0942 -0.7834  0.4181
16793TIP3    H271871   0.752   6.672   1.595  0.8194 -0.5240  0.4039
16794TIP3   OH271872   5.624   4.944  13.844  0.9353  0.5654  0.0945
16794TIP3    H171873   5.597   4.944  13.752  1.5484  1.7406 -0.0872
16794TIP3    H271874   5.711   4.904  13.844  0.4453 -0.5051  0.3096
16795TIP3   OH271875   1.661   3.316  14.659  0.4766  0.0083 -1.0999
16795TIP3    H171876   1.583   3.370  14.644  1.5398  1.6113 -1.0073
16795TIP3    H271877   1.653   3.285  14.749 -0.1005  0.0706 -1.1288
16796TIP3   OH271878   1.866   1.332  13.069  0.0613  0.1414  0.3034
16796TIP3    H171879   1.873   1.271  13.143  1.5051 -1.7568 -1.3104
16796TIP3    H271880   1.773   1.353  13.063 -0.1150 -0.0015  2.4037
16797TIP3   OH271881   2.783   2.274  12.012  0.2575 -0.1285 -0.0760
16797TIP3    H171882   2.765   2.291  12.105 -1.5949 -1.2605 -0.2130
16797TIP3    H271883   2.739   2.345  11.965 -0.7795 -0.8608 -0.2140
16798TIP3   OH271884   1.840   1.507   4.563 -0.1107  0.2339 -0.4361
16798TIP3    H171885   1.788   1.517   4.484 -1.0430 -0.2831  0.0974
16798TIP3    H271886   1.890   1.589   4.570 -0.6725  0.6361 -1.0863
16799TIP3   OH271887   2.308   5.920   2.185 -0.5080 -0.0799  0.1387
16799TIP3    H171888   2.284   5.861   2.256 -0.4331 -0.7590 -0.3937
16799TIP3    H271889   2.225   5.942   2.143 -0.3799 -1.1110 -0.6737
16800TIP3   OH271890   4.893   5.152   1.784 -0.1724  0.4365  1.0537
16800TIP3    H171891   4.868   5.134   1.874 -1.4825  0.7852  0.7782
16800TIP3    H271892   4.866   5.242   1.769 -0.3241  0.2600  0.2071
16801TIP3   OH271893   4.094   1.829  13.607  0.2399 -0.1041 -0.1298
16801TIP3    H171894   4.065   1.878  13.530 -0.5788 -2.2782 -1.2496
16801TIP3    H271895   4.018   1.829  13.665  0.9768  1.8489  0.8587
16802TIP3   OH271896   3.278   5.824   5.060 -0.5347  0.0120 -0.4727
16802TIP3    H171897   3.298   5.761   5.129 -1.8676  0.1216  0.0328
16802TIP3    H271898   3.293   5.775   4.979 -3.2307 -1.5642 -0.0986
16803TIP3   OH271899   3.429   5.905   2.459  0.0126 -0.3509 -0.3535
16803TIP3    H171900   3.446   5.817   2.491  2.7241  0.1745 -0.1653
16803TIP3    H271901   3.510   5.931   2.415 -1.4194  1.3250 -2.1139
16804TIP3   OH271902   6.588   3.372   4.051  0.1548 -0.8449  0.7642
16804TIP3    H171903   6.570   3.456   4.094 -0.3885 -0.5540 -0.0224
16804TIP3    H271904   6.598   3.310   4.124 -0.8156 -0.3642  1.3218
16805TIP3   OH271905   1.208   6.101   6.189 -0.2135  0.0907 -0.4812
16805TIP3    H171906   1.240   6.025   6.238 -1.1719 -0.7316 -1.1156
16805TIP3    H271907   1.115   6.107   6.211 -0.1020  1.2075 -0.2816
16806TIP3   OH271908   2.375   4.912  14.767  0.2514 -0.3180 -0.1571
16806TIP3    H171909   2.356   4.863  14.846  0.9484  1.0296  0.8723
16806TIP3    H271910   2.292   4.951  14.741 -0.0690 -1.1267 -0.3506
16807TIP3   OH271911   5.490   6.128   4.893 -0.5743 -0.2137 -0.2792
16807TIP3    H171912   5.493   6.150   4.986  1.4985 -1.8105  0.0883
16807TIP3    H271913   5.565   6.175   4.855  0.0534 -1.4874 -0.6541
16808TIP3   OH271914   4.660   0.714   4.060  0.4829 -0.1231 -0.1311
16808TIP3    H171915   4.623   0.634   4.097  1.7968 -0.2416  0.9391
16808TIP3    H271916   4.662   0.776   4.133  2.0445 -0.0044 -0.2577
16809TIP3   OH271917   2.287   5.943  17.082 -0.3005 -0.6245  0.1684
16809TIP3    H171918   2.291   5.872  17.019 -1.3240  0.0590 -0.6887
16809TIP3    H271919   2.216   5.919  17.142 -0.7955 -0.2141 -0.2553
16810TIP3   OH271920   0.360   2.919  12.645  0.4393 -0.0914  0.7333
16810TIP3    H171921   0.276   2.893  12.681  0.4697  0.0545  0.9134
16810TIP3    H271922   0.338   2.982  12.576  0.4511  0.9124  1.6238
16811TIP3   OH271923   1.476   1.934   1.705  0.3351 -0.5248 -0.1187
16811TIP3    H171924   1.491   2.002   1.771  2.5350 -2.2023  1.1632
16811TIP3    H271925   1.561   1.892   1.694 -0.0080 -0.3807 -3.9826
16812TIP3   OH271926   4.106   1.493   1.520 -0.4703  0.8495 -0.3344
16812TIP3    H171927   4.178   1.459   1.574 -1.6365 -1.7115 -0.3164
16812TIP3    H271928   4.137   1.481   1.430  0.5755  3.1198 -0.3223
16813TIP3   OH271929   4.039   3.382  13.427 -0.5127  0.0971 -0.2302
16813TIP3    H171930   3.954   3.425  13.440 -0.8676 -0.5245 -0.4796
16813TIP3    H271931   4.020   3.289  13.435  0.3834  0.0124  0.9860
16814TIP3   OH271932   4.673   5.953   4.742 -0.1388  0.5325 -0.1496
16814TIP3    H171933   4.659   5.906   4.824  0.1345  1.6531  0.5442
16814TIP3    H271934   4.585   5.969   4.708 -0.2704  0.4753  0.1589
16815TIP3   OH271935   0.068   3.295  16.408 -0.1635 -0.2561 -0.3915
16815TIP3    H171936   0.098   3.383  16.381 -0.4398 -0.2582 -0.7025
16815TIP3    H271937   0.149   3.248  16.427 -0.0193  0.1223 -0.0465
16816TIP3   OH271938   2.757   5.396  15.124  0.1356 -0.0520 -0.3653
16816TIP3    H171939   2.782   5.461  15.059  2.1359  0.4631  0.8577
16816TIP3    H271940   2.787   5.433  15.207 -1.6101 -1.0705  0.7596
16817TIP3   OH271941   1.118   5.777  13.014 -0.1679 -0.0139  0.1378
16817TIP3    H171942   1.127   5.693  12.969  0.2997 -1.1112  2.2148
16817TIP3    H271943   1.024   5.789  13.024 -0.1966 -1.2186  1.4862
16818TIP3   OH271944   2.296   6.016  15.057  0.4237 -0.3621 -0.7753
16818TIP3    H171945   2.360   5.976  15.116 -0.7709  0.3424  1.0716
16818TIP3    H271946   2.214   6.014  15.107 -0.5118  0.7339 -2.2340
16819TIP3   OH271947   0.321   6.135  15.250 -0.4360  0.0446  0.1917
16819TIP3    H171948   0.386   6.205  15.245 -0.1677 -0.2734 -0.8448
16819TIP3    H271949   0.370   6.055  15.233 -0.7865 -0.3771  1.1613
16820TIP3   OH271950   1.077   5.609   0.743  0.0046 -0.4257 -0.4768
16820TIP3    H171951   1.161   5.606   0.698 -0.3430  0.7657 -1.2420
16820TIP3    H271952   1.032   5.528   0.716  0.4715 -0.5367 -0.9244
16821TIP3   OH271953   6.758   6.200  15.745  0.1504 -0.3450 -0.1770
16821TIP3    H171954   6.715   6.123  15.782  1.4851 -1.2268 -0.4138
16821TIP3    H271955   6.736   6.196  15.651  0.1947 -0.4332 -0.1858
16822TIP3   OH271956   5.936   6.000  15.444  0.0684 -0.4217  0.3238
16822TIP3    H171957   5.870   6.038  15.385 -0.0993 -2.0951 -0.5918
16822TIP3    H271958   6.019   6.021  15.402  0.1857  2.0452  1.6874
16823TIP3   OH271959   5.117   6.294   1.602 -0.1991  0.1329  0.0710
16823TIP3    H171960   5.062   6.333   1.670 -1.3196 -1.2626 -0.0080
16823TIP3    H271961   5.116   6.201   1.621  1.7507  0.0324 -0.2459
16824TIP3   OH271962   0.896   1.499   0.253 -0.0039 -0.3331 -0.3899
16824TIP3    H171963   0.879   1.505   0.347  2.3531 -0.8895  0.1216
16824TIP3    H271964   0.844   1.424   0.223 -0.8049 -0.1151  0.4441
16825TIP3   OH271965   0.817   0.740  13.204 -0.6425 -0.2396 -0.4782
16825TIP3    H171966   0.774   0.825  13.218  0.7396  0.4747 -0.3953
16825TIP3    H271967   0.907   0.763  13.182 -0.4658 -1.6784 -1.3089
16826TIP3   OH271968   4.562   6.608  13.389 -0.2144  0.1501  0.4783
16826TIP3    H171969   4.628   6.573  13.449 -0.8915  1.2920  1.8987
16826TIP3    H271970   4.534   6.690  13.428  0.0156  1.4237 -1.9000
16827TIP3   OH271971   0.453   2.103  13.708  0.8642  0.0862  0.3295
16827TIP3    H171972   0.506   2.163  13.655  2.3788 -0.9165  0.6767
16827TIP3    H271973   0.462   2.137  13.797 -0.9637  1.2508  0.1019
16828TIP3   OH271974   3.684   0.327   4.934  0.0284  0.1430  0.1293
16828TIP3    H171975   3.639   0.359   4.856  0.1605 -0.0696 -0.0358
16828TIP3    H271976   3.640   0.245   4.956 -0.8864  0.8774  1.0739
16829TIP3   OH271977   1.595   3.563   4.576  1.0052 -0.2017 -0.3286
16829TIP3    H171978   1.645   3.629   4.624  1.0223 -0.4804  0.0367
16829TIP3    H271979   1.528   3.613   4.530  0.2297 -0.0599  0.9403
16830TIP3   OH271980   5.321   5.513  16.942 -0.7463  0.1761 -0.6372
16830TIP3    H171981   5.238   5.504  16.896 -1.8840  1.0908  1.1996
16830TIP3    H271982   5.345   5.604  16.929 -0.8372  0.3161  0.2028
16831TIP3   OH271983   4.496   0.980  15.061 -0.3332 -0.5050  0.3347
16831TIP3    H171984   4.479   1.067  15.024 -0.0772 -0.7872 -0.4659
16831TIP3    H271985   4.511   0.996  15.154 -1.8950  0.1135  0.5050
16832TIP3   OH271986   4.189   2.974  15.088 -0.0822  0.4018 -0.2194
16832TIP3    H171987   4.147   2.928  15.161  0.6145 -0.1133 -0.1460
16832TIP3    H271988   4.276   2.935  15.081 -0.4723 -0.1974 -1.9186
16833TIP3   OH271989   3.013   5.922   3.686  0.4068 -0.3049 -0.3079
16833TIP3    H171990   2.945   5.944   3.749  1.3205 -1.1756  0.9998
16833TIP3    H271991   2.965   5.897   3.607 -0.8118 -1.3099  0.7238
16834TIP3   OH271992   6.283   1.404  15.637 -0.2285  0.0158 -0.2847
16834TIP3    H171993   6.358   1.427  15.582 -0.4758  1.0535 -0.1920
16834TIP3    H271994   6.306   1.319  15.674  0.9737  0.3955 -0.1391
16835TIP3   OH271995   3.506   0.595   5.359 -0.4481  0.0243 -0.6052
16835TIP3    H171996   3.511   0.670   5.301 -2.9467  0.0481 -0.8409
16835TIP3    H271997   3.475   0.523   5.304 -2.9065  0.0591  0.6486
16836TIP3   OH271998   1.585   3.794  11.248 -0.1184 -0.3776  0.5104
16836TIP3    H171999   1.552   3.876  11.285 -0.7813 -0.3065 -0.2227
16836TIP3    H272000   1.665   3.819  11.201  1.3584 -0.6475  2.7905
16837TIP3   OH272001   2.744   5.083  11.668 -0.1800  0.4137 -0.1491
16837TIP3    H172002   2.784   5.007  11.711 -0.7814  0.0218 -0.2728
16837TIP3    H272003   2.653   5.081  11.697  0.3208  2.3964  1.6530
16838TIP3   OH272004   2.539   0.869  16.722  0.4135 -0.3494  0.3572
16838TIP3    H172005   2.523   0.830  16.637 -1.1445 -1.1850  1.0041
16838TIP3    H272006   2.632   0.892  16.722  0.5386 -0.8529 -1.3381
16839TIP3   OH272007   4.023   4.571  14.303  0.2099  0.1915 -0.1850
16839TIP3    H172008   4.020   4.481  14.333 -2.7871  0.1063 -0.5406
16839TIP3    H272009   4.066   4.567  14.217 -4.1025 -1.6459 -2.3981
16840TIP3   OH272010   5.880   2.915   3.952  0.3004 -0.6089 -0.2025
16840TIP3    H172011   5.888   2.925   4.047  1.5959 -0.5652 -0.3037
16840TIP3    H272012   5.970   2.918   3.920 -0.1730  0.0711 -1.5091
16841TIP3   OH272013   3.897   2.125  15.430  0.0960  0.8613 -0.1281
16841TIP3    H172014   3.849   2.045  15.453  0.0252  0.1885 -2.5109
16841TIP3    H272015   3.833   2.179  15.383  1.0175  0.9160 -1.3501
16842TIP3   OH272016   0.387   5.876  11.524  0.3538 -0.4011 -0.0030
16842TIP3    H172017   0.364   5.835  11.441  0.8382 -1.3724  0.3417
16842TIP3    H272018   0.311   5.932  11.545  0.3971  0.1521 -1.2777
16843TIP3   OH272019   6.662   0.100   5.180 -0.2983  0.1560 -0.3476
16843TIP3    H172020   6.570   0.126   5.171 -0.2024  0.2430 -1.0803
16843TIP3    H272021   6.707   0.181   5.206 -0.6211 -0.1632  1.2382
16844TIP3   OH272022   4.372   6.543   1.666 -0.1863  0.5516 -0.5430
16844TIP3    H172023   4.430   6.614   1.637  1.9800 -1.4272 -1.1562
16844TIP3    H272024   4.371   6.550   1.762  1.0932  0.5686 -0.5327
16845TIP3   OH272025   4.057   2.486  10.869  0.9071 -0.1520 -0.2141
16845TIP3    H172026   4.084   2.418  10.807 -1.6712 -1.1111 -0.3210
16845TIP3    H272027   4.032   2.560  10.814 -0.9938 -0.8613 -0.3228
16846TIP3   OH272028   0.898   0.735  11.587 -0.1230  0.2491 -0.2437
16846TIP3    H172029   0.989   0.753  11.611  0.0441 -0.9475  0.0806
16846TIP3    H272030   0.882   0.647  11.620 -1.6103  0.7015  0.2595
16847TIP3   OH272031   1.203   0.586   2.501  0.2956 -0.1684 -0.1220
16847TIP3    H172032   1.116   0.552   2.478 -0.3321  0.5869  1.0938
16847TIP3    H272033   1.263   0.515   2.481 -0.6898 -0.9700 -0.2655
16848TIP3   OH272034   2.601   2.734   5.907 -0.0343 -0.4854 -0.0866
16848TIP3    H172035   2.555   2.669   5.960 -0.8065  0.0504 -0.0956
16848TIP3    H272036   2.615   2.808   5.967  0.3539 -0.4381 -0.2304
16849TIP3   OH272037   2.924   4.765   3.290 -0.2895 -0.9834 -0.6974
16849TIP3    H172038   2.837   4.799   3.313  0.8161  0.7099  1.2111
16849TIP3    H272039   2.962   4.739   3.374  1.2204 -1.2840 -1.4574
16850TIP3   OH272040   5.765   5.556  14.836  0.1058 -0.2538  0.4197
16850TIP3    H172041   5.705   5.559  14.761  1.5238 -1.1697 -0.7833
16850TIP3    H272042   5.793   5.647  14.847  0.2388 -0.1725 -0.4881
16851TIP3   OH272043   3.636   3.778  13.695 -0.0204  0.3808 -0.2708
16851TIP3    H172044   3.640   3.866  13.659  1.5572 -0.0542 -1.1647
16851TIP3    H272045   3.626   3.721  13.619  0.4840 -0.3280  0.1862
16852TIP3   OH272046   6.146   3.358  13.883 -0.2318 -0.1657  0.4205
16852TIP3    H172047   6.102   3.320  13.959 -1.0286 -1.8094 -0.8445
16852TIP3    H272048   6.095   3.328  13.808  0.4274  1.6117 -0.7675
16853TIP3   OH272049   4.308   6.354   5.386 -0.0384  0.3796  0.1896
16853TIP3    H172050   4.357   6.274   5.404 -2.0311 -1.2757 -1.4524
16853TIP3    H272051   4.354   6.394   5.312 -0.3192 -0.4305 -0.4317
16854TIP3   OH272052   3.561   2.263   4.469 -0.2274 -0.3770 -0.3818
16854TIP3    H172053   3.530   2.337   4.418 -0.0899  1.5108  2.1197
16854TIP3    H272054   3.642   2.236   4.425 -1.2626 -0.2470 -2.3934
16855TIP3   OH272055   2.759   5.600  13.741 -0.0866 -0.2788 -0.5135
16855TIP3    H172056   2.845   5.634  13.765 -0.6893 -0.3287  1.8621
16855TIP3    H272057   2.727   5.557  13.820 -1.7748 -1.3557 -1.7422
16856TIP3   OH272058   1.344   6.618   6.144 -0.0263  0.4084  0.3015
16856TIP3    H172059   1.433   6.645   6.121 -0.0036 -1.9839 -2.8508
16856TIP3    H272060   1.297   6.620   6.061 -0.9088 -5.4161  0.4640
16857TIP3   OH272061   3.645   4.281  11.688  0.2107 -0.8906  0.4494
16857TIP3    H172062   3.557   4.301  11.719 -0.0626 -0.1579 -0.7782
16857TIP3    H272063   3.648   4.186  11.682 -0.7597 -0.8789 -0.2682
16858TIP3   OH272064   5.044   3.577  17.017 -0.6058  0.0290  0.0466
16858TIP3    H172065   5.016   3.664  16.989  1.3359  0.5961 -0.2076
16858TIP3    H272066   5.095   3.593  17.097  0.5450 -0.7775 -0.5162
16859TIP3   OH272067   2.670   0.081  14.483 -0.2233  0.0751 -0.2432
16859TIP3    H172068   2.581   0.116  14.478 -0.1400  0.6745  1.7530
16859TIP3    H272069   2.660  -0.014  14.479 -0.6907  0.2137 -2.9233
16860TIP3   OH272070   4.157   6.303   1.403  0.4543  0.3920  0.6955
16860TIP3    H172071   4.179   6.305   1.496 -0.0591  0.3530  0.8166
16860TIP3    H272072   4.173   6.213   1.376 -2.2892 -0.3706  1.4470
16861TIP3   OH272073   1.035   4.102  15.150 -0.4031 -0.5483 -0.1169
16861TIP3    H172074   0.945   4.094  15.121 -0.1820 -1.3076 -0.6274
16861TIP3    H272075   1.041   4.188  15.190 -1.6617 -0.9758  1.0107
16862TIP3   OH272076   5.311   5.610   1.692  0.3159  0.2003  0.4584
16862TIP3    H172077   5.224   5.595   1.654 -0.3203  1.2593  1.4375
16862TIP3    H272078   5.300   5.587   1.785  2.1340 -3.4726 -0.1566
16863TIP3   OH272079   4.017   5.866   2.440 -0.6505 -0.5712  0.5958
16863TIP3    H172080   3.930   5.891   2.473 -0.4944  0.1676  0.4434
16863TIP3    H272081   4.009   5.772   2.423 -1.7908 -0.2762 -0.5837
16864TIP3   OH272082   4.435   4.711   2.711 -0.1749  0.1898  0.2935
16864TIP3    H172083   4.467   4.641   2.768 -1.7534 -0.1966  0.7165
16864TIP3    H272084   4.400   4.777   2.770 -1.5673 -0.0896 -0.1900
16865TIP3   OH272085   2.283   6.569  17.034 -0.0458  0.1673  0.6538
16865TIP3    H172086   2.237   6.582  16.951  1.1274  0.7649  0.0831
16865TIP3    H272087   2.226   6.511  17.084 -1.0755  0.3218 -0.3152
16866TIP3   OH272088   6.801   2.736   2.845  0.2191 -0.1597 -0.1785
16866TIP3    H172089   6.725   2.700   2.800  0.4651  1.2235 -1.7842
16866TIP3    H272090   6.780   2.828   2.858  0.6511 -0.2842  1.5414
16867TIP3   OH272091   1.776   6.591   5.845 -0.6587 -0.5677 -0.0021
16867TIP3    H172092   1.758   6.684   5.829 -1.4718 -0.6657  0.3230
16867TIP3    H272093   1.868   6.581   5.823 -0.2522  0.5751  1.0821
16868TIP3   OH272094   0.906   5.784   3.911 -0.5351 -0.1927  0.0927
16868TIP3    H172095   0.975   5.742   3.963  1.6512  0.3882 -2.2558
16868TIP3    H272096   0.845   5.713   3.891  1.9819 -1.8654 -1.9736
16869TIP3   OH272097   0.468   3.862  11.778  0.5630  0.3280 -0.0482
16869TIP3    H172098   0.415   3.873  11.699 -0.3068 -0.6747  0.3748
16869TIP3    H272099   0.431   3.784  11.821  0.9400  0.9228  1.3994
16870TIP3   OH272100   2.338   3.133   6.038  0.5838  0.4953  0.1810
16870TIP3    H172101   2.355   3.071   5.967  2.6045 -0.0339  1.1198
16870TIP3    H272102   2.299   3.209   5.994 -0.0279 -0.6106 -1.2303
16871TIP3   OH272103   0.480   1.280  16.273  0.0268 -0.4491 -0.4406
16871TIP3    H172104   0.573   1.260  16.262  1.2383  3.9259  0.7886
16871TIP3    H272105   0.471   1.370  16.242 -3.5520 -0.3155  0.7166
16872TIP3   OH272106   0.095   6.136  15.395 -0.2681 -0.1043  0.6079
16872TIP3    H172107   0.139   6.068  15.446  0.5364  0.5826  0.8449
16872TIP3    H272108   0.145   6.141  15.313  0.5098  1.1157  1.1348
16873TIP3   OH272109   3.043   1.112  13.083 -0.3598  0.0212 -0.6717
16873TIP3    H172110   3.080   1.181  13.139 -0.2581  0.5625 -1.3922
16873TIP3    H272111   3.054   1.031  13.133 -0.7933  0.5800  0.3268
16874TIP3   OH272112   4.975   1.713   6.246  0.2623 -0.2222  0.3757
16874TIP3    H172113   5.035   1.661   6.300 -0.7833 -1.5153  0.3123
16874TIP3    H272114   4.943   1.781   6.305  0.5655 -0.4899  0.8560
16875TIP3   OH272115   2.768   0.481   4.563 -0.0344 -0.4084 -0.0643
16875TIP3    H172116   2.784   0.387   4.565  1.7048 -0.1167  1.0414
16875TIP3    H272117   2.766   0.507   4.655  0.9778  0.8605 -0.3816
16876TIP3   OH272118   6.753   1.690   6.408  0.0289 -0.3449 -0.4782
16876TIP3    H172119   6.701   1.639   6.470 -0.3364  0.9824  0.3486
16876TIP3    H272120   6.759   1.777   6.448  1.9916 -0.1755 -1.0872
16877TIP3   OH272121   4.818   3.148   4.515 -0.1427 -0.2068  0.1725
16877TIP3    H172122   4.800   3.126   4.424 -0.6692  1.6023 -0.1670
16877TIP3    H272123   4.734   3.137   4.560 -0.4174  1.1101 -0.0054
16878TIP3   OH272124   2.186   6.311   3.953  0.3131  0.3848  0.3022
16878TIP3    H172125   2.132   6.356   3.888  0.7384 -0.1318 -0.4103
16878TIP3    H272126   2.135   6.315   4.034 -0.4793  0.5129 -0.2069
16879TIP3   OH272127   2.989   3.184  11.293 -0.4841 -0.1510  0.3174
16879TIP3    H172128   2.901   3.211  11.320 -0.1530  0.4346  0.8331
16879TIP3    H272129   2.989   3.192  11.198 -1.2837 -1.0606  0.2406
16880TIP3   OH272130   2.532   0.094   1.953 -0.4309  0.1824  0.2907
16880TIP3    H172131   2.614   0.075   1.909  0.0326  0.2975  1.0869
16880TIP3    H272132   2.488   0.009   1.961  0.5554 -0.2093  1.7138
16881TIP3   OH272133   1.277   1.372  15.273 -0.0267  0.0426 -0.1106
16881TIP3    H172134   1.192   1.373  15.230 -0.2051  2.7070  0.2402
16881TIP3    H272135   1.339   1.357  15.202 -0.6087  0.4458 -0.7081
16882TIP3   OH272136   0.833   5.175   4.239 -0.0427 -0.1395  0.2390
16882TIP3    H172137   0.772   5.140   4.174  2.1267 -0.2609 -1.8079
16882TIP3    H272138   0.808   5.132   4.320 -3.3661  0.6460 -0.2707
16883TIP3   OH272139   4.570   5.590  12.742 -0.4517 -0.3077 -0.7529
16883TIP3    H172140   4.511   5.628  12.677 -2.1276 -0.2662  0.7504
16883TIP3    H272141   4.537   5.502  12.756 -2.2878  0.7952  2.5345
16884TIP3   OH272142   3.898   0.740   4.815 -0.4251 -0.1746 -0.6521
16884TIP3    H172143   3.962   0.804   4.849 -1.2697  1.4768 -2.1191
16884TIP3    H272144   3.911   0.662   4.870  2.0132  0.5526 -0.1441
16885TIP3   OH272145   0.360   4.804   5.035 -0.5634 -0.1630 -0.4381
16885TIP3    H172146   0.421   4.803   5.109 -1.3825 -1.6679  0.2498
16885TIP3    H272147   0.281   4.763   5.069 -2.0034  1.8332 -1.2986
16886TIP3   OH272148   5.075   5.627  15.525  0.2411  0.0818  0.4326
16886TIP3    H172149   5.130   5.698  15.557  1.5970 -0.9245  0.3677
16886TIP3    H272150   5.085   5.629  15.430  1.4135 -1.0923  0.5227
16887TIP3   OH272151   3.609   2.189  12.679  0.2255 -0.4276  0.3040
16887TIP3    H172152   3.588   2.144  12.597  0.1720 -1.8249  1.0683
16887TIP3    H272153   3.523   2.211  12.716  0.2106 -1.5100  0.9143
16888TIP3   OH272154   4.528   1.611   0.015  0.1656 -0.1148  0.4124
16888TIP3    H172155   4.496   1.532   0.060  1.0025  0.3126  1.7593
16888TIP3    H272156   4.489   1.684   0.064 -1.8718  0.3374 -1.7506
16889TIP3   OH272157   5.574   4.484  14.065 -0.4590 -0.0148  0.3401
16889TIP3    H172158   5.585   4.392  14.086 -0.2493 -0.0641  0.0116
16889TIP3    H272159   5.601   4.530  14.145  3.7621 -0.0535 -0.9444
16890TIP3   OH272160   5.558   0.412   5.105  0.2928  0.3228  0.1099
16890TIP3    H172161   5.482   0.433   5.050  0.9840  0.1982 -0.8951
16890TIP3    H272162   5.520   0.392   5.190 -0.7518  1.0655 -0.1623
16891TIP3   OH272163   5.873   6.528   4.858 -0.0393 -0.3268 -0.2274
16891TIP3    H172164   5.847   6.569   4.775  2.4581 -0.3389 -1.0602
16891TIP3    H272165   5.966   6.549   4.867  0.2178 -2.0802  1.5551
16892TIP3   OH272166   2.226   3.575  14.302  0.0863  0.7301  0.3058
16892TIP3    H172167   2.299   3.551  14.360 -0.3834  0.3050  0.7190
16892TIP3    H272168   2.160   3.508  14.318  0.0245  0.5076 -0.8511
16893TIP3   OH272169   5.131   0.248   2.621 -0.5098 -1.1052  0.4803
16893TIP3    H172170   5.063   0.306   2.588  0.4966  0.0693  0.4332
16893TIP3    H272171   5.100   0.160   2.599 -1.0383 -0.4845 -1.3910
16894TIP3   OH272172   2.932   1.363  15.938  0.7298 -0.0772  0.4115
16894TIP3    H172173   2.955   1.416  15.862  0.9057 -1.7068 -0.6871
16894TIP3    H272174   2.942   1.273  15.909  0.1545 -0.7356  2.1713
16895TIP3   OH272175   4.027   1.451   4.658 -0.0210  0.1880 -0.0629
16895TIP3    H172176   4.090   1.488   4.597 -0.5585  0.9793 -0.1415
16895TIP3    H272177   4.080   1.414   4.728  0.5049  1.7112  0.3584
16896TIP3   OH272178   4.458   4.688   1.430 -0.0203  0.0817 -0.3425
16896TIP3    H172179   4.517   4.673   1.355  0.6881 -0.7113  0.3707
16896TIP3    H272180   4.504   4.649   1.504 -1.9615 -1.5257  0.0341
16897TIP3   OH272181   4.902   1.871  12.543 -0.5130 -0.2115 -0.0876
16897TIP3    H172182   4.844   1.946  12.541 -0.0321  0.1711  0.1105
16897TIP3    H272183   4.948   1.872  12.459 -1.5004 -1.0877 -0.6549
16898TIP3   OH272184   5.667   6.765   3.296 -0.3608  0.9616 -0.0667
16898TIP3    H172185   5.582   6.775   3.253 -0.4622  2.3019  0.4065
16898TIP3    H272186   5.683   6.671   3.297 -0.4342  0.8928 -2.8665
16899TIP3   OH272187   2.384   3.652   3.999 -0.0367  0.4371 -0.4821
16899TIP3    H172188   2.343   3.660   3.913  0.2829 -0.0593 -0.6900
16899TIP3    H272189   2.322   3.690   4.060 -0.4431  0.4291 -0.8918
16900TIP3   OH272190   6.136   2.291  14.032  0.3198 -0.5622 -0.3300
16900TIP3    H172191   6.178   2.215  14.071 -0.3770 -0.0499  1.5129
16900TIP3    H272192   6.055   2.303  14.083 -0.9395 -0.2053 -2.3367
16901TIP3   OH272193   1.879   1.847   1.848 -0.5533 -0.1767  0.2089
16901TIP3    H172194   1.809   1.839   1.784  1.1897 -1.9089 -1.5734
16901TIP3    H272195   1.905   1.757   1.866  0.4661  0.3985  1.6809
16902TIP3   OH272196   2.528   2.878  14.541 -0.4613 -0.1196 -0.5579
16902TIP3    H172197   2.536   2.815  14.612 -0.7104  0.1673 -0.2721
16902TIP3    H272198   2.561   2.832  14.464 -2.7410 -1.4144 -0.8187
16903TIP3   OH272199   2.680   3.447   0.247  0.0854  0.0499  0.1783
16903TIP3    H172200   2.764   3.493   0.250  0.5097 -0.7708  1.0874
16903TIP3    H272201   2.680   3.403   0.162  0.0994  0.9320 -0.2840
16904TIP3   OH272202   2.706   5.857  13.614  0.2634  0.5888 -0.3876
16904TIP3    H172203   2.785   5.892  13.575  0.9644  1.0999  1.4564
16904TIP3    H272204   2.737   5.792  13.678 -0.8868 -0.8129 -1.2097
16905TIP3   OH272205   3.355   3.297   0.125 -0.2685 -0.5719  0.0706
16905TIP3    H172206   3.436   3.246   0.130  0.8444  1.2917  1.7126
16905TIP3    H272207   3.323   3.300   0.215 -1.3466  0.0178 -0.3263
16906TIP3   OH272208   1.613   3.631  15.282  0.1961 -0.1006 -0.1698
16906TIP3    H172209   1.529   3.600  15.247  0.5805 -0.6089 -0.6586
16906TIP3    H272210   1.628   3.715  15.239 -0.4471  0.3810  0.5236
16907TIP3   OH272211   5.128   3.262  13.427 -0.0307 -0.5039 -0.4722
16907TIP3    H172212   5.190   3.230  13.361  0.2668  0.2687 -0.5757
16907TIP3    H272213   5.174   3.333  13.470 -0.5607 -0.4343 -0.0202
16908TIP3   OH272214   6.640   2.417  16.155  0.2020  0.1884  0.6020
16908TIP3    H172215   6.639   2.513  16.156 -0.4655  0.2232 -1.3509
16908TIP3    H272216   6.729   2.394  16.130 -0.0709  0.3508 -0.5659
16909TIP3   OH272217   1.965   5.762   3.470 -0.5135  0.5520 -0.9008
16909TIP3    H172218   1.959   5.667   3.467 -1.5415  0.3592  3.6681
16909TIP3    H272219   2.057   5.780   3.491 -0.5969  0.4892 -0.4729
16910TIP3   OH272220   3.317   1.659  11.317  0.2598 -0.3670  0.1717
16910TIP3    H172221   3.358   1.738  11.352  0.2785  0.7175 -2.1763
16910TIP3    H272222   3.390   1.599  11.302  0.4695 -0.1273  0.2172
16911TIP3   OH272223   2.951   5.884  13.486  0.2383  0.1530 -0.2597
16911TIP3    H172224   2.956   5.791  13.508 -1.4605  0.2821  0.7469
16911TIP3    H272225   2.969   5.887  13.392 -0.8341 -1.3188 -0.5348
16912TIP3   OH272226   5.816   4.746  11.273 -0.0928  0.4325 -0.6331
16912TIP3    H172227   5.805   4.838  11.249 -0.6557  0.6231  0.3512
16912TIP3    H272228   5.739   4.702  11.236  0.2901  0.3077 -1.2999
16913TIP3   OH272229   6.332   5.484   1.440  0.1296  0.0901 -0.1528
16913TIP3    H172230   6.372   5.406   1.479 -1.3333  0.1121  1.4325
16913TIP3    H272231   6.256   5.450   1.393 -0.0645  0.4729 -0.1123
16914TIP3   OH272232   2.672   6.161  14.776 -0.6163  0.5983 -0.0847
16914TIP3    H172233   2.748   6.167  14.833 -0.5598  2.1684 -0.3231
16914TIP3    H272234   2.708   6.139  14.690 -0.2810  2.8929 -0.5461
16915TIP3   OH272235   2.319   2.489  15.070 -0.0076 -0.3846 -1.2275
16915TIP3    H172236   2.240   2.496  15.123  1.1467  1.4904  0.3393
16915TIP3    H272237   2.388   2.464  15.132  1.1830  0.9544 -1.9699
16916TIP3   OH272238   3.795   2.618  15.282 -1.1838 -0.3994 -0.0348
16916TIP3    H172239   3.783   2.582  15.370  0.2384 -1.4040 -0.2320
16916TIP3    H272240   3.880   2.663  15.286 -0.6658 -1.2402 -1.1240
16917TIP3   OH272241   6.393   3.033  13.442  0.1218  0.6200 -0.1106
16917TIP3    H172242   6.341   3.047  13.363 -0.7692 -1.3339  0.1056
16917TIP3    H272243   6.464   2.974  13.414 -0.1901 -0.0701  0.5176
16918TIP3   OH272244   2.164   4.297   1.802 -0.2901 -0.5165 -0.3790
16918TIP3    H172245   2.162   4.216   1.853 -1.0882  0.0274  0.4891
16918TIP3    H272246   2.174   4.367   1.867 -2.9673  0.3060 -0.7764
16919TIP3   OH272247   2.578   1.838   4.267 -0.5713 -0.3941 -0.2244
16919TIP3    H172248   2.508   1.808   4.209 -0.5743 -3.5029  1.2356
16919TIP3    H272249   2.533   1.868   4.346 -0.3068 -3.2091  1.0615
16920TIP3   OH272250   4.418   4.571   4.619 -0.3977  0.2792  0.5088
16920TIP3    H172251   4.451   4.657   4.593  0.8142 -0.4035 -0.2736
16920TIP3    H272252   4.416   4.574   4.715 -0.5787  1.2480  0.4834
16921TIP3   OH272253   2.771   6.202  15.185 -0.0004 -0.1382  0.5662
16921TIP3    H172254   2.729   6.122  15.216 -0.0438  0.4111  1.9704
16921TIP3    H272255   2.723   6.273  15.229  0.8361  0.5933  0.3163
16922TIP3   OH272256   1.461   5.008   5.643 -0.8005 -0.3116  0.0993
16922TIP3    H172257   1.482   4.934   5.586 -3.5287  0.7974 -2.4930
16922TIP3    H272258   1.527   5.074   5.622  0.9413 -1.5404  1.5816
16923TIP3   OH272259   5.131   0.732  15.042  0.1474  0.5276 -0.3229
16923TIP3    H172260   5.204   0.672  15.025  0.3634  0.5393  0.5475
16923TIP3    H272261   5.053   0.680  15.025  0.3448  0.3160 -0.5996
16924TIP3   OH272262   5.021   3.254  11.462 -0.4864 -0.0438 -0.0027
16924TIP3    H172263   5.069   3.262  11.544 -0.1530 -0.0005 -0.1984
16924TIP3    H272264   5.024   3.342  11.424  2.1439 -0.7415 -1.5920
16925TIP3   OH272265   1.710   6.082  13.305  0.0802 -0.2210  0.0206
16925TIP3    H172266   1.793   6.096  13.259 -0.1064  2.4401  0.3698
16925TIP3    H272267   1.725   6.118  13.393 -1.8327  1.5572 -0.3390
16926TIP3   OH272268   5.076   4.069   3.109  0.4372 -0.7566 -0.0086
16926TIP3    H172269   5.110   4.155   3.085  0.2258 -1.4567 -3.0072
16926TIP3    H272270   4.981   4.077   3.104  0.2326 -0.1983  3.3968
16927TIP3   OH272271   2.239   6.448   4.660  0.6084  0.5124 -0.2357
16927TIP3    H172272   2.256   6.472   4.751  0.0198  0.3452 -0.0822
16927TIP3    H272273   2.264   6.526   4.610 -1.0103  1.3487  0.2324
16928TIP3   OH272274   2.985   4.246   5.938  0.4924  0.2680 -0.3194
16928TIP3    H172275   3.014   4.160   5.971  0.7713  1.0405  1.5605
16928TIP3    H272276   2.972   4.233   5.845  1.2344 -1.6449 -0.1872
16929TIP3   OH272277   2.220   1.149  13.888  0.2840  0.5421  0.3413
16929TIP3    H172278   2.241   1.167  13.796 -0.4326  1.6415  0.3799
16929TIP3    H272279   2.161   1.073  13.885  2.4988 -1.2130  0.0998
16930TIP3   OH272280   4.508   5.525  13.763 -0.0420  0.9498  0.3892
16930TIP3    H172281   4.504   5.583  13.687  0.1904  2.1336  1.2540
16930TIP3    H272282   4.443   5.561  13.824 -1.9385 -1.3948 -0.1833
16931TIP3   OH272283   0.372   0.936  14.211  0.1433  0.3092  0.2433
16931TIP3    H172284   0.340   1.024  14.230 -0.2385  1.1077 -3.6556
16931TIP3    H272285   0.293   0.883  14.198  0.3593  0.2964 -1.0836
16932TIP3   OH272286   1.226   2.284   4.277 -0.1118  0.3891  0.1877
16932TIP3    H172287   1.144   2.237   4.291  0.8244 -1.0571  0.9437
16932TIP3    H272288   1.282   2.220   4.233  1.7344  0.2343  2.7041
16933TIP3   OH272289   6.009   5.396  14.305 -0.3959  0.2467 -0.0308
16933TIP3    H172290   6.051   5.398  14.219 -0.1201  0.1103  0.1003
16933TIP3    H272291   6.043   5.318  14.347  0.1853  0.8089  0.5603
16934TIP3   OH272292   0.470   0.220   0.828 -0.0281  0.4416 -0.3781
16934TIP3    H172293   0.439   0.190   0.742  0.4319  0.4331 -0.5415
16934TIP3    H272294   0.556   0.181   0.837  0.0855  0.7608 -0.0788
16935TIP3   OH272295   1.381   4.371   5.156 -0.1702  0.1781  0.1336
16935TIP3    H172296   1.454   4.346   5.100 -0.2651 -1.0880  0.5766
16935TIP3    H272297   1.309   4.316   5.128 -1.3632  2.3522 -1.2105
16936TIP3   OH272298   0.598   1.236  17.100 -0.1474 -0.1224 -0.2474
16936TIP3    H172299   0.674   1.292  17.088 -0.6767  0.6240 -0.1976
16936TIP3    H272300   0.633   1.147  17.107  0.4447 -0.2151 -3.8094
16937TIP3   OH272301   6.417   1.659   0.959  0.3321  0.0223 -0.1132
16937TIP3    H172302   6.325   1.683   0.968  1.3199  3.6781  1.2347
16937TIP3    H272303   6.450   1.658   1.049  1.5515 -1.5259 -0.5639
16938TIP3   OH272304   2.117   0.004  10.245  0.8130  0.2985 -0.4536
16938TIP3    H172305   2.052   0.069  10.273  2.6503  2.8802 -1.8943
16938TIP3    H272306   2.067  -0.076  10.230 -1.1975  0.6067  3.8086
16939TIP3   OH272307   4.705   1.008   1.179 -0.2635  0.4658 -0.3617
16939TIP3    H172308   4.741   0.921   1.164  0.1102  0.5242  0.1699
16939TIP3    H272309   4.715   1.022   1.273 -2.4938  0.1334 -0.0494
16940TIP3   OH272310   4.521   4.321   1.381  0.2354 -0.3567 -0.4802
16940TIP3    H172311   4.561   4.276   1.455  0.6052  0.2901 -0.2854
16940TIP3    H272312   4.430   4.291   1.380  0.3391 -0.6851 -0.0269
16941TIP3   OH272313   6.384   5.899  17.221 -0.3438 -0.0857  0.1395
16941TIP3    H172314   6.372   5.851  17.302 -1.6763 -0.3841 -0.2251
16941TIP3    H272315   6.383   5.832  17.153 -0.0799  0.2445 -0.1937
16942TIP3   OH272316   1.635   0.289  11.765  0.3223 -0.1140  0.0356
16942TIP3    H172317   1.730   0.292  11.754  0.6244 -3.7390  0.8676
16942TIP3    H272318   1.621   0.305  11.859  0.3753 -2.0213  0.4048
16943TIP3   OH272319   4.365   4.746  14.291  0.7684 -0.1836  0.4311
16943TIP3    H172320   4.409   4.826  14.265 -2.1332  1.1367 -0.6110
16943TIP3    H272321   4.379   4.685  14.218  1.4565 -0.0170  0.4272
16944TIP3   OH272322   3.166   4.991  15.929  0.4586 -0.0815  0.4456
16944TIP3    H172323   3.136   4.932  15.859 -0.0961  1.6716 -0.8305
16944TIP3    H272324   3.146   5.079  15.896 -0.2578  0.7532  3.0367
16945TIP3   OH272325   6.367   3.393  12.644  0.4657 -0.4189 -0.0909
16945TIP3    H172326   6.369   3.456  12.716 -0.1555  1.2884 -1.5182
16945TIP3    H272327   6.299   3.426  12.585 -0.6448 -3.0455 -0.3507
16946TIP3   OH272328   5.236   0.779   3.412 -0.5316  0.1615 -0.1304
16946TIP3    H172329   5.169   0.794   3.479  0.2575 -0.1906  0.7519
16946TIP3    H272330   5.242   0.683   3.407 -2.4055  0.1402 -2.5505
16947TIP3   OH272331   5.700   1.798  15.779  0.0599 -0.2594 -0.0301
16947TIP3    H172332   5.667   1.732  15.841  0.4961  0.8411  1.4192
16947TIP3    H272333   5.787   1.766  15.754  0.7074  0.2482  1.4755
16948TIP3   OH272334   4.920   3.331  17.036 -0.1730 -0.5079  0.0933
16948TIP3    H172335   4.929   3.311  16.943 -1.0565  1.7270 -0.4970
16948TIP3    H272336   4.962   3.416  17.047 -2.1594  0.3601  1.2573
16949TIP3   OH272337   6.472   6.181  16.528 -0.1384  0.5462  0.5965
16949TIP3    H172338   6.490   6.161  16.436  1.3149 -0.8002  1.1434
16949TIP3    H272339   6.449   6.274  16.529  0.2961  0.6813 -1.0542
16950TIP3   OH272340   2.090   6.007   2.987 -0.3107 -0.1669 -0.1112
16950TIP3    H172341   2.025   5.946   2.953 -2.2803  1.1710  1.1138
16950TIP3    H272342   2.141   6.033   2.911 -2.6447  0.4229 -1.5282
16951TIP3   OH272343   0.028   6.654  13.843 -0.3650  0.2759 -0.0581
16951TIP3    H172344   0.014   6.711  13.767 -0.8792 -0.9056 -0.8548
16951TIP3    H272345   0.023   6.565  13.808  1.0525 -0.2648  1.0784
16952TIP3   OH272346   4.543   2.487  14.770 -0.4493 -0.2211 -0.3070
16952TIP3    H172347   4.543   2.559  14.707 -0.0965  0.3827  0.3773
16952TIP3    H272348   4.619   2.434  14.745 -0.9060 -0.5454 -1.0191
16953TIP3   OH272349   0.168   2.858  11.448  0.2629 -0.2537 -0.3955
16953TIP3    H172350   0.126   2.777  11.477 -0.9318  0.2473 -0.6873
16953TIP3    H272351   0.145   2.865  11.356  0.6726  0.2298 -0.4610
16954TIP3   OH272352   0.099   6.289  13.502 -0.0355 -0.1557 -0.0135
16954TIP3    H172353   0.152   6.365  13.479  0.2622 -0.3635 -0.0189
16954TIP3    H272354   0.160   6.230  13.546 -0.5548  0.1531  1.1234
16955TIP3   OH272355   1.379   4.728   0.411 -0.0034  0.1503  0.3903
16955TIP3    H172356   1.305   4.709   0.353  0.0455  0.6934  0.1443
16955TIP3    H272357   1.453   4.739   0.351  0.9513 -3.3542  0.7809
16956TIP3   OH272358   5.295   5.076   0.386 -0.0576  0.0280 -0.2425
16956TIP3    H172359   5.368   5.108   0.439 -1.2136 -0.5810  1.7580
16956TIP3    H272360   5.301   5.127   0.305  0.3671  2.6637  1.3746
16957TIP3   OH272361   6.105   0.846   1.858 -0.4042  0.7091  0.0769
16957TIP3    H172362   6.187   0.797   1.849 -0.9275 -0.2871  0.7155
16957TIP3    H272363   6.117   0.921   1.800 -1.2308 -2.2758 -4.2237
16958TIP3   OH272364   3.378   6.584   4.023  0.1212 -0.1238  0.4339
16958TIP3    H172365   3.384   6.665   3.971  1.0831  0.7125  1.8128
16958TIP3    H272366   3.443   6.525   3.983  1.1392  0.6577  0.8936
16959TIP3   OH272367   0.664   5.076   1.658  0.3060  0.1509  0.1144
16959TIP3    H172368   0.579   5.039   1.683  0.0788  0.3273 -0.3950
16959TIP3    H272369   0.644   5.166   1.633  0.4608 -0.1582 -1.1591
16960TIP3   OH272370   4.623   0.225   4.277  0.2849 -0.1737 -0.2395
16960TIP3    H172371   4.666   0.169   4.341  0.1810 -1.3341 -1.1618
16960TIP3    H272372   4.554   0.270   4.325 -0.4030 -1.7491  0.2526
16961TIP3   OH272373   2.943   3.885  16.815  0.0703 -0.1445  0.6084
16961TIP3    H172374   3.014   3.824  16.797  1.5140  0.9787  2.3248
16961TIP3    H272375   2.871   3.856  16.759  1.8084 -1.4363 -1.0034
16962TIP3   OH272376   4.602   4.465  17.067  0.1642 -0.0515 -0.9522
16962TIP3    H172377   4.663   4.539  17.069 -0.8081  0.8150 -2.2660
16962TIP3    H272378   4.653   4.392  17.032  0.9209  0.1932 -0.3674
16963TIP3   OH272379   5.850   1.419  11.856  0.4274 -0.0379  0.6495
16963TIP3    H172380   5.898   1.447  11.934  1.6405  2.0429 -0.7834
16963TIP3    H272381   5.764   1.460  11.864 -0.2040 -1.5321  1.8725
16964TIP3   OH272382   2.649   4.948   0.492  0.0719 -0.0481  0.1535
16964TIP3    H172383   2.683   4.861   0.474 -0.3808 -0.3806  0.8824
16964TIP3    H272384   2.555   4.941   0.475  0.2584  0.7098 -1.2801
16965TIP3   OH272385   2.708   5.712  14.495  0.8128 -0.2046 -0.5027
16965TIP3    H172386   2.697   5.765  14.416  0.3122 -1.0798 -1.0360
16965TIP3    H272387   2.744   5.629  14.463 -0.4121 -0.9607  0.0431
16966TIP3   OH272388   1.394   3.563   5.603 -0.1084  0.5180  0.3346
16966TIP3    H172389   1.411   3.568   5.509 -0.1153 -0.6243  0.2646
16966TIP3    H272390   1.440   3.638   5.640  2.5122 -0.7555 -0.2105
16967TIP3   OH272391   6.054   2.721  12.182 -0.1985 -0.1473 -0.0741
16967TIP3    H172392   5.993   2.754  12.248  0.1209 -0.3160  0.3117
16967TIP3    H272393   5.998   2.679  12.117 -0.3622 -2.6451  1.6010
16968TIP3   OH272394   6.537   3.562  16.032 -0.3496  0.0686  0.7514
16968TIP3    H172395   6.481   3.490  16.000 -0.8754 -0.6042  3.0937
16968TIP3    H272396   6.560   3.536  16.121  1.5206  1.6464  0.7457
16969TIP3   OH272397   5.150   5.175  16.466  0.1936  0.2885 -0.1219
16969TIP3    H172398   5.125   5.262  16.497  2.1495  1.3123 -1.2938
16969TIP3    H272399   5.245   5.178  16.462  0.3173 -2.1088  0.3339
16970TIP3   OH272400   2.997   0.438   3.613  0.2583  0.1479  0.3339
16970TIP3    H172401   3.062   0.381   3.654 -1.1115 -1.7797 -0.0875
16970TIP3    H272402   2.924   0.437   3.675  0.2818  1.5800  0.3874
16971TIP3   OH272403   0.282   0.891  11.640  0.3798  0.1956 -0.0879
16971TIP3    H172404   0.247   0.972  11.603 -0.0555  0.3474  0.6427
16971TIP3    H272405   0.288   0.909  11.734  3.5439  0.5776 -0.3285
16972TIP3   OH272406   3.333   3.982   4.520  0.1475  0.1272  0.8468
16972TIP3    H172407   3.396   3.963   4.451 -1.1635 -2.3884  0.2887
16972TIP3    H272408   3.348   4.074   4.541  0.6824  0.9203 -2.6727
16973TIP3   OH272409   2.204   2.655   0.899  0.0471  0.6061 -0.2447
16973TIP3    H172410   2.151   2.688   0.827  1.1069  0.2692 -1.1792
16973TIP3    H272411   2.287   2.702   0.892  0.9816 -1.0686 -0.6209
16974TIP3   OH272412   0.271   0.309   2.772 -0.0290 -0.0004  0.4132
16974TIP3    H172413   0.263   0.393   2.817 -1.0444  0.0086  0.2122
16974TIP3    H272414   0.340   0.323   2.707  1.6851 -0.1011  2.1534
16975TIP3   OH272415   0.508   0.924   1.206 -0.0402 -0.0100  0.1194
16975TIP3    H172416   0.580   0.913   1.145  0.5326  0.6429  0.6685
16975TIP3    H272417   0.546   0.906   1.292  0.4288  4.0394  0.8461
16976TIP3   OH272418   6.163   3.882  12.319 -0.4722  0.0409  0.0744
16976TIP3    H172419   6.114   3.922  12.390  0.2284  2.0009 -0.5060
16976TIP3    H272420   6.250   3.865  12.356 -0.0227  1.3136 -0.3726
16977TIP3   OH272421   2.049   1.454  14.027 -0.1214  0.9714 -0.5060
16977TIP3    H172422   2.140   1.444  13.998  0.3039 -0.1144  1.1288
16977TIP3    H272423   2.033   1.548  14.023  0.8928  1.1238 -1.3202
16978TIP3   OH272424   1.649   0.050   5.646  0.2399 -0.0044  0.2631
16978TIP3    H172425   1.560   0.039   5.615  0.2048 -1.0291  0.7107
16978TIP3    H272426   1.650   0.136   5.688 -1.1451 -0.9481  2.2850
16979TIP3   OH272427   3.890   4.244   4.498  0.1161 -0.1923  0.6470
16979TIP3    H172428   3.922   4.267   4.585 -2.6706  0.6758  1.5081
16979TIP3    H272429   3.960   4.191   4.459  2.0942  0.8169  2.7592
16980TIP3   OH272430   2.231   3.987   3.440  0.5719 -0.5521  0.3726
16980TIP3    H172431   2.164   3.927   3.409  0.5684 -0.8659  0.9798
16980TIP3    H272432   2.274   3.940   3.511  0.2479  0.3491  1.1695
16981TIP3   OH272433   1.810   5.254   3.895  0.3527 -0.2136  0.1628
16981TIP3    H172434   1.890   5.271   3.944  0.1077  1.3289  0.0593
16981TIP3    H272435   1.751   5.325   3.921 -0.5393 -0.6269 -0.7070
16982TIP3   OH272436   1.270   5.925   2.630  0.2961  0.2654  0.1445
16982TIP3    H172437   1.236   5.926   2.541 -1.8480  1.4128  0.9188
16982TIP3    H272438   1.362   5.949   2.622  0.0494  0.6298 -1.7181
16983TIP3   OH272439   6.811   0.711  13.149 -0.4540 -0.5238 -0.0945
16983TIP3    H172440   6.739   0.647  13.141  0.6439 -1.5706 -2.0912
16983TIP3    H272441   6.787   0.781  13.088  0.4185 -1.0895 -1.0975
16984TIP3   OH272442   3.615   4.974  12.054  0.1866 -0.2350  0.0253
16984TIP3    H172443   3.597   4.990  12.146 -0.3912  2.9654 -0.5819
16984TIP3    H272444   3.547   4.913  12.026 -1.4983  1.1749  0.9925
16985TIP3   OH272445   0.412   1.052   6.550 -0.2729 -0.2536  0.1659
16985TIP3    H172446   0.340   1.021   6.606  1.3212  0.0911  2.4867
16985TIP3    H272447   0.473   0.978   6.547 -0.6218 -0.4807 -1.6423
16986TIP3   OH272448   3.418   5.354   6.481 -0.7372 -0.8247 -0.2171
16986TIP3    H172449   3.506   5.380   6.452 -0.6731 -0.6657  0.1235
16986TIP3    H272450   3.430   5.264   6.512 -0.5125 -0.4953  0.6604
16987TIP3   OH272451   6.026   3.105  16.131  0.3201  0.0634  0.2113
16987TIP3    H172452   6.048   3.102  16.224  0.4147 -0.6348  0.1742
16987TIP3    H272453   6.073   3.030  16.093  0.1505  0.2451 -0.3650
16988TIP3   OH272454   2.666   6.654   2.674 -0.4939  0.3180  0.5692
16988TIP3    H172455   2.677   6.560   2.686  0.5191  0.5889  1.9029
16988TIP3    H272456   2.593   6.662   2.613  0.5116 -1.3478 -0.8791
16989TIP3   OH272457   3.423   3.588  17.000  0.3205  0.6332 -0.1861
16989TIP3    H172458   3.425   3.676  17.036 -0.4446  0.6798 -0.2483
16989TIP3    H272459   3.460   3.533  17.069 -2.6249  0.4975  1.3600
16990TIP3   OH272460   2.494   1.505  11.634 -0.0364  0.3836  0.1809
16990TIP3    H172461   2.522   1.521  11.724 -0.3886 -1.0357  0.5477
16990TIP3    H272462   2.400   1.488  11.640 -0.1015  0.4841 -0.4807
16991TIP3   OH272463   1.280   4.212   4.023  0.1705 -0.1320 -0.1569
16991TIP3    H172464   1.297   4.177   4.110 -0.2239  1.0232  0.3960
16991TIP3    H272465   1.249   4.301   4.039  1.1809  0.4881 -1.5306
16992TIP3   OH272466   3.280   1.268  16.346  0.2985  0.2786 -0.7197
16992TIP3    H172467   3.325   1.214  16.411 -2.8133 -1.2737  0.2684
16992TIP3    H272468   3.192   1.230  16.341 -0.3636  2.0896 -3.8445
16993TIP3   OH272469   5.394   1.625  16.142 -0.0538  0.6469  0.1128
16993TIP3    H172470   5.354   1.631  16.229 -2.6511  0.4530 -1.0257
16993TIP3    H272471   5.487   1.643  16.157 -0.7706  2.4691  2.6524
16994TIP3   OH272472   6.381   1.641   4.606  0.0272 -0.1416  0.5111
16994TIP3    H172473   6.333   1.607   4.681 -2.1959  1.4471 -0.1561
16994TIP3    H272474   6.394   1.734   4.625 -2.8029  0.8817 -2.1392
16995TIP3   OH272475   0.838   6.550   0.239  0.7549 -0.0599  0.2337
16995TIP3    H172476   0.761   6.496   0.261 -0.7152  0.8759 -2.3201
16995TIP3    H272477   0.807   6.640   0.247  1.5670  0.3247 -0.8179
16996TIP3   OH272478   1.167   6.495   1.510 -0.2665  0.4855 -0.0430
16996TIP3    H172479   1.141   6.578   1.549  0.4432  1.2736 -1.2214
16996TIP3    H272480   1.101   6.479   1.443 -1.2563 -0.6701  1.1659
16997TIP3   OH272481   3.961   2.196   3.316 -0.2907  0.1515  0.0610
16997TIP3    H172482   3.965   2.162   3.406 -0.5121 -0.3225 -0.1090
16997TIP3    H272483   3.944   2.290   3.327  1.0650  0.3604  0.5518
16998TIP3   OH272484   6.389   2.762  13.068  0.3824  0.1551  0.1147
16998TIP3    H172485   6.388   2.834  13.004 -1.2022 -0.7148 -0.8651
16998TIP3    H272486   6.480   2.732  13.068  0.4025  0.1648 -1.7369
16999TIP3   OH272487   6.589   2.646  13.401 -0.5491  0.7316 -0.3714
16999TIP3    H172488   6.661   2.614  13.456 -0.2090  0.7482 -0.8040
16999TIP3    H272489   6.568   2.572  13.344 -0.1302  1.0962 -0.9978
17000TIP3   OH272490   4.296   4.839  16.263  0.2701 -0.2332 -0.3460
17000TIP3    H172491   4.310   4.830  16.357  1.4982 -0.1418 -0.5119
17000TIP3    H272492   4.384   4.840  16.225 -0.2004  0.0601 -1.4677
17001TIP3   OH272493   5.212   5.200   6.328 -0.1487  0.3757 -0.6905
17001TIP3    H172494   5.281   5.155   6.377 -0.8216  0.1150  0.0227
17001TIP3    H272495   5.130   5.172   6.370 -0.8084 -0.7430 -2.6655
17002TIP3   OH272496   3.778   5.815  16.264  0.4756  0.1582 -0.6602
17002TIP3    H172497   3.770   5.902  16.304  2.4584 -0.1096  0.3735
17002TIP3    H272498   3.867   5.787  16.285  1.3585 -0.3094 -4.7227
17003TIP3   OH272499   2.483   4.329  10.937  0.0728 -0.5828 -0.4190
17003TIP3    H172500   2.568   4.303  10.900  0.3864  2.4690 -2.0499
17003TIP3    H272501   2.431   4.356  10.861 -1.5181 -0.1575  0.7939
17004TIP3   OH272502   5.908   5.769  12.248  0.0114 -0.2030 -0.3578
17004TIP3    H172503   5.825   5.723  12.238  0.0840 -0.3146 -0.4480
17004TIP3    H272504   5.964   5.733  12.179  0.0294  0.1076 -0.5080
17005TIP3   OH272505   0.555   3.787   5.923 -0.0282  0.4417  0.2875
17005TIP3    H172506   0.636   3.743   5.947  0.0418 -1.2272 -2.7685
17005TIP3    H272507   0.582   3.856   5.863 -0.8958 -0.4109 -1.1077
17006TIP3   OH272508   3.691   5.755  15.761  0.2905  0.9032 -0.1386
17006TIP3    H172509   3.782   5.726  15.765  0.6782  2.0659 -0.4650
17006TIP3    H272510   3.666   5.771  15.852  0.9905  2.3686 -0.2050
17007TIP3   OH272511   2.090   4.406  17.087  0.4182 -0.2176  0.2716
17007TIP3    H172512   2.147   4.478  17.111  0.1269 -0.3421  1.4154
17007TIP3    H272513   2.128   4.369  17.007  1.6670 -0.0183  0.7646
17008TIP3   OH272514   4.849   1.353  13.662  0.3833  0.2746 -0.2672
17008TIP3    H172515   4.832   1.278  13.606 -1.4636  1.0518 -0.7870
17008TIP3    H272516   4.844   1.319  13.751  0.8407 -0.4588 -0.5168
17009TIP3   OH272517   4.359   2.780  15.362  0.0807  0.2356  0.6282
17009TIP3    H172518   4.371   2.689  15.332  0.4455  0.7368 -0.8110
17009TIP3    H272519   4.298   2.773  15.435  0.2092 -1.1888  0.6310
17010TIP3   OH272520   4.546   2.743  12.662 -0.0723  0.1363 -0.2908
17010TIP3    H172521   4.519   2.728  12.753 -0.7143 -0.2151 -0.5359
17010TIP3    H272522   4.468   2.722  12.610 -0.5856  2.9925 -0.7477
17011TIP3   OH272523   2.545   1.129  13.673 -0.5415 -0.2098  0.3836
17011TIP3    H172524   2.638   1.118  13.696 -0.6138  1.8738  1.8461
17011TIP3    H272525   2.531   1.224  13.677 -2.8669 -0.5498  0.6559
17012TIP3   OH272526   2.500   3.194  13.928 -0.1628  0.3227  0.4367
17012TIP3    H172527   2.571   3.133  13.950  1.1545  0.5867 -2.7378
17012TIP3    H272528   2.545   3.272  13.894 -1.9317  1.0066 -0.3871
17013TIP3   OH272529   1.321   0.429  13.415 -0.5630  0.6536  0.5745
17013TIP3    H172530   1.284   0.456  13.499 -1.0006  0.4725  0.4416
17013TIP3    H272531   1.264   0.471  13.350 -0.4304  0.5129  0.3698
17014TIP3   OH272532   1.321   1.853   0.516  0.5805  0.2556  0.0477
17014TIP3    H172533   1.383   1.877   0.447  2.1881  1.7918  1.9625
17014TIP3    H272534   1.364   1.781   0.563 -1.4028 -2.1816 -1.7184
17015TIP3   OH272535   6.664   2.025  12.648  0.0787  0.3494  0.0645
17015TIP3    H172536   6.738   1.967  12.667  0.5465  0.2310 -1.9593
17015TIP3    H272537   6.604   2.013  12.721  1.0165 -1.3133  0.5872
17016TIP3   OH272538   4.979   4.062  14.774  0.2719 -0.2251 -0.3749
17016TIP3    H172539   4.884   4.068  14.774  0.3174  0.8038 -2.4955
17016TIP3    H272540   4.997   3.969  14.765 -0.4958 -0.6228  1.7708
17017TIP3   OH272541   6.373   6.087  17.009  0.4862 -0.6817  0.2818
17017TIP3    H172542   6.385   6.060  16.918 -0.3878  1.1332 -0.4098
17017TIP3    H272543   6.415   6.018  17.061  1.0995 -1.6748 -1.4937
17018TIP3   OH272544   4.521   3.823  11.077 -0.1491 -1.1012  0.4000
17018TIP3    H172545   4.612   3.813  11.049 -0.2714 -0.5854 -0.1925
17018TIP3    H272546   4.486   3.892  11.020 -0.2405  0.3710  2.2088
17019TIP3   OH272547   2.932   0.992   1.845 -0.0042  0.2241 -0.1452
17019TIP3    H172548   2.952   0.957   1.758  0.2501 -1.4938  0.5911
17019TIP3    H272549   2.999   1.058   1.859  0.2734  0.1468 -1.0384
17020TIP3   OH272550   1.537   1.514  14.023  0.2643  0.8725  0.0415
17020TIP3    H172551   1.604   1.493  14.088  0.4598 -0.6133 -0.6167
17020TIP3    H272552   1.509   1.429  13.990 -1.3359  1.5272 -0.3169
17021TIP3   OH272553   1.155   3.722   3.266  0.6363 -0.2496  0.4437
17021TIP3    H172554   1.124   3.777   3.194 -0.4146  0.7041  1.6098
17021TIP3    H272555   1.165   3.635   3.227 -0.8514  0.0401 -0.6277
17022TIP3   OH272556   6.481   5.417  16.682 -0.7456  0.3677  0.0386
17022TIP3    H172557   6.522   5.427  16.768  0.0645  0.9991 -0.4160
17022TIP3    H272558   6.392   5.387  16.702  0.0784 -1.5189  1.0241
17023TIP3   OH272559   5.586   2.892  11.632 -0.2297  0.0282 -0.0825
17023TIP3    H172560   5.497   2.921  11.616 -0.4127 -0.0835  0.7290
17023TIP3    H272561   5.635   2.972  11.649 -0.8043 -0.1281  2.5062
17024TIP3   OH272562   5.661   3.720   5.432 -0.2192  0.3070  0.4221
17024TIP3    H172563   5.598   3.698   5.500 -1.2866 -0.1857 -0.6992
17024TIP3    H272564   5.722   3.646   5.432 -0.7920 -0.1728  0.1807
17025TIP3   OH272565   0.605   4.452  16.753 -0.0141 -0.0946  0.0832
17025TIP3    H172566   0.591   4.499  16.670 -3.0758 -1.4678 -0.2445
17025TIP3    H272567   0.586   4.361  16.733  2.2852 -0.9547  1.6021
17026TIP3   OH272568   4.355   6.075  17.093  0.6170  0.3763 -0.3038
17026TIP3    H172569   4.350   6.168  17.070  0.7785  0.6300  0.6989
17026TIP3    H272570   4.342   6.073  17.187 -1.0226 -0.7737 -0.5479
17027TIP3   OH272571   1.910   3.201  15.148  0.2355  0.2438  0.1657
17027TIP3    H172572   1.985   3.142  15.156  0.4447  0.2902 -1.2894
17027TIP3    H272573   1.940   3.283  15.187  0.7908  0.1255 -0.0055
17028TIP3   OH272574   0.374   2.000  11.259 -0.3852 -0.1830 -0.1226
17028TIP3    H172575   0.298   2.014  11.202 -0.0874 -0.6614 -0.6272
17028TIP3    H272576   0.336   1.988  11.346 -0.9291 -1.0333 -0.4731
17029TIP3   OH272577   6.348   4.464   4.445  0.1603  0.1947 -0.3369
17029TIP3    H172578   6.387   4.507   4.522 -0.8959  0.1839  0.2079
17029TIP3    H272579   6.254   4.474   4.457  0.0301  3.0710 -3.2898
17030TIP3   OH272580   5.920   5.867   5.286  0.6426  0.0483 -0.6760
17030TIP3    H172581   5.925   5.960   5.262  1.3084  0.1674 -0.1054
17030TIP3    H272582   5.831   5.841   5.264  0.9838  0.3663 -2.5330
17031TIP3   OH272583   5.975   1.712  11.082  0.1968  0.8679 -0.5227
17031TIP3    H172584   6.042   1.773  11.050  2.3462 -1.1550 -0.0191
17031TIP3    H272585   5.936   1.676  11.003  1.5821  0.0849 -0.8775
17032TIP3   OH272586   1.812   6.539  13.800 -0.5347 -0.3339  0.3444
17032TIP3    H172587   1.880   6.509  13.739 -0.7866 -0.8405  0.3165
17032TIP3    H272588   1.846   6.518  13.886 -0.0786  0.5830  0.3972
17033TIP3   OH272589   3.863   3.642   0.127  0.0603 -0.3283 -0.0120
17033TIP3    H172590   3.955   3.623   0.144  0.3519  0.2077 -0.9410
17033TIP3    H272591   3.865   3.715   0.065 -1.0125  0.5081  0.9280
17034TIP3   OH272592   0.488   4.715  12.027  0.1312 -0.1202 -0.7180
17034TIP3    H172593   0.480   4.717  11.932 -0.1314  0.3251 -0.6879
17034TIP3    H272594   0.509   4.624  12.047 -0.4788 -0.3675 -1.1526
17035TIP3   OH272595   4.909   1.402   4.824 -0.0622  0.1316 -0.0480
17035TIP3    H172596   4.919   1.405   4.919  0.5067  2.3523 -0.1400
17035TIP3    H272597   4.989   1.358   4.793 -0.1754 -0.4558  0.4777
17036TIP3   OH272598   5.310   2.254  13.180  0.2085  0.3743 -0.1443
17036TIP3    H172599   5.266   2.174  13.208  1.5633 -0.1096  0.6177
17036TIP3    H272600   5.268   2.323  13.232  0.4473 -0.0988  0.6770
17037TIP3   OH272601   0.423   6.321   6.252 -0.4464  0.4011  0.1820
17037TIP3    H172602   0.356   6.272   6.299 -0.3556 -0.7359 -0.8638
17037TIP3    H272603   0.376   6.364   6.180  0.2284 -1.9993 -1.7574
17038TIP3   OH272604   6.037   1.040   1.398 -0.0023 -0.5757 -0.4586
17038TIP3    H172605   5.984   0.962   1.412 -0.4036 -0.2165  0.0546
17038TIP3    H272606   5.983   1.112   1.430  0.5256 -0.1303 -0.5515
17039TIP3   OH272607   5.709   5.232  13.604  0.3468 -0.0363  0.4478
17039TIP3    H172608   5.698   5.195  13.692 -0.7757  1.5963  1.0270
17039TIP3    H272609   5.715   5.326  13.619 -2.0515  0.4641 -1.3953
17040TIP3   OH272610   4.538   0.733  15.542 -0.0525  0.3547 -0.6833
17040TIP3    H172611   4.464   0.764  15.489 -1.6647 -1.3639  0.4917
17040TIP3    H272612   4.615   0.760  15.492 -1.4792  0.7449 -2.7853
17041TIP3   OH272613   5.340   4.996  11.766  0.7095 -0.5219 -0.4070
17041TIP3    H172614   5.336   5.016  11.860 -0.8025 -1.2465 -0.3105
17041TIP3    H272615   5.294   4.913  11.757  0.9447 -0.5148 -1.7911
17042TIP3   OH272616   5.819   1.176  12.230 -0.2691  0.3317  0.0922
17042TIP3    H172617   5.822   1.105  12.165  2.7462  0.1828  0.3212
17042TIP3    H272618   5.767   1.244  12.188 -2.5661 -1.6872 -0.4428
17043TIP3   OH272619   3.242   2.848  14.834  0.1664  0.3487  0.1417
17043TIP3    H172620   3.157   2.812  14.858  1.1078 -0.0989  2.9695
17043TIP3    H272621   3.302   2.815  14.900  1.9380  3.3296  0.1246
17044TIP3   OH272622   1.275   4.120  13.525  0.6371  0.4791 -0.1498
17044TIP3    H172623   1.253   4.200  13.478  1.9178  1.0978  0.2688
17044TIP3    H272624   1.361   4.095  13.492  1.0030  0.2305  0.9521
17045TIP3   OH272625   0.953   1.930   3.803  0.8404 -0.3204  0.4656
17045TIP3    H172626   0.935   2.009   3.854 -1.5730 -1.7744  1.9096
17045TIP3    H272627   0.963   1.962   3.713 -1.0315  1.5416  0.8765
17046TIP3   OH272628   3.740   5.112  13.092 -0.7304 -0.5970  0.3021
17046TIP3    H172629   3.814   5.105  13.152  0.1006 -0.9469 -0.7574
17046TIP3    H272630   3.760   5.188  13.037 -0.2622 -1.7657 -1.1840
17047TIP3   OH272631   2.661   1.685   0.235  0.0050 -0.0843  0.0820
17047TIP3    H172632   2.712   1.633   0.297  1.8153  1.8892  0.2710
17047TIP3    H272633   2.635   1.763   0.284 -0.4742  0.4309 -0.9706
17048TIP3   OH272634   2.214   2.692   1.261  0.0194  0.5110  0.2878
17048TIP3    H172635   2.175   2.735   1.337  2.8415  0.6945  1.6781
17048TIP3    H272636   2.260   2.763   1.215  1.0468 -0.2041  0.2041
17049TIP3   OH272637   0.241   1.574   4.123  0.0941  1.0097  0.2206
17049TIP3    H172638   0.157   1.555   4.079  0.0915  1.4513  0.0330
17049TIP3    H272639   0.268   1.490   4.160 -0.5480  0.9132  0.4751
17050TIP3   OH272640   1.143   1.201   6.150  0.2118 -0.1071  0.1178
17050TIP3    H172641   1.092   1.277   6.119 -0.0915 -0.3659 -0.0238
17050TIP3    H272642   1.177   1.228   6.235 -0.2213  0.0466  0.2443
17051TIP3   OH272643   0.018   3.562  12.683 -0.1137  0.7118 -0.5403
17051TIP3    H172644  -0.006   3.652  12.705 -1.4932  0.0034  0.9892
17051TIP3    H272645  -0.038   3.539  12.609 -1.2362  0.4454  0.3761
17052TIP3   OH272646   3.853   6.236  16.547  0.4322  0.0814  0.5314
17052TIP3    H172647   3.769   6.225  16.591 -0.3740  0.7093 -0.8111
17052TIP3    H272648   3.896   6.307  16.595 -1.3987  2.3332 -1.0292
17053TIP3   OH272649   2.276   0.252  15.057 -0.3169  0.4000 -0.7427
17053TIP3    H172650   2.256   0.198  14.981  1.1785  0.8182 -1.4685
17053TIP3    H272651   2.305   0.190  15.124 -0.8938  0.0986 -0.7721
17054TIP3   OH272652   5.330   3.043   1.717 -0.9298  0.4529  0.1548
17054TIP3    H172653   5.294   2.980   1.779  0.4375 -0.8302 -0.3297
17054TIP3    H272654   5.413   3.005   1.688  0.4479  2.9467  0.6140
17055TIP3   OH272655   2.997   6.103   5.044  0.4697  0.6299  0.1244
17055TIP3    H172656   2.901   6.112   5.042  0.3875 -0.0313  0.8507
17055TIP3    H272657   3.029   6.193   5.034 -0.2080  0.7568 -0.9829
17056TIP3   OH272658   5.189   3.935  17.006  0.3251  0.6511 -0.2009
17056TIP3    H172659   5.191   3.917  17.100 -0.5871  0.5554 -0.1914
17056TIP3    H272660   5.156   4.025  17.000  0.1801  0.5838 -0.4313
17057TIP3   OH272661   3.913   2.813  12.293  0.0234  0.2050  0.1595
17057TIP3    H172662   3.957   2.839  12.373  0.6126  2.3160 -0.8275
17057TIP3    H272663   3.971   2.748  12.253  1.2599  1.4654 -0.1166
17058TIP3   OH272664   5.531   0.567  11.863 -0.1811  0.5138 -0.4312
17058TIP3    H172665   5.565   0.570  11.773  1.4329 -1.6479  0.0669
17058TIP3    H272666   5.514   0.474  11.879  0.1874  0.8003  1.7250
17059TIP3   OH272667   3.795   3.586  15.609  0.3364 -0.6312 -0.3386
17059TIP3    H172668   3.843   3.568  15.689  1.6734 -1.2763 -1.2837
17059TIP3    H272669   3.800   3.506  15.558 -0.9368 -0.3947 -0.8687
17060TIP3   OH272670   5.264   1.041   1.062  0.2454  0.4572 -0.0200
17060TIP3    H172671   5.174   1.037   1.092  0.0370  1.3695 -0.5175
17060TIP3    H272672   5.313   0.985   1.123 -0.1398  2.3338  2.0360
17061TIP3   OH272673   1.896   0.724  16.641 -0.2086 -1.0925 -0.5034
17061TIP3    H172674   1.866   0.736  16.551  1.7600 -0.4190 -1.1112
17061TIP3    H272675   1.866   0.802  16.688 -1.1570 -1.4016 -0.5929
17062TIP3   OH272676   5.172   4.373   1.994  0.4720 -0.4550 -0.3420
17062TIP3    H172677   5.104   4.373   1.926  0.9769  0.6782 -0.8731
17062TIP3    H272678   5.254   4.376   1.945  0.8149  1.6959  0.3023
17063TIP3   OH272679   1.534   0.748   2.552  0.0697  0.1792 -0.7463
17063TIP3    H172680   1.595   0.787   2.615 -0.2795  0.2248 -0.4385
17063TIP3    H272681   1.451   0.792   2.568  0.0013  0.2426 -1.2910
17064TIP3   OH272682   2.411   4.819   3.446 -0.6707 -0.3551  0.3124
17064TIP3    H172683   2.402   4.724   3.438  1.9376 -0.6345  0.2167
17064TIP3    H272684   2.367   4.854   3.368  0.3468 -1.6363 -0.8683
17065TIP3   OH272685   2.734   0.104   4.729 -0.0620 -0.6769 -0.7635
17065TIP3    H172686   2.711   0.084   4.820  1.9289  0.9754  0.1212
17065TIP3    H272687   2.692   0.188   4.712  0.9037 -0.2171 -0.8603
17066TIP3   OH272688   1.736   4.446  15.701  0.1429 -0.0619  0.1647
17066TIP3    H172689   1.745   4.361  15.743 -1.2918 -0.5021 -0.4047
17066TIP3    H272690   1.678   4.430  15.626  0.0752  1.3585 -0.0984
17067TIP3   OH272691   3.457   4.166   3.180 -0.0499  0.0813 -0.2206
17067TIP3    H172692   3.407   4.240   3.214  0.1104  0.1381 -0.1082
17067TIP3    H272693   3.492   4.198   3.096  0.0202  0.1346 -0.1715
17068TIP3   OH272694   6.156   3.809   1.445  0.1837 -0.3138  0.4475
17068TIP3    H172695   6.113   3.758   1.377 -0.5408 -0.6652  1.1531
17068TIP3    H272696   6.194   3.743   1.504 -0.3968 -0.0344  1.1357
17069TIP3   OH272697   4.729   6.755   1.960 -0.4252  0.2983 -0.1260
17069TIP3    H172698   4.813   6.738   1.918 -0.9969  0.4042 -1.3638
17069TIP3    H272699   4.692   6.668   1.977 -0.3137  0.2538 -0.1149
17070TIP3   OH272700   1.031   6.593   6.506  0.2418  1.3374  0.1505
17070TIP3    H172701   1.092   6.539   6.456 -3.2078 -2.2576 -0.4112
17070TIP3    H272702   1.004   6.661   6.445 -0.3322 -0.2412 -1.4000
17071TIP3   OH272703   0.621   0.767   5.409  0.1789  0.2731 -0.0345
17071TIP3    H172704   0.526   0.760   5.394  0.2288  0.6839 -0.5426
17071TIP3    H272705   0.660   0.714   5.340  0.3768  1.4732 -0.8477
17072TIP3   OH272706   2.217   3.634   1.948  0.1292  0.4963  0.6309
17072TIP3    H172707   2.150   3.608   2.011  0.6154 -0.3530  0.8167
17072TIP3    H272708   2.229   3.556   1.893 -1.0442  1.5636 -1.1945
17073TIP3   OH272709   4.458   5.367   4.385  0.6462 -0.1282  0.6197
17073TIP3    H172710   4.371   5.337   4.412  0.0843  0.3159 -0.6456
17073TIP3    H272711   4.496   5.406   4.464  0.1252 -1.2961  1.4598
17074TIP3   OH272712   3.441   3.362   5.458  0.4520 -0.3438 -0.5459
17074TIP3    H172713   3.363   3.411   5.431  0.5206 -0.3933 -0.8357
17074TIP3    H272714   3.505   3.429   5.481  0.1086 -0.3082  0.3038
17075TIP3   OH272715   4.174   5.983   1.683  0.0905  0.2150  0.3652
17075TIP3    H172716   4.269   5.975   1.674 -0.2267 -0.3227 -3.1783
17075TIP3    H272717   4.161   6.064   1.732  2.3473  1.5198 -1.1023
17076TIP3   OH272718   4.782   5.761  15.665  0.2807  0.1595 -0.0138
17076TIP3    H172719   4.712   5.772  15.728 -0.2771 -0.1120 -0.5809
17076TIP3    H272720   4.814   5.672  15.681 -0.6416 -0.3348 -0.8980
17077TIP3   OH272721   4.432   3.858  11.768  0.8429 -0.6205  0.8635
17077TIP3    H172722   4.349   3.905  11.758 -0.1060 -2.2031  1.1904
17077TIP3    H272723   4.496   3.912  11.721 -0.5482  0.1345 -0.1903
17078TIP3   OH272724   2.748   2.863   3.429  0.3878 -0.3227 -0.0240
17078TIP3    H172725   2.670   2.830   3.475 -0.0895  0.0764 -0.5388
17078TIP3    H272726   2.810   2.884   3.499 -0.5956  0.9511  0.4956
17079TIP3   OH272727   4.144   3.101  12.017 -0.0915  0.1901  0.2712
17079TIP3    H172728   4.172   3.020  11.974 -0.8516  0.2270 -0.2930
17079TIP3    H272729   4.226   3.144  12.041  0.3313 -0.1330 -0.5713
17080TIP3   OH272730   5.093   3.974  10.664  0.1744  0.1887 -0.3816
17080TIP3    H172731   5.146   3.965  10.586  1.5624 -1.4339  0.7182
17080TIP3    H272732   5.121   3.902  10.721 -1.4009  0.8278  1.2562
17081TIP3   OH272733   5.443   2.739  11.240 -0.6666  0.3574  0.7038
17081TIP3    H172734   5.510   2.768  11.178 -1.5930  0.4203 -0.2702
17081TIP3    H272735   5.490   2.730  11.323  0.5762  0.2923  0.0050
17082TIP3   OH272736   2.199   5.306  17.265 -0.0633 -0.1055 -0.1172
17082TIP3    H172737   2.286   5.337  17.241 -0.1451  0.7552  0.6762
17082TIP3    H272738   2.142   5.382  17.252 -0.8084 -0.8505 -1.2729
17083TIP3   OH272739   5.656   0.103  12.729 -1.2245 -0.1451 -0.0869
17083TIP3    H172740   5.690   0.103  12.639 -1.9807 -1.3725 -0.3890
17083TIP3    H272741   5.668   0.012  12.758 -1.1450  0.2120  0.9891
17084TIP3   OH272742   0.275   5.916  17.063 -0.0757  0.0955 -0.2416
17084TIP3    H172743   0.230   5.859  17.126 -0.7191  1.9948  1.0531
17084TIP3    H272744   0.245   6.004  17.085  0.4455  0.9001 -2.5938
17085TIP3   OH272745   3.191   6.213  16.223 -0.5452 -0.0942 -0.2516
17085TIP3    H172746   3.246   6.287  16.198 -0.9302  0.0185 -0.7627
17085TIP3    H272747   3.143   6.191  16.144 -0.4107 -0.9151 -0.1093
17086TIP3   OH272748   3.436   3.341   4.802  0.1236 -0.0506  0.6312
17086TIP3    H172749   3.425   3.347   4.707 -2.4519  1.1037  0.9725
17086TIP3    H272750   3.467   3.428   4.828  1.3643 -0.5324  0.8043
17087TIP3   OH272751   6.321   0.646   4.990  0.5525 -0.2836 -0.4140
17087TIP3    H172752   6.311   0.738   4.962 -1.0331 -0.2365  0.2449
17087TIP3    H272753   6.247   0.601   4.949 -0.0887 -0.7955  1.2720
17088TIP3   OH272754   3.276   2.726   2.994  0.7494  0.4461 -0.0480
17088TIP3    H172755   3.324   2.694   2.917  1.3009  3.5041 -1.0260
17088TIP3    H272756   3.344   2.765   3.049 -0.2056  2.0027  0.0321
17089TIP3   OH272757   6.588   5.587  15.489  0.4559  0.0633 -0.1635
17089TIP3    H172758   6.574   5.617  15.399  0.2883 -0.0506 -0.1763
17089TIP3    H272759   6.553   5.498  15.490 -1.0147  0.6231  0.4218
17090TIP3   OH272760   4.673   3.229   1.884  0.1619 -0.4975 -0.1535
17090TIP3    H172761   4.674   3.133   1.878  1.6747 -0.4373 -1.1705
17090TIP3    H272762   4.715   3.248   1.968  0.9952 -0.7000 -0.5193
17091TIP3   OH272763   3.501   1.823  14.784 -0.4166 -0.1519  0.1067
17091TIP3    H172764   3.592   1.804  14.810 -0.0015  0.2872 -0.9861
17091TIP3    H272765   3.476   1.898  14.838  0.3459  0.5876 -0.5513
17092TIP3   OH272766   5.393   1.136   5.746 -0.0323 -0.3878 -0.3172
17092TIP3    H172767   5.395   1.088   5.829 -0.1390  0.3650  0.1298
17092TIP3    H272768   5.311   1.185   5.749  0.4429  0.4133 -0.4327
17093TIP3   OH272769   6.808   3.842  11.454  0.4697  0.3362 -0.3794
17093TIP3    H172770   6.801   3.907  11.523  3.3568  1.6162 -1.2084
17093TIP3    H272771   6.812   3.758  11.500 -3.1699  0.6879  0.7024
17094TIP3   OH272772   6.437   2.008  16.502  0.1499  0.5933 -0.0046
17094TIP3    H172773   6.533   2.010  16.499  0.1324  2.1668  0.4333
17094TIP3    H272774   6.410   2.098  16.490 -1.1788  0.6587  2.9454
17095TIP3   OH272775   3.305   5.893   1.429  0.2289  0.0697  0.1338
17095TIP3    H172776   3.335   5.829   1.493  2.2845 -0.0504 -0.9220
17095TIP3    H272777   3.348   5.975   1.455 -1.7983  0.8811  1.0348
17096TIP3   OH272778   6.249   5.094  16.935 -0.4752 -0.1716  0.3796
17096TIP3    H172779   6.304   5.078  16.859 -1.1497 -0.9325  0.0460
17096TIP3    H272780   6.301   5.152  16.991  0.4218 -0.4125 -0.1948
17097TIP3   OH272781   1.629   3.786  12.298  0.0542  0.7540 -0.2907
17097TIP3    H172782   1.669   3.741  12.224  0.5901  0.6704  0.0440
17097TIP3    H272783   1.536   3.793  12.275  0.0959  0.1246 -0.6699
17098TIP3   OH272784   5.555   6.493  15.320 -0.3510  0.3218  0.6501
17098TIP3    H172785   5.465   6.475  15.347 -0.2199  0.3488  1.1140
17098TIP3    H272786   5.546   6.554  15.247 -0.7044  0.5142  0.8497
17099TIP3   OH272787   2.902   0.300   1.455  0.1782 -0.6096  0.1041
17099TIP3    H172788   2.992   0.266   1.455  1.1031  1.7629  1.5295
17099TIP3    H272789   2.904   0.374   1.395 -0.5226  0.1769  1.0315
17100TIP3   OH272790   0.435   5.345   1.185 -0.6430 -0.7651 -0.1687
17100TIP3    H172791   0.473   5.388   1.108 -1.5523 -1.3270 -0.9350
17100TIP3    H272792   0.451   5.407   1.256  0.4526 -0.3594 -0.7414
17101TIP3   OH272793   3.541   4.649  13.862 -1.0418  0.1267 -0.3120
17101TIP3    H172794   3.493   4.690  13.934  1.5343  1.1140  0.8898
17101TIP3    H272795   3.609   4.597  13.905  1.0338  1.3447 -2.0109
17102TIP3   OH272796   0.860   6.314  12.107 -0.3109 -0.6031 -0.0919
17102TIP3    H172797   0.818   6.261  12.175 -0.9770  2.4368  2.0192
17102TIP3    H272798   0.950   6.326  12.139 -0.3858  0.1451 -0.1575
17103TIP3   OH272799   3.248   0.327   4.213 -0.5158 -0.4959  0.4210
17103TIP3    H172800   3.241   0.411   4.168 -1.7596 -0.8683 -0.1024
17103TIP3    H272801   3.158   0.302   4.231 -0.1814 -1.9235  0.1869
17104TIP3   OH272802   0.482   1.866  11.817 -0.6623  0.5838  0.4779
17104TIP3    H172803   0.501   1.843  11.908 -1.4454  1.7960  0.9571
17104TIP3    H272804   0.395   1.828  11.801 -0.7504  0.8120  0.4061
17105TIP3   OH272805   0.023   3.274  12.968 -0.2528  0.3061  0.8093
17105TIP3    H172806   0.090   3.342  12.975 -0.7272  0.6558  2.0709
17105TIP3    H272807  -0.051   3.308  13.018 -1.2138 -0.2806 -0.1828
17106TIP3   OH272808   3.813   3.804   5.397 -0.8127  0.1754 -0.4050
17106TIP3    H172809   3.797   3.769   5.484  0.7338  0.2041 -0.0881
17106TIP3    H272810   3.727   3.828   5.364 -1.4218  0.0651  1.0747
17107TIP3   OH272811   4.264   6.814   1.911 -0.0183 -0.9211  0.1418
17107TIP3    H172812   4.196   6.753   1.941  1.1140 -2.8917 -1.2086
17107TIP3    H272813   4.243   6.830   1.819  0.4398 -0.2310  0.1513
17108TIP3   OH272814   4.133   2.864   3.691 -0.6848 -0.6217  0.0573
17108TIP3    H172815   4.076   2.940   3.708 -0.1868 -0.2544  0.0908
17108TIP3    H272816   4.175   2.883   3.608  0.8430 -0.0016  0.9562
17109TIP3   OH272817   0.783   4.623  12.048  0.6277  0.3020 -0.3852
17109TIP3    H172818   0.801   4.635  11.954 -0.9447 -0.1720 -0.7678
17109TIP3    H272819   0.711   4.683  12.066  1.5378  1.0602  0.7480
17110TIP3   OH272820   1.250   1.780   1.002 -0.2742 -0.2770  0.2300
17110TIP3    H172821   1.308   1.707   0.980  0.2725  0.4846 -0.8988
17110TIP3    H272822   1.310   1.853   1.021 -0.8285  1.1810 -3.2383
17111TIP3   OH272823   0.660   4.452  12.735 -0.0751 -0.7936  0.4230
17111TIP3    H172824   0.756   4.456  12.733 -0.1514  0.6676 -1.0810
17111TIP3    H272825   0.636   4.407  12.654 -0.6077 -3.0429  1.7796
17112TIP3   OH272826   3.158   3.543  14.475  0.5710 -0.8956 -0.0906
17112TIP3    H172827   3.243   3.586  14.489 -0.2686  0.6178  0.3790
17112TIP3    H272828   3.182   3.454  14.449  2.3132 -0.5456  0.1877
17113TIP3   OH272829   5.445   5.375   0.965  0.3000 -0.4587  0.5237
17113TIP3    H172830   5.499   5.306   1.004  0.3193 -0.8392 -0.1639
17113TIP3    H272831   5.509   5.440   0.935  0.3952 -1.0026 -0.4710
17114TIP3   OH272832   1.436   2.926  14.310 -0.5392 -0.8107  0.0055
17114TIP3    H172833   1.447   2.983  14.235 -0.6023 -2.7035 -1.4658
17114TIP3    H272834   1.467   2.978  14.385  0.0303  0.8712 -1.3793
17115TIP3   OH272835   6.397   4.896  12.904  0.5367 -0.0790 -0.5888
17115TIP3    H172836   6.466   4.916  12.968 -0.3877 -0.7183  0.6397
17115TIP3    H272837   6.322   4.869  12.958  0.2206 -2.1525 -2.0148
17116TIP3   OH272838   4.372   0.172   3.961  0.6432  0.4303  0.4000
17116TIP3    H172839   4.458   0.206   3.985 -0.2807  1.4036  2.4447
17116TIP3    H272840   4.317   0.188   4.038 -1.2372 -0.6572 -0.6698
17117TIP3   OH272841   6.704   3.795  15.492 -0.0382 -0.5549  0.5462
17117TIP3    H172842   6.718   3.719  15.436 -2.4869 -0.6272 -0.0306
17117TIP3    H272843   6.769   3.786  15.562  0.4463 -2.5589 -0.1377
17118TIP3   OH272844   3.667   1.389   6.009  0.0762 -0.1305 -0.1404
17118TIP3    H172845   3.723   1.311   6.003 -0.3778 -0.5590  1.1455
17118TIP3    H272846   3.588   1.365   5.960  0.9534  0.4575 -1.9186
17119TIP3   OH272847   1.366   6.654   0.081  0.2160 -0.1988 -0.0113
17119TIP3    H172848   1.386   6.598   0.156 -1.9731 -0.2845  0.5386
17119TIP3    H272849   1.406   6.739   0.102  0.9297 -0.6579  0.5172
17120TIP3   OH272850   5.827   0.770   5.192  0.0398 -0.0672 -0.6260
17120TIP3    H172851   5.844   0.726   5.276  1.5585  0.9452 -0.4007
17120TIP3    H272852   5.783   0.703   5.139  0.0479 -1.0573  0.5937
17121TIP3   OH272853   6.137   3.437   5.005 -0.4151  0.0200  0.1321
17121TIP3    H172854   6.163   3.469   4.919 -0.9067 -1.4295 -0.5658
17121TIP3    H272855   6.220   3.423   5.051 -0.1496  0.5684 -0.1719
17122TIP3   OH272856   5.988   5.244  12.427 -0.2945 -0.3346  0.2259
17122TIP3    H172857   5.908   5.242  12.375 -0.2448  1.3219  0.0576
17122TIP3    H272858   6.040   5.170  12.394 -0.8276 -0.1100 -1.1614
17123TIP3   OH272859   0.534   1.010   4.067 -0.2969  0.2121  0.2505
17123TIP3    H172860   0.493   1.096   4.056 -0.2363  0.0015 -2.0012
17123TIP3    H272861   0.470   0.949   4.029  0.2290 -0.5974  0.6532
17124TIP3   OH272862   5.317   3.607  15.765  0.0979 -0.1960 -0.0222
17124TIP3    H172863   5.412   3.598  15.758  0.2549  1.2623  0.1697
17124TIP3    H272864   5.302   3.654  15.847 -0.8843 -1.8709  0.7812
17125TIP3   OH272865   1.539   0.525  14.121  0.1770 -0.3290 -0.0878
17125TIP3    H172866   1.590   0.604  14.101 -0.1318  0.1773  1.0864
17125TIP3    H272867   1.459   0.558  14.163  0.1456 -1.2842  0.6057
17126TIP3   OH272868   1.906   0.721   6.297  0.3696 -0.4535  0.3640
17126TIP3    H172869   1.935   0.679   6.379 -2.2270  0.0519  1.6037
17126TIP3    H272870   1.810   0.716   6.301  0.1619  1.3320 -1.7529
17127TIP3   OH272871   5.251   4.043   3.619  0.1245 -0.1055  0.3220
17127TIP3    H172872   5.200   4.027   3.540  1.1492  1.1271 -0.6164
17127TIP3    H272873   5.337   4.069   3.586  1.2603 -1.8099  1.8657
17128TIP3   OH272874   2.596   2.836  16.909 -0.4883  0.0457  0.4999
17128TIP3    H172875   2.685   2.809  16.886 -0.5601  0.1057  0.1486
17128TIP3    H272876   2.556   2.757  16.946 -0.0335  0.2307  1.4183
17129TIP3   OH272877   1.311   3.566   4.444 -0.2654  0.2222  0.8390
17129TIP3    H172878   1.249   3.510   4.396 -0.1657  0.8039  0.0041
17129TIP3    H272879   1.267   3.585   4.526 -1.0869  0.4015  0.3708
17130TIP3   OH272880   2.428   6.218  11.047 -0.3991 -0.0023  0.0847
17130TIP3    H172881   2.340   6.250  11.027 -0.1533  0.6179 -0.0070
17130TIP3    H272882   2.464   6.190  10.963 -0.6805 -0.6943  0.1909
17131TIP3   OH272883   1.643   5.426  16.383  0.0999  0.0297  0.4609
17131TIP3    H172884   1.629   5.424  16.288  0.8422  1.0170  0.3281
17131TIP3    H272885   1.671   5.337  16.405 -0.8500 -0.4165 -0.1235
17132TIP3   OH272886   5.003   2.172  15.480  0.1343 -0.1267 -0.1327
17132TIP3    H172887   4.980   2.205  15.393 -1.1329  0.2444  0.3356
17132TIP3    H272888   4.991   2.078  15.474 -1.1201  0.0127 -0.0293
17133TIP3   OH272889   0.847   0.797   2.578  0.2738 -0.3605 -0.3883
17133TIP3    H172890   0.755   0.821   2.575 -0.1495 -1.7500  0.7128
17133TIP3    H272891   0.870   0.802   2.671  1.0646 -0.8708 -0.5493
17134TIP3   OH272892   4.317   3.207   4.016  0.6187  0.0912 -0.0432
17134TIP3    H172893   4.255   3.275   4.042  1.3547  0.7512  0.0016
17134TIP3    H272894   4.294   3.186   3.926 -0.4807 -0.5778  0.3804
17135TIP3   OH272895   4.007   4.397  10.654 -0.5581  0.1934  0.3077
17135TIP3    H172896   3.954   4.441  10.588 -2.2435 -0.0524  1.4665
17135TIP3    H272897   3.990   4.304  10.641  1.6842 -0.0658 -1.0347
17136TIP3   OH272898   5.206   4.814   0.449  0.1421 -0.7038  1.0377
17136TIP3    H172899   5.247   4.894   0.416 -4.0285  1.2359  0.1894
17136TIP3    H272900   5.205   4.825   0.544 -1.4329  0.8497  0.8684
17137TIP3   OH272901   4.679   1.834  12.039  0.1010 -0.8571  0.2168
17137TIP3    H172902   4.715   1.806  11.955  1.2221  1.2698 -0.0507
17137TIP3    H272903   4.616   1.903  12.017 -1.0114 -1.6081  0.9946
17138TIP3   OH272904   0.177   4.334  16.343  0.1684 -0.5388 -0.4682
17138TIP3    H172905   0.229   4.345  16.422  0.6803 -2.1351 -0.5683
17138TIP3    H272906   0.087   4.357  16.370  0.2439 -1.6026  0.7112
17139TIP3   OH272907   6.010   6.461  15.685  0.6313 -0.5996 -0.3178
17139TIP3    H172908   5.961   6.484  15.605  1.5287  1.5351 -0.2769
17139TIP3    H272909   5.942   6.432  15.747 -0.7954  3.4375  0.1409
17140TIP3   OH272910   0.881   5.556  15.815 -0.1190 -0.1779 -0.4004
17140TIP3    H172911   0.968   5.578  15.847 -0.1484  0.5603 -0.8046
17140TIP3    H272912   0.877   5.594  15.727 -0.6575 -0.6725 -0.5923
17141TIP3   OH272913   3.592   4.382  14.026  0.4206  0.3565 -0.4977
17141TIP3    H172914   3.625   4.295  14.047 -1.0827 -0.1702 -0.2597
17141TIP3    H272915   3.497   4.371  14.017  0.2179  1.9426 -0.5740
17142TIP3   OH272916   2.533   5.545   1.364  0.6568  0.4481  0.6812
17142TIP3    H172917   2.438   5.554   1.358  0.7972  0.9609 -0.8251
17142TIP3    H272918   2.550   5.453   1.343  0.5334  0.4629  0.5194
17143TIP3   OH272919   2.872   5.464  14.491 -0.1873 -0.1857 -0.1046
17143TIP3    H172920   2.813   5.391  14.472  0.2602 -0.6423  0.2780
17143TIP3    H272921   2.912   5.485  14.406 -1.3097  0.4895 -0.4811
17144TIP3   OH272922   6.290   4.976   4.433  0.0088  0.5930 -0.1912
17144TIP3    H172923   6.251   5.059   4.405 -3.4431 -1.1114 -0.8049
17144TIP3    H272924   6.357   5.000   4.497  0.9587  3.9728 -2.3964
17145TIP3   OH272925   3.468   6.640   2.643 -0.6676 -0.1499 -0.5224
17145TIP3    H172926   3.462   6.669   2.552  1.3764 -0.2462 -0.7026
17145TIP3    H272927   3.471   6.545   2.637  1.4593 -0.1030 -0.5018
17146TIP3   OH272928   3.164   1.965  15.211  0.3007  0.3184  0.1153
17146TIP3    H172929   3.081   1.968  15.164 -0.6496 -0.7115  1.6627
17146TIP3    H272930   3.208   1.887  15.177  1.1765  1.5043 -1.5404
17147TIP3   OH272931   0.737   2.393   2.478  0.5183 -0.3737 -0.4373
17147TIP3    H172932   0.656   2.442   2.465  0.7226  0.8793  2.5734
17147TIP3    H272933   0.768   2.373   2.389 -2.2677  0.4495 -1.6372
17148TIP3   OH272934   4.430   5.572  11.913  0.7110  0.1048  0.1746
17148TIP3    H172935   4.467   5.516  11.981 -0.7645 -2.1601 -0.8042
17148TIP3    H272936   4.379   5.512  11.858 -1.6347  2.5637 -0.4423
17149TIP3   OH272937   4.812   1.510  14.222 -0.0447  0.0138 -0.1909
17149TIP3    H172938   4.881   1.576  14.224  1.1687 -1.1760 -1.7727
17149TIP3    H272939   4.746   1.547  14.164 -0.4322  0.8390  0.7564
17150TIP3   OH272940   3.296   0.072  15.354  0.1865 -0.3514  0.3189
17150TIP3    H172941   3.295   0.085  15.259 -0.8257 -2.3948  0.0137
17150TIP3    H272942   3.224   0.127  15.386  0.1755 -0.0830 -0.1633
17151TIP3   OH272943   3.473   4.687   2.117  0.4497  0.4164 -0.3699
17151TIP3    H172944   3.409   4.669   2.048  0.0406  2.4717 -0.5392
17151TIP3    H272945   3.492   4.780   2.109  2.9961 -0.0253  0.1152
17152TIP3   OH272946   2.211   5.902  12.605 -0.1169  0.4427  0.9731
17152TIP3    H172947   2.134   5.925  12.657 -2.6159  0.3152 -2.5303
17152TIP3    H272948   2.222   5.808  12.617 -2.0863  0.0040 -0.5009
17153TIP3   OH272949   4.912   2.131  15.187 -0.1947 -0.4117 -0.0787
17153TIP3    H172950   4.829   2.093  15.215 -0.4061  1.1038  1.4412
17153TIP3    H272951   4.901   2.146  15.093 -2.0252  0.7052  0.2834
17154TIP3   OH272952   4.686   2.954  13.317  0.2488 -0.2797 -0.1406
17154TIP3    H172953   4.758   2.982  13.260 -0.9626 -0.1417 -1.6480
17154TIP3    H272954   4.653   3.035  13.356  0.3339 -0.2446 -0.1407
17155TIP3   OH272955   2.876   1.318  16.224  0.1117 -0.0333  0.9189
17155TIP3    H172956   2.907   1.348  16.138  0.9844 -0.1599  1.1857
17155TIP3    H272957   2.859   1.224  16.211  0.6531 -0.1419  0.9999
17156TIP3   OH272958   2.062   3.756   1.501 -0.4513 -0.1061 -0.1666
17156TIP3    H172959   2.146   3.712   1.490  0.1086  0.2881  2.3698
17156TIP3    H272960   2.010   3.696   1.553 -0.5905  1.0723  1.0610
17157TIP3   OH272961   6.604   0.217   1.483  0.3656 -0.2299 -0.4531
17157TIP3    H172962   6.691   0.185   1.459 -0.3264 -0.6420 -2.5058
17157TIP3    H272963   6.613   0.313   1.483  0.5552 -0.2313 -1.8008
17158TIP3   OH272964   0.249   5.819   2.961  0.5522 -0.7251 -0.2912
17158TIP3    H172965   0.241   5.812   3.056 -0.1024 -1.6747 -0.4126
17158TIP3    H272966   0.343   5.828   2.946  0.6173 -0.1033  0.4729
17159TIP3   OH272967   6.667   3.821   4.470  0.0991  0.4914 -0.3673
17159TIP3    H172968   6.645   3.913   4.455 -0.5381  0.1001 -1.8696
17159TIP3    H272969   6.752   3.809   4.428  0.4632  0.5165  0.3366
17160TIP3   OH272970   6.488   3.338   1.495  0.0996  0.0122  0.3035
17160TIP3    H172971   6.534   3.323   1.412  2.0444  1.3540  1.1010
17160TIP3    H272972   6.471   3.432   1.496 -1.4833 -0.2611  0.6557
17161TIP3   OH272973   3.820   1.172  13.879 -0.6601 -0.5143 -0.5445
17161TIP3    H172974   3.814   1.178  13.975 -1.1880  0.2671 -0.6230
17161TIP3    H272975   3.912   1.188  13.859 -0.3867 -1.4836 -0.1142
17162TIP3   OH272976   6.464   5.905  11.880  0.3630 -0.5698  0.1515
17162TIP3    H172977   6.534   5.859  11.834 -0.9285 -0.9637 -1.4718
17162TIP3    H272978   6.422   5.958  11.813 -0.9028 -0.3500  1.1050
17163TIP3   OH272979   0.238   3.413   5.474 -0.2135  0.1409  1.0135
17163TIP3    H172980   0.314   3.460   5.507  1.3619 -2.1419  0.7478
17163TIP3    H272981   0.266   3.378   5.390 -1.4909 -0.9251  1.0200
17164TIP3   OH272982   2.955   2.869  14.448  0.0230 -0.4019 -0.2883
17164TIP3    H172983   2.888   2.835  14.388  0.0573 -0.8443 -0.0769
17164TIP3    H272984   3.036   2.862  14.399  0.0270 -0.6119 -0.2542
17165TIP3   OH272985   3.987   0.430  12.747 -0.3476  0.0548 -0.0787
17165TIP3    H172986   4.025   0.394  12.667  1.7709  1.8169  0.0979
17165TIP3    H272987   4.035   0.387  12.818 -1.8515 -1.1029  0.2581
17166TIP3   OH272988   2.268   5.115  15.051  0.3214  0.0322 -0.0073
17166TIP3    H172989   2.258   5.207  15.027  0.1333  0.0936  0.3048
17166TIP3    H272990   2.243   5.111  15.143 -1.2189 -0.6100 -0.4312
17167TIP3   OH272991   1.924   2.973  14.382  0.2945 -0.0146  0.0420
17167TIP3    H172992   1.959   2.970  14.471  1.5058 -2.1272 -0.4625
17167TIP3    H272993   1.876   3.056  14.378 -0.8750 -0.4602  3.0578
17168TIP3   OH272994   3.675   3.713   4.129  0.2783  0.1318  0.1866
17168TIP3    H172995   3.668   3.808   4.123  1.3774  0.1960 -0.1874
17168TIP3    H272996   3.613   3.679   4.064 -0.6519  0.5711  0.8310
17169TIP3   OH272997   6.735   5.573   5.496  0.5464  0.1403 -0.3279
17169TIP3    H172998   6.693   5.487   5.492 -0.1332  0.5255 -1.8082
17169TIP3    H272999   6.707   5.610   5.579  0.0583 -0.6641 -0.1270
17170TIP3   OH273000   5.854   3.924  13.488  0.3997 -0.3165  0.2497
17170TIP3    H173001   5.823   3.900  13.401 -1.7039 -0.0804  0.9162
17170TIP3    H273002   5.949   3.923  13.480  0.2507 -1.1882 -1.8057
17171TIP3   OH273003   1.112   4.608   1.287  0.5063 -0.5569  0.0344
17171TIP3    H173004   1.033   4.625   1.237  1.3026 -1.1855 -1.4498
17171TIP3    H273005   1.082   4.603   1.378 -0.9056  0.8148 -0.3302
17172TIP3   OH273006   5.416   6.782   5.291  0.3858 -0.1523  0.0882
17172TIP3    H173007   5.333   6.829   5.306  0.4569  0.5956 -1.8466
17172TIP3    H273008   5.400   6.695   5.327 -1.7324 -0.4456 -1.4738
17173TIP3   OH273009   2.645   3.936   0.461 -0.0882 -0.2127  0.4622
17173TIP3    H173010   2.635   3.942   0.366  1.2823 -1.2140  0.2379
17173TIP3    H273011   2.739   3.944   0.476  0.0018 -2.7874  1.5026
17174TIP3   OH273012   5.476   0.256  12.522 -0.6529 -0.0797  0.7303
17174TIP3    H173013   5.542   0.325  12.515 -0.4482 -0.3678 -0.1266
17174TIP3    H273014   5.507   0.186  12.465 -2.2970  0.2624 -0.6085
17175TIP3   OH273015   6.679   4.286   3.121  0.0632  0.4104  0.2043
17175TIP3    H173016   6.743   4.270   3.051 -0.1525  0.4271  0.0019
17175TIP3    H273017   6.645   4.374   3.102  1.2873  1.1421  1.3421
17176TIP3   OH273018   0.217   1.704   5.036  0.2114  0.1656  0.8449
17176TIP3    H173019   0.149   1.652   5.079 -1.0605  2.1777  1.3592
17176TIP3    H273020   0.233   1.776   5.096  0.2019  1.6624 -0.9063
17177TIP3   OH273021   3.285   2.401   4.590 -0.0550  0.4860  0.3681
17177TIP3    H173022   3.351   2.353   4.540  0.6123 -0.1741  1.8598
17177TIP3    H273023   3.243   2.335   4.645 -0.1013  1.3523  1.4077
17178TIP3   OH273024   6.036   6.096   2.458 -0.1224 -0.4668  0.3262
17178TIP3    H173025   5.996   6.153   2.392  0.9780  0.3453  0.3436
17178TIP3    H273026   6.129   6.119   2.456  0.0170 -0.8618  1.7475
17179TIP3   OH273027   4.341   3.064  13.320  0.4333  0.0293  0.0651
17179TIP3    H173028   4.354   3.102  13.233 -0.2849 -0.2761 -0.1736
17179TIP3    H273029   4.252   3.089  13.344  0.8016  0.5465  0.9285
17180TIP3   OH273030   6.282   6.360   0.928  0.6495 -0.0517  0.2276
17180TIP3    H173031   6.350   6.364   0.996  0.4604 -0.2803  0.4342
17180TIP3    H273032   6.214   6.420   0.958  0.7739  0.1987  0.0062
17181TIP3   OH273033   1.443   2.355   0.273 -0.1880  0.5722 -0.6599
17181TIP3    H173034   1.479   2.271   0.301  0.3422  0.9494 -0.2247
17181TIP3    H273035   1.363   2.365   0.325  0.3872  0.9074  0.1681
17182TIP3   OH273036   4.573   3.152  16.069  0.3378  0.4838  0.4870
17182TIP3    H173037   4.485   3.176  16.038  1.0746  1.0234 -1.2126
17182TIP3    H273038   4.590   3.212  16.141 -0.6978  0.3647  0.8408
17183TIP3   OH273039   3.898   6.628  14.501  0.2224  0.2745  0.2976
17183TIP3    H173040   3.833   6.561  14.480 -0.0143  0.5086  0.2805
17183TIP3    H273041   3.859   6.678  14.572  0.8357 -0.2439  1.0107
17184TIP3   OH273042   1.629   5.567   0.710 -0.3153  0.6317  0.2913
17184TIP3    H173043   1.547   5.606   0.681 -0.4027 -0.7324 -1.3726
17184TIP3    H273044   1.681   5.641   0.743 -1.8061  1.6370  0.4253
17185TIP3   OH273045   2.235   0.968   1.808 -0.1215 -0.1416 -0.0336
17185TIP3    H173046   2.302   0.949   1.743  0.0371  0.9174 -0.1846
17185TIP3    H273047   2.269   0.929   1.889  0.7292  0.4904 -0.0819
17186TIP3   OH273048   3.321   1.770  13.998  0.4175 -0.1901  0.3009
17186TIP3    H173049   3.329   1.865  13.989 -0.0496 -0.2419 -0.7880
17186TIP3    H273050   3.229   1.755  14.018  0.1877 -0.5031 -0.9571
17187TIP3   OH273051   5.375   5.877  12.807 -0.3263 -0.2770 -0.6555
17187TIP3    H173052   5.321   5.912  12.737 -1.2562  0.2387  0.2982
17187TIP3    H273053   5.436   5.948  12.828  0.1943 -0.5656 -1.1879
17188TIP3   OH273054   3.665   1.504   2.940  0.3115 -0.5717 -0.2555
17188TIP3    H173055   3.715   1.468   3.013 -3.4143 -0.0866  2.7133
17188TIP3    H273056   3.615   1.430   2.906  0.5143 -0.3644 -1.0226
17189TIP3   OH273057   0.972   1.880   4.249  0.0744 -0.2557  0.1658
17189TIP3    H173058   0.947   1.804   4.197  0.3486 -0.5897  0.5220
17189TIP3    H273059   0.932   1.864   4.335 -0.3307  0.2680  0.0785
17190TIP3   OH273060   0.670   1.023   0.105  0.3672  0.2151  0.4179
17190TIP3    H173061   0.624   1.022   0.021  0.0926  3.5622  0.4772
17190TIP3    H273062   0.762   1.040   0.082  0.7790 -1.6540  0.6293
17191TIP3   OH273063   3.627   0.501  12.605  0.0981 -0.5917 -0.2313
17191TIP3    H173064   3.613   0.467  12.693 -2.9104 -0.2167 -0.5215
17191TIP3    H273065   3.711   0.547  12.610  0.8022 -2.0540  1.9627
17192TIP3   OH273066   4.910   5.188  13.192  0.1580 -0.3516  0.0901
17192TIP3    H173067   4.997   5.154  13.214  0.5123 -0.7546 -1.8119
17192TIP3    H273068   4.857   5.109  13.179 -0.2577 -0.1181  0.3801
17193TIP3   OH273069   1.825   1.980   4.765  0.1574  0.5602 -0.7410
17193TIP3    H173070   1.751   2.007   4.710  1.1224  1.0884 -1.8137
17193TIP3    H273071   1.879   2.059   4.773  1.7807 -0.3801 -1.9060
17194TIP3   OH273072   4.685   0.790   2.722  0.0607 -0.3172 -0.5544
17194TIP3    H173073   4.634   0.779   2.802  0.7425  0.5607  0.0112
17194TIP3    H273074   4.621   0.808   2.654 -0.5991 -1.9215 -0.3831
17195TIP3   OH273075   4.902   3.298  10.558  0.0376 -0.1961 -0.6709
17195TIP3    H173076   4.820   3.257  10.585  0.1324 -0.1116 -0.2437
17195TIP3    H273077   4.891   3.391  10.582  0.3104 -0.2114 -0.4873
17196TIP3   OH273078   6.223   0.062  13.185 -0.3093 -0.2133 -0.1894
17196TIP3    H173079   6.134   0.041  13.157  0.0091  1.1893 -2.4002
17196TIP3    H273080   6.276  -0.010  13.151 -0.3265  0.0012 -0.6793
17197TIP3   OH273081   4.040   4.140  15.727  0.2831  0.0192 -0.3393
17197TIP3    H173082   4.053   4.234  15.735  2.1883 -0.1754 -1.0394
17197TIP3    H273083   4.126   4.102  15.744  0.6983 -1.3051 -4.9044
17198TIP3   OH273084   4.709   4.917  11.032  0.4301  0.0594  0.0763
17198TIP3    H173085   4.659   4.998  11.037  0.3227  0.0517 -0.8349
17198TIP3    H273086   4.756   4.922  10.948 -2.4823 -2.4576 -1.8304
17199TIP3   OH273087   2.921   0.912  13.314 -0.1399 -0.4903 -0.2605
17199TIP3    H173088   3.008   0.893  13.351 -0.1861  0.9006  0.5953
17199TIP3    H273089   2.869   0.834  13.336  0.3783 -0.5334  0.8764
17200TIP3   OH273090   4.629   5.425  14.550  0.1689  0.4839 -0.2353
17200TIP3    H173091   4.631   5.359  14.619 -0.1176 -0.6134 -1.2624
17200TIP3    H273092   4.715   5.418  14.508 -0.2247  0.0820 -0.9772
17201TIP3   OH273093   5.742   6.571   5.138 -0.2579  0.0054 -0.6107
17201TIP3    H173094   5.828   6.534   5.155  0.2185  0.3922 -2.1561
17201TIP3    H273095   5.686   6.534   5.207  0.9668 -0.8321 -0.0578
17202TIP3   OH273096   4.966   0.943  15.587  0.8072  0.1721 -0.1273
17202TIP3    H173097   4.964   0.933  15.682 -0.6723 -1.6146 -0.3040
17202TIP3    H273098   4.995   1.033  15.572 -0.1734  0.8703  2.0294
17203TIP3   OH273099   0.411   1.191  14.913  0.2667  0.0430  0.6422
17203TIP3    H173100   0.439   1.127  14.979 -0.1860  0.9194  1.7100
17203TIP3    H273101   0.341   1.147  14.865 -0.5547  0.0086  1.8620
17204TIP3   OH273102   4.277   2.705   2.880  0.1837 -0.4742 -0.1918
17204TIP3    H173103   4.222   2.660   2.816 -1.2605 -0.8322  1.2770
17204TIP3    H273104   4.365   2.696   2.846 -0.4344 -1.7038 -1.5248
17205TIP3   OH273105   1.696   0.152  10.669  0.2882 -0.1064 -0.2453
17205TIP3    H173106   1.703   0.183  10.759  1.2180  0.4482 -0.4964
17205TIP3    H273107   1.647   0.070  10.674  2.1988 -1.2070  1.0028
17206TIP3   OH273108   2.813   3.061   5.164  0.1123 -0.2446 -0.2376
17206TIP3    H173109   2.730   3.094   5.199  1.3364  1.5864  1.0357
17206TIP3    H273110   2.789   2.982   5.115 -2.0010 -1.3309  2.4293
17207TIP3   OH273111   0.075   4.400  10.768  0.8030 -0.5637 -0.0771
17207TIP3    H173112   0.152   4.450  10.741  0.2446 -0.0276 -0.7198
17207TIP3    H273113   0.095   4.370  10.856  1.9616 -0.8732 -0.4375
17208TIP3   OH273114   3.931   0.320  14.743 -0.3658 -0.0433 -0.5978
17208TIP3    H173115   3.964   0.403  14.777 -0.5311 -0.1878 -0.0757
17208TIP3    H273116   4.000   0.257  14.763  0.6707  0.3235 -2.8020
17209TIP3   OH273117   0.390   2.131   2.264 -0.1211 -0.1674  0.2765
17209TIP3    H173118   0.354   2.071   2.199 -1.0918  1.1688 -0.4709
17209TIP3    H273119   0.339   2.115   2.343 -0.4977 -0.2224  0.0265
17210TIP3   OH273120   6.183   0.806   5.284  0.0814 -0.5511  0.0255
17210TIP3    H173121   6.180   0.824   5.190 -1.2942 -0.3756  0.1006
17210TIP3    H273122   6.125   0.731   5.295 -2.3042  1.4057  1.1798
17211TIP3   OH273123   5.038   5.174  14.011  0.9600 -0.1217  0.2112
17211TIP3    H173124   5.112   5.228  14.040  0.3532  0.2923  0.9965
17211TIP3    H273125   5.005   5.219  13.933  0.3176  0.7722  0.9888
17212TIP3   OH273126   1.927   6.022   4.937  0.1324 -0.7348 -0.3133
17212TIP3    H173127   1.924   6.085   5.009 -1.5491  1.3217 -2.1153
17212TIP3    H273128   2.014   6.034   4.899  0.6345 -1.0835  0.7184
17213TIP3   OH273129   1.801   5.054  14.246  0.0914 -0.3709 -0.5346
17213TIP3    H173130   1.861   5.111  14.294 -2.3582  0.2082  1.9282
17213TIP3    H273131   1.746   5.114  14.196  0.9527 -0.8609 -2.0985
17214TIP3   OH273132   3.052   2.430  16.621 -0.4000 -0.0915  0.5617
17214TIP3    H173133   3.041   2.436  16.526  1.8893 -1.2959  0.1758
17214TIP3    H273134   3.081   2.340  16.635 -0.8963  0.0329  2.4240
17215TIP3   OH273135   6.576   4.421   6.055 -0.1464 -0.0328 -0.2951
17215TIP3    H173136   6.521   4.490   6.093  3.0833  1.7812  1.3194
17215TIP3    H273137   6.558   4.344   6.109 -0.4864  0.7568  0.7441
17216TIP3   OH273138   5.190   6.292  15.710  0.2553  0.5445 -0.2534
17216TIP3    H173139   5.108   6.306  15.662  0.2471  2.0376  0.1454
17216TIP3    H273140   5.249   6.253  15.646 -0.6854 -0.2721 -0.6231
17217TIP3   OH273141   5.046   2.512   3.598 -0.2489 -0.3927  0.2108
17217TIP3    H173142   4.968   2.559   3.627 -0.5233  0.5793 -1.9974
17217TIP3    H273143   5.116   2.578   3.603  0.1792 -0.8977  0.9342
17218TIP3   OH273144   1.962   5.363   5.553 -0.0230  0.4484  0.5840
17218TIP3    H173145   2.040   5.418   5.551  0.7788 -0.6677  0.8867
17218TIP3    H273146   1.938   5.357   5.645  1.3047 -1.6508  0.8276
17219TIP3   OH273147   5.275   1.348   3.484  0.2104  0.0006  0.4554
17219TIP3    H173148   5.225   1.392   3.553  0.3017  0.3686  0.2852
17219TIP3    H273149   5.364   1.381   3.494 -0.3852  2.4330 -1.8145
17220TIP3   OH273150   1.574   2.887   4.926 -0.1976 -0.1493  0.3962
17220TIP3    H173151   1.532   2.913   5.008 -3.1500  0.7128 -1.3366
17220TIP3    H273152   1.654   2.841   4.954 -1.3262 -0.2103  3.7508
17221TIP3   OH273153   2.235   1.037  11.743  0.1417 -0.2008 -0.0896
17221TIP3    H173154   2.265   0.999  11.826  0.1648 -0.3027 -0.1439
17221TIP3    H273155   2.309   1.025  11.683 -0.5234 -1.7379 -0.6257
17222TIP3   OH273156   6.211   5.772   2.867  0.4190  0.1532 -0.0220
17222TIP3    H173157   6.287   5.820   2.900  0.5250  0.2668 -0.4317
17222TIP3    H273158   6.153   5.764   2.942  1.0106 -0.2780  0.3921
17223TIP3   OH273159   4.127   3.025  13.085  0.1158  0.1452  0.2437
17223TIP3    H173160   4.093   2.950  13.134  0.5679  0.1559  0.5689
17223TIP3    H273161   4.150   2.989  13.000 -1.1967  0.2346 -0.1690
17224TIP3   OH273162   0.548   4.016  14.592 -0.1877  0.6979  0.2809
17224TIP3    H173163   0.533   4.045  14.682  2.2977  1.2892  0.5399
17224TIP3    H273164   0.614   4.077  14.558  1.4744 -1.6389 -0.7979
17225TIP3   OH273165   0.479   3.739  11.392 -0.2181  0.1488  0.5050
17225TIP3    H173166   0.520   3.810  11.344 -0.2911 -0.4790 -0.4955
17225TIP3    H273167   0.547   3.707  11.451  0.6333 -0.6382 -0.8808
17226TIP3   OH273168   3.680   2.806   5.081 -0.2092  0.7632  0.3961
17226TIP3    H173169   3.690   2.761   5.164 -0.7498 -4.2274 -2.0439
17226TIP3    H273170   3.600   2.857   5.090 -1.9485 -2.1229  2.0064
17227TIP3   OH273171   6.261   3.687  16.155 -0.0423 -0.5525 -0.4799
17227TIP3    H173172   6.293   3.642  16.078 -0.5139 -1.5006 -0.1270
17227TIP3    H273173   6.190   3.632  16.188  2.2679 -1.8375  2.5041
17228TIP3   OH273174   4.491   2.189  16.391  0.1775  0.1309  0.1343
17228TIP3    H173175   4.532   2.147  16.467  0.4613  0.2170  0.0284
17228TIP3    H273176   4.486   2.120  16.325  0.6575  0.2691 -0.0471
17229TIP3   OH273177   5.121   4.922   0.126  0.2742  0.4318 -0.4727
17229TIP3    H173178   5.105   5.015   0.116  0.0738  0.7153  2.1920
17229TIP3    H273179   5.054   4.892   0.187  0.3835 -1.4475 -1.2251
17230TIP3   OH273180   5.778   0.795  12.217  0.4854  0.2669 -0.0702
17230TIP3    H173181   5.868   0.824  12.230  0.7475 -0.7842  0.5585
17230TIP3    H273182   5.767   0.793  12.122  0.9595  0.8914 -0.1419
17231TIP3   OH273183   0.995   1.344  11.801 -0.2331 -0.5126  0.3280
17231TIP3    H173184   1.089   1.342  11.789 -0.3550 -0.4822 -0.6553
17231TIP3    H273185   0.979   1.419  11.859  0.1672  0.7529 -1.1610
17232TIP3   OH273186   0.372   5.287   3.754 -0.8220 -0.0473 -0.1306
17232TIP3    H173187   0.400   5.330   3.673 -0.8582  2.1120  0.9637
17232TIP3    H273188   0.280   5.314   3.764 -0.2142  1.4178  1.6990
17233TIP3   OH273189   4.347   5.207  12.745 -0.3450  0.1076 -0.0157
17233TIP3    H173190   4.319   5.124  12.707 -1.5076 -0.9586  2.9688
17233TIP3    H273191   4.363   5.187  12.837 -1.8638  3.4636  1.0715
17234TIP3   OH273192   6.504   4.837   4.731  0.2630  0.4851 -0.0489
17234TIP3    H173193   6.469   4.908   4.678  1.2570  0.9895 -0.0405
17234TIP3    H273194   6.467   4.851   4.818 -1.6311 -0.5352 -0.6841
17235TIP3   OH273195   5.190   2.962  14.405  0.4292 -0.4436  0.5160
17235TIP3    H173196   5.131   3.015  14.352  0.6044  0.0926  0.8605
17235TIP3    H273197   5.261   2.937  14.346  0.5634  0.0542  0.4619
17236TIP3   OH273198   1.662   5.501   3.848  0.0832  0.1088 -0.5165
17236TIP3    H173199   1.755   5.493   3.824  0.0628 -1.1006 -0.2168
17236TIP3    H273200   1.625   5.558   3.781  0.6033 -1.0610 -1.8191
17237TIP3   OH273201   5.218   5.237  11.751 -0.5141  0.1285 -0.1280
17237TIP3    H173202   5.247   5.159  11.704 -1.5435  0.6728 -1.7414
17237TIP3    H273203   5.296   5.268  11.796  0.0342 -1.5316  0.1052
17238TIP3   OH273204   3.673   0.039  11.934  0.4643  0.2261  0.4869
17238TIP3    H173205   3.585   0.010  11.910  1.2763 -0.1814 -2.2361
17238TIP3    H273206   3.699  -0.018  12.006  0.0794 -2.4999 -1.4457
17239TIP3   OH273207   3.041   0.185   0.543 -0.3570  0.0934 -0.4683
17239TIP3    H173208   3.101   0.110   0.542 -1.9524 -1.2262 -0.4845
17239TIP3    H273209   3.004   0.186   0.455 -1.8343 -0.3758  0.1176
17240TIP3   OH273210   2.000   2.711  13.995  0.0943  0.1766 -0.0164
17240TIP3    H173211   1.948   2.688  13.918  0.8901 -1.3543 -0.1076
17240TIP3    H273212   2.078   2.656  13.989 -0.0999 -0.3939  2.1715
17241TIP3   OH273213   4.631   4.311  15.451  0.2162 -0.0181 -0.4776
17241TIP3    H173214   4.640   4.217  15.464 -3.0773 -0.1960  1.0656
17241TIP3    H273215   4.626   4.322  15.356 -0.5123 -1.5317 -0.6258
17242TIP3   OH273216   6.032   5.802   1.424  0.1818  0.0920 -0.0064
17242TIP3    H173217   6.075   5.757   1.496 -0.0353  1.3840  0.9492
17242TIP3    H273218   6.057   5.894   1.434 -2.3320  0.7962  0.2676
17243TIP3   OH273219   1.909   0.345  11.772 -0.5413 -0.2016  0.6978
17243TIP3    H173220   1.938   0.393  11.694 -0.8447  1.2667  1.4673
17243TIP3    H273221   1.987   0.297  11.800 -0.9202 -2.1838 -1.5386
17244TIP3   OH273222   0.680   2.200  16.388 -0.4238  0.3987  0.1885
17244TIP3    H173223   0.655   2.129  16.447 -0.3502 -0.3369 -0.6515
17244TIP3    H273224   0.704   2.272  16.446  1.3372 -0.8918  1.1060
17245TIP3   OH273225   2.086   2.044  16.388 -0.3508  0.2124  0.5220
17245TIP3    H173226   2.117   1.961  16.351  0.6033  0.8679 -0.1779
17245TIP3    H273227   2.067   2.023  16.480 -0.3442 -0.8331  0.2921
17246TIP3   OH273228   4.915   1.682  11.916 -0.3827 -0.3052 -0.5479
17246TIP3    H173229   4.945   1.598  11.882 -0.2651 -0.6814  0.4813
17246TIP3    H273230   4.906   1.669  12.010  0.3440  1.0498 -0.2694
17247TIP3   OH273231   6.301   4.036  14.127  0.4435 -0.5917 -0.5314
17247TIP3    H173232   6.285   4.116  14.176  0.6370 -1.5461  1.1137
17247TIP3    H273233   6.345   4.065  14.047  0.3427  0.9463 -0.0385
17248TIP3   OH273234   0.123   1.860   2.968 -0.0201 -0.5772 -0.4203
17248TIP3    H173235   0.190   1.927   2.951  3.2555 -3.5442  0.4496
17248TIP3    H273236   0.082   1.888   3.050  1.3067  0.3560 -0.0545
17249TIP3   OH273237   1.267   1.021  15.924 -0.7998 -0.5140  0.3629
17249TIP3    H173238   1.362   1.011  15.917 -0.5443  0.9530  1.6860
17249TIP3    H273239   1.254   1.099  15.978 -2.7627 -1.0794  0.7551
17250TIP3   OH273240   3.272   0.579   3.476 -0.6687 -0.3572 -1.0921
17250TIP3    H173241   3.267   0.662   3.524 -0.7941 -1.1206  0.2443
17250TIP3    H273242   3.317   0.601   3.395 -2.1278  1.3456 -1.4830
17251TIP3   OH273243   0.024   4.960  15.265 -0.4373  0.4350 -0.4835
17251TIP3    H173244  -0.025   4.922  15.192 -0.2655  0.8445 -0.8168
17251TIP3    H273245  -0.022   4.930  15.343 -0.2553 -0.5139 -0.7422
17252TIP3   OH273246   6.024   0.490  11.516 -0.8498 -0.4937 -0.0786
17252TIP3    H173247   6.051   0.399  11.501  0.4403 -0.3945  1.4506
17252TIP3    H273248   5.970   0.487  11.595 -0.4403  0.1100  0.2340
17253TIP3   OH273249   0.472   6.793  12.217  0.3010 -0.1684 -0.2244
17253TIP3    H173250   0.440   6.703  12.216  0.1705 -0.1147 -0.8853
17253TIP3    H273251   0.562   6.788  12.184  0.3697 -0.0877 -0.0507
17254TIP3   OH273252   0.080   0.546  14.402  0.1586  0.4829 -0.4012
17254TIP3    H173253   0.039   0.499  14.475 -0.6087  3.0789  0.8990
17254TIP3    H273254   0.006   0.584  14.353  0.8224  1.7186 -0.4592
17255TIP3   OH273255   2.112   1.979  14.078  0.2269 -0.1484  0.4508
17255TIP3    H173256   2.128   1.992  14.171  1.1233  0.3706  0.2268
17255TIP3    H273257   2.183   1.923  14.048  0.9193  1.0928 -0.2712
17256TIP3   OH273258   6.805   2.018   1.977  0.1731  0.1676  0.0683
17256TIP3    H173259   6.843   1.970   1.903 -0.2359  2.0341 -1.3816
17256TIP3    H273260   6.722   1.975   1.994  1.6598 -2.2569  1.5220
17257TIP3   OH273261   5.988   3.915  15.512  0.1668 -0.0533 -0.5821
17257TIP3    H173262   5.894   3.907  15.525 -0.0538  0.8895 -1.5064
17257TIP3    H273263   6.024   3.925  15.600 -0.6494  0.0977 -0.2672
17258TIP3   OH273264   3.004   3.167   1.942  0.3113  0.0988  0.3246
17258TIP3    H173265   2.940   3.165   1.871 -0.3041  0.4979  0.8686
17258TIP3    H273266   2.964   3.116   2.012  2.1064 -2.7063 -0.5976
17259TIP3   OH273267   3.839   2.237  14.952 -0.6214  0.2298  0.1381
17259TIP3    H173268   3.778   2.300  14.990  0.4896  0.3819  1.7158
17259TIP3    H273269   3.916   2.288  14.928 -0.8135 -0.0800 -1.1718
17260TIP3   OH273270   3.296   4.223  12.054 -0.5631  0.2936 -0.0483
17260TIP3    H173271   3.307   4.319  12.054  0.0195  0.2413 -1.2395
17260TIP3    H273272   3.371   4.191  12.104 -0.4047  0.4324 -0.1943
17261TIP3   OH273273   2.663   5.007  13.194  0.2565 -0.3859  0.3258
17261TIP3    H173274   2.712   5.026  13.274  0.5253 -0.1409  0.1046
17261TIP3    H273275   2.614   5.088  13.177 -1.2000 -1.0549  1.2368
17262TIP3   OH273276   4.669   3.783   0.089  0.1974  0.0740  0.5023
17262TIP3    H173277   4.601   3.719   0.110 -0.7386  0.3331 -1.6612
17262TIP3    H273278   4.746   3.731   0.067 -0.7447 -0.3623 -1.8784
17263TIP3   OH273279   4.646   1.146  15.662  0.2923 -0.1005  0.1472
17263TIP3    H173280   4.659   1.054  15.637  0.2139 -0.3451  0.9833
17263TIP3    H273281   4.654   1.194  15.580  0.7657 -0.8155 -0.2385
17264TIP3   OH273282   1.878   0.499  13.485  0.3958  0.6020 -0.3318
17264TIP3    H173283   1.877   0.581  13.434  0.3985  0.3114 -0.8047
17264TIP3    H273284   1.788   0.467  13.480  0.3977  0.5716 -0.1552
17265TIP3   OH273285   0.722   5.220  14.515  0.2894  0.2312 -0.0576
17265TIP3    H173286   0.691   5.211  14.425 -1.3972  0.2843  0.5094
17265TIP3    H273287   0.652   5.183  14.569  1.4775 -0.2098  1.2180
17266TIP3   OH273288   5.991   5.460   1.595  0.3912  0.1967 -0.4880
17266TIP3    H173289   5.942   5.386   1.560 -0.0827  0.4657 -0.4010
17266TIP3    H273290   6.020   5.431   1.681 -1.6101  0.8625  0.4513
17267TIP3   OH273291   3.997   3.685  15.228 -0.0400 -0.0304 -0.1690
17267TIP3    H173292   4.008   3.633  15.148 -0.3120 -0.9475  0.3927
17267TIP3    H273293   4.024   3.627  15.299 -0.2936  0.6112  0.4619
17268TIP3   OH273294   3.813   4.346  11.464 -0.4944 -0.4459  0.2506
17268TIP3    H173295   3.808   4.441  11.471 -1.8351 -0.3717 -1.5383
17268TIP3    H273296   3.769   4.314  11.543 -1.7289  0.4275 -0.0650
17269TIP3   OH273297   5.548   3.127   2.137  0.2118 -0.1163 -0.2244
17269TIP3    H173298   5.477   3.175   2.094 -2.2241 -1.5168  2.0745
17269TIP3    H273299   5.551   3.043   2.092 -0.7918 -0.7136  0.8003
17270TIP3   OH273300   4.305   2.054   4.704  0.2154 -0.4006 -0.0762
17270TIP3    H173301   4.387   2.009   4.724  0.5201 -0.2132 -0.9008
17270TIP3    H273302   4.319   2.094   4.618 -0.4658  0.2721  0.1129
17271TIP3   OH273303   5.088   4.398   3.577 -0.1898  0.1445  0.1152
17271TIP3    H173304   5.103   4.324   3.518 -1.4265  0.8493 -1.1251
17271TIP3    H273305   5.163   4.456   3.562  1.0470 -1.0711  1.4651
17272TIP3   OH273306   5.425   3.568   0.175  0.6393 -0.3346 -0.4339
17272TIP3    H173307   5.520   3.555   0.169  0.6224 -0.2008 -1.0818
17272TIP3    H273308   5.388   3.502   0.116  0.3472 -0.1698 -0.4393
17273TIP3   OH273309   6.031   3.296  15.946 -0.1389 -0.2872  0.1669
17273TIP3    H173310   6.080   3.226  15.903  2.9496  0.9192  1.5438
17273TIP3    H273311   5.999   3.257  16.028 -0.7369 -0.8266 -0.3192
17274TIP3   OH273312   0.056   6.378   4.337 -0.3665 -0.2846 -0.0788
17274TIP3    H173313   0.035   6.469   4.317  0.2397 -0.2762 -0.7079
17274TIP3    H273314  -0.029   6.333   4.339 -0.5146 -0.1539 -2.0428
17275TIP3   OH273315   2.249   6.720  15.724  0.2808  0.3339 -0.7647
17275TIP3    H173316   2.280   6.701  15.813  0.5952 -0.9287 -1.1285
17275TIP3    H273317   2.159   6.686  15.722  0.1688  0.6287 -0.8476
17276TIP3   OH273318   2.626   4.613  14.722  0.1261  0.3675 -0.1287
17276TIP3    H173319   2.627   4.652  14.809  1.0775  2.1968 -0.9100
17276TIP3    H273320   2.550   4.555  14.721  0.9757 -0.8371  2.4019
17277TIP3   OH273321   4.412   2.468  15.899 -0.4706  0.7087 -0.6358
17277TIP3    H173322   4.436   2.544  15.952  1.0493 -0.6749  0.7055
17277TIP3    H273323   4.496   2.427  15.877 -1.2953 -0.7820 -1.0474
17278TIP3   OH273324   5.164   3.461   3.560  0.3853  0.1332  0.3185
17278TIP3    H173325   5.187   3.446   3.468 -0.4220  0.1152  0.1179
17278TIP3    H273326   5.110   3.387   3.584  0.0032  0.5040  0.6041
17279TIP3   OH273327   0.123   4.480   2.856 -0.5641 -0.5674  0.5739
17279TIP3    H173328   0.034   4.512   2.846  0.0034  1.6305  2.3809
17279TIP3    H273329   0.178   4.546   2.813  0.3564 -0.8697  1.2632
17280TIP3   OH273330   5.465   6.404  13.919  0.6020 -0.1720 -0.4854
17280TIP3    H173331   5.554   6.375  13.942  0.6448  0.6837  0.5176
17280TIP3    H273332   5.423   6.418  14.004  0.3144  1.8187 -0.9380
17281TIP3   OH273333   0.596   1.301   0.648 -0.3223 -0.1486 -0.0898
17281TIP3    H173334   0.669   1.247   0.677  0.8346  1.1423 -0.5417
17281TIP3    H273335   0.591   1.371   0.713 -0.5482  0.2936 -0.5809
17282TIP3   OH273336   3.010   0.590  15.403  0.0766  0.0196 -0.1290
17282TIP3    H173337   3.091   0.636  15.382 -0.1348  0.0813 -0.8480
17282TIP3    H273338   2.970   0.572  15.317 -0.7869  0.2185  0.2231
17283TIP3   OH273339   3.118   0.049   5.035 -0.0383  0.3658  0.6891
17283TIP3    H173340   3.179  -0.025   5.044  1.0834  1.0583 -0.9911
17283TIP3    H273341   3.036   0.008   5.008  0.9421 -0.1864 -1.5898
17284TIP3   OH273342   1.102   0.749  11.952 -0.3668  0.2302 -0.0723
17284TIP3    H173343   1.141   0.715  12.032  0.8960  2.3539  0.2669
17284TIP3    H273344   1.025   0.799  11.981  0.4452  1.5241 -0.0797
17285TIP3   OH273345   0.914   4.658  15.804 -0.3965  0.3331  0.0106
17285TIP3    H173346   0.989   4.672  15.861 -0.5127  1.8805 -0.1904
17285TIP3    H273347   0.866   4.585  15.844  0.3971  0.3258  0.9661
17286TIP3   OH273348   5.337   2.053   3.305  0.2307 -0.1562 -0.0951
17286TIP3    H173349   5.328   1.987   3.374 -1.3308 -1.0690 -1.1240
17286TIP3    H273350   5.278   2.023   3.236  1.3919  1.0078 -1.6239
17287TIP3   OH273351   4.370   4.715   0.470 -0.1631 -0.3113  0.5866
17287TIP3    H173352   4.388   4.803   0.439  0.6698 -0.3160  1.0431
17287TIP3    H273353   4.314   4.728   0.547 -1.6992 -0.2748 -0.5252
17288TIP3   OH273354   1.527   5.588   3.618 -0.0589 -0.4383 -0.2685
17288TIP3    H173355   1.569   5.508   3.584 -1.1131 -0.1387 -2.3965
17288TIP3    H273356   1.502   5.636   3.539  1.4873  2.5282  0.9598
17289TIP3   OH273357   6.223   5.643  12.335 -0.2215 -0.0036 -0.0425
17289TIP3    H173358   6.222   5.568  12.394  1.3136  1.3133  1.7050
17289TIP3    H273359   6.162   5.706  12.374 -0.0575  0.4229 -0.4602
17290TIP3   OH273360   6.730   5.960   3.551 -0.2505  0.4809  0.8234
17290TIP3    H173361   6.659   5.933   3.493  0.0703  1.8815 -0.2375
17290TIP3    H273362   6.724   5.900   3.626 -1.8013 -0.1681  0.1927
17291TIP3   OH273363   5.375   0.212  12.771 -0.4825 -0.2419  0.3976
17291TIP3    H173364   5.410   0.247  12.690 -2.3708  0.6857 -0.0498
17291TIP3    H273365   5.367   0.117  12.756  0.0441 -0.1975 -0.1470
17292TIP3   OH273366   5.507   6.734  11.772 -0.4005  0.6105 -0.1103
17292TIP3    H173367   5.523   6.823  11.804  0.3830  0.3776  0.1510
17292TIP3    H273368   5.530   6.738  11.679  0.2603  0.5196  0.0477
17293TIP3   OH273369   5.357   3.924   4.056  0.1259  0.0249 -0.2576
17293TIP3    H173370   5.301   3.873   4.115  1.1190 -0.8461 -0.0599
17293TIP3    H273371   5.310   3.924   3.973  0.9439 -2.7972 -0.7905
17294TIP3   OH273372   2.641   4.870   1.954 -0.1871  0.1233 -0.0008
17294TIP3    H173373   2.686   4.879   1.870  1.0957  1.7778  0.8278
17294TIP3    H273374   2.574   4.938   1.953 -0.7061 -0.3874 -0.0138
17295TIP3   OH273375   3.426   0.944   1.162 -0.0387 -0.4255 -0.5740
17295TIP3    H173376   3.381   1.020   1.125 -1.5211 -0.7253  0.5807
17295TIP3    H273377   3.412   0.875   1.097 -3.2384 -1.1453  0.7977
17296TIP3   OH273378   3.238   2.765  10.795 -0.1422  0.3694 -0.2983
17296TIP3    H173379   3.270   2.680  10.825  0.5243  0.5263 -0.5473
17296TIP3    H273380   3.195   2.803  10.872  0.7527  0.3784  0.2053
17297TIP3   OH273381   6.580   3.872  17.018  0.6221 -0.2803 -0.1615
17297TIP3    H173382   6.656   3.832  17.060  2.8370  3.5251 -0.2454
17297TIP3    H273383   6.610   3.891  16.929 -1.9000 -2.5149 -1.5424
17298TIP3   OH273384   3.117   6.661   3.748 -0.2291  0.6633  0.1509
17298TIP3    H173385   3.169   6.676   3.827  0.0049  0.6600  0.0005
17298TIP3    H273386   3.076   6.746   3.729 -0.6257  0.5524  0.5148
17299TIP3   OH273387   0.344   1.515  16.033 -0.0716 -0.3866 -0.3117
17299TIP3    H173388   0.378   1.511  15.943 -0.6084 -0.9292 -0.4967
17299TIP3    H273389   0.396   1.584  16.075  1.6957 -1.6242 -0.4103
17300TIP3   OH273390   1.916   6.325  15.833 -0.3951  0.1886  0.5611
17300TIP3    H173391   1.925   6.362  15.746  0.6538  1.4604  1.1968
17300TIP3    H273392   1.868   6.243  15.819 -0.0940  0.2900 -1.2135
17301TIP3   OH273393   3.398   6.596  13.776 -0.1566 -0.1131  0.0727
17301TIP3    H173394   3.372   6.504  13.768  0.7128 -0.2477 -1.3712
17301TIP3    H273395   3.422   6.622  13.687 -0.3083  1.4903  0.4872
17302TIP3   OH273396   6.024   1.624   5.916 -0.8168 -0.1692 -0.4152
17302TIP3    H173397   6.061   1.712   5.913  3.1841 -1.6817  1.1453
17302TIP3    H273398   6.016   1.598   5.824  0.4237  0.8726 -0.8224
17303TIP3   OH273399   3.359   5.783  12.710  0.0651 -0.0985 -0.1554
17303TIP3    H173400   3.284   5.748  12.662 -0.5392 -1.1245  1.4915
17303TIP3    H273401   3.423   5.711  12.709  0.5025  0.2894 -0.3958
17304TIP3   OH273402   5.273   3.634  12.263 -0.5732 -0.7651  0.3705
17304TIP3    H173403   5.297   3.674  12.180 -1.4406 -1.9670 -0.4753
17304TIP3    H273404   5.268   3.707  12.324  2.6271 -0.1815 -0.0087
17305TIP3   OH273405   6.811   1.572  12.589  0.4129  0.4892 -1.2968
17305TIP3    H173406   6.720   1.551  12.609  1.2075  0.4792  2.6688
17305TIP3    H273407   6.857   1.488  12.593  1.0565  0.8704 -0.3251
17306TIP3   OH273408   6.435   2.078  10.708 -0.4302 -0.6420 -0.1588
17306TIP3    H173409   6.395   1.991  10.701  1.7286 -1.8737  1.8014
17306TIP3    H273410   6.393   2.130  10.640 -2.1213 -3.0983 -1.0531
17307TIP3   OH273411   4.731   5.224  14.008 -0.3608  0.5439 -0.2803
17307TIP3    H173412   4.675   5.227  14.086  1.7906 -0.1905  1.3339
17307TIP3    H273413   4.770   5.137  14.010  2.8511  1.9273  0.1078
17308TIP3   OH273414   4.393   4.519   4.898 -0.2032 -0.1593 -0.1507
17308TIP3    H173415   4.343   4.471   4.964 -0.1538  1.7410  1.3273
17308TIP3    H273416   4.484   4.512   4.928  0.2900 -2.2257 -1.9497
17309TIP3   OH273417   6.255   4.556  16.049 -0.3087 -0.0014  0.6288
17309TIP3    H173418   6.284   4.643  16.078 -1.9788  0.4292  1.0643
17309TIP3    H273419   6.314   4.495  16.095  0.8725  0.8856  0.3207
17310TIP3   OH273420   6.141   4.453   4.800  0.7285 -0.4702  0.4654
17310TIP3    H173421   6.132   4.535   4.848  0.3589 -0.1045 -0.2209
17310TIP3    H273422   6.151   4.480   4.709 -0.9358 -1.2312  0.0387
17311TIP3   OH273423   1.529   2.915  15.318 -0.1446  0.0641 -0.5885
17311TIP3    H173424   1.595   2.847  15.305 -0.5008 -0.4347  0.2015
17311TIP3    H273425   1.521   2.957  15.232  2.1435  0.9852 -0.3759
17312TIP3   OH273426   1.727   0.132  16.020  0.2826  0.3911 -0.5372
17312TIP3    H173427   1.735   0.158  16.112  0.5656 -1.2298 -0.0831
17312TIP3    H273428   1.648   0.078  16.018  0.5982 -0.0409 -1.1470
17313TIP3   OH273429   4.608   6.164  16.864 -0.0325 -0.4132 -0.2570
17313TIP3    H173430   4.637   6.238  16.917  1.3899 -0.4593 -0.9343
17313TIP3    H273431   4.628   6.087  16.917  0.7711 -0.4267 -0.5739
17314TIP3   OH273432   4.630   5.635  11.725 -0.0050 -0.0345  0.4735
17314TIP3    H173433   4.570   5.589  11.785 -0.8024 -0.0935 -0.3632
17314TIP3    H273434   4.573   5.693  11.675  0.2715 -1.8567 -2.0385
17315TIP3   OH273435   4.062   5.391   2.955 -0.3982  0.3723  0.1342
17315TIP3    H173436   4.157   5.395   2.937 -0.0295  1.5132  2.2332
17315TIP3    H273437   4.022   5.429   2.876  0.8316 -0.9470 -1.1644
17316TIP3   OH273438   2.295   0.918   3.666  0.0244 -0.1588  0.4409
17316TIP3    H173439   2.274   0.956   3.580  1.3526 -1.0043 -0.2591
17316TIP3    H273440   2.233   0.961   3.726  0.3398  1.8404 -0.6115
17317TIP3   OH273441   1.351   3.881   6.675  0.4591  0.0424 -0.8982
17317TIP3    H173442   1.310   3.805   6.634 -1.5511  0.5303  0.1703
17317TIP3    H273443   1.436   3.848   6.706 -0.6044 -1.9187  0.0024
17318TIP3   OH273444   5.945   0.141   2.421 -0.5101 -0.0183  0.7824
17318TIP3    H173445   6.017   0.152   2.483  0.1981 -0.3124  0.0223
17318TIP3    H273446   5.985   0.155   2.335 -1.3785 -0.0905  0.3607
17319TIP3   OH273447   4.346   3.817   5.814  0.2717 -0.0351  0.0067
17319TIP3    H173448   4.344   3.742   5.755  0.6639  1.0356 -1.3977
17319TIP3    H273449   4.423   3.802   5.869 -0.1551 -1.0877  0.3363
17320TIP3   OH273450   0.004   1.300   3.632  0.3140  0.2737  0.4184
17320TIP3    H173451   0.002   1.206   3.653 -1.4881 -0.0948 -1.2812
17320TIP3    H273452   0.087   1.330   3.669 -0.7928 -1.1579  4.3297
17321TIP3   OH273453   1.642   1.188  15.375  0.2773 -0.2328 -0.1489
17321TIP3    H173454   1.581   1.239  15.428 -0.7384 -1.6191  0.0650
17321TIP3    H273455   1.623   1.213  15.285  1.6838  1.7845  0.0943
17322TIP3   OH273456   2.286   0.449   4.789  0.0944  0.0560 -0.1656
17322TIP3    H173457   2.352   0.397   4.835  0.4820  0.4871 -0.2324
17322TIP3    H273458   2.207   0.440   4.843  0.4170  0.1708  0.3291
17323TIP3   OH273459   4.771   6.319  16.573  0.1337 -0.3562  0.2745
17323TIP3    H173460   4.724   6.238  16.554  0.7581 -0.9491  1.1716
17323TIP3    H273461   4.847   6.291  16.625 -1.0489  1.0679  2.8465
17324TIP3   OH273462   4.114   0.474   5.375 -0.0750  0.9119 -0.2278
17324TIP3    H173463   4.169   0.405   5.339 -0.7484  0.9006 -1.2368
17324TIP3    H273464   4.175   0.532   5.421  0.6345  0.2942 -0.3846
17325TIP3   OH273465   4.057   5.930   2.144  0.5602  0.1308  0.9485
17325TIP3    H173466   4.050   5.892   2.231  1.1625 -0.8287  0.5899
17325TIP3    H273467   4.143   5.901   2.112 -0.0760 -0.3816 -0.3398
17326TIP3   OH273468   3.528   5.371  13.266  0.1252  0.2206 -0.2665
17326TIP3    H173469   3.444   5.413  13.285  0.4866  0.2555  1.3035
17326TIP3    H273470   3.588   5.444  13.251  0.4223  0.2574  1.0330
17327TIP3   OH273471   5.386   4.433   4.632  0.4157 -0.2728  0.8105
17327TIP3    H173472   5.371   4.342   4.658  0.6021 -0.8222 -0.8930
17327TIP3    H273473   5.341   4.485   4.698 -1.4108 -1.6484  0.6900
17328TIP3   OH273474   3.160   4.566  12.927  0.0715 -0.1696 -0.0051
17328TIP3    H173475   3.161   4.649  12.975  1.0462 -0.2685  0.1534
17328TIP3    H273476   3.164   4.592  12.835 -0.8521 -0.0054  0.0007
17329TIP3   OH273477   0.154   0.164   2.190  0.5922  0.3788 -0.7447
17329TIP3    H173478   0.180   0.237   2.247 -0.8353  0.6777 -0.4475
17329TIP3    H273479   0.068   0.138   2.223  1.9060 -2.7324  0.3976
17330TIP3   OH273480   4.500   4.669  11.939 -0.4865 -0.2978  0.2795
17330TIP3    H173481   4.472   4.581  11.966  1.8329 -0.9658  0.6394
17330TIP3    H273482   4.558   4.698  12.009  0.3780  0.6675 -0.8190
17331TIP3   OH273483   1.345   6.789   5.831  0.4571  0.5569 -0.0329
17331TIP3    H173484   1.355   6.707   5.784  1.3201  0.4777  0.2707
17331TIP3    H273485   1.298   6.847   5.771 -1.8050 -0.7349  0.4441
17332TIP3   OH273486   5.424   4.472   3.606 -0.4001 -0.2973 -0.3440
17332TIP3    H173487   5.433   4.431   3.519  0.7992  0.3548 -0.5447
17332TIP3    H273488   5.353   4.535   3.595 -1.3918 -1.3975 -0.3858
17333TIP3   OH273489   2.648   5.727   1.866  0.3135 -0.5636 -0.4601
17333TIP3    H173490   2.626   5.808   1.911  0.2890 -0.2766 -0.9887
17333TIP3    H273491   2.729   5.747   1.818  0.0032 -0.6883 -1.0359
17334TIP3   OH273492   5.571   3.724  17.134 -0.3765 -0.0293 -0.6380
17334TIP3    H173493   5.503   3.737  17.069 -1.1905 -0.4341  0.1200
17334TIP3    H273494   5.623   3.805  17.132  1.2167 -1.0523 -3.6266
17335TIP3   OH273495   0.024   6.668  13.542  0.5920 -0.5090  0.0049
17335TIP3    H173496  -0.027   6.630  13.470  2.2972 -0.2945 -1.3579
17335TIP3    H273497   0.102   6.613  13.547 -0.2879 -1.5401  2.8425
17336TIP3   OH273498   2.261   2.026  12.943 -0.0650 -0.2679 -0.0071
17336TIP3    H173499   2.340   1.973  12.951  0.3173  0.3621  0.4010
17336TIP3    H273500   2.235   2.016  12.851  0.6780 -0.1966 -0.2247
17337TIP3   OH273501   5.683   5.222   1.052  0.0445 -0.0021 -0.6926
17337TIP3    H173502   5.748   5.153   1.067 -0.8635 -1.6093 -3.6934
17337TIP3    H273503   5.733   5.303   1.049  1.3431 -0.7181  1.2826
17338TIP3   OH273504   3.936   4.491  13.836  0.0405  0.4905  0.1610
17338TIP3    H173505   3.883   4.433  13.782  0.9524 -0.7406  0.5791
17338TIP3    H273506   3.884   4.504  13.915 -0.1067  0.1622  0.1156
17339TIP3   OH273507   5.377   2.030  13.924  0.4273 -0.0461 -0.0269
17339TIP3    H173508   5.395   1.988  14.008  1.7575  1.1590  0.3141
17339TIP3    H273509   5.362   1.957  13.864 -1.0963 -0.9148  1.3566
17340TIP3   OH273510   3.578   5.369   2.724 -0.0252 -0.5550 -0.2286
17340TIP3    H173511   3.562   5.282   2.688  3.5645 -0.8834 -1.2436
17340TIP3    H273512   3.553   5.429   2.654 -0.4485 -0.8585 -0.3374
17341TIP3   OH273513   2.160   0.186  13.828 -0.2117  0.2771  0.1144
17341TIP3    H173514   2.067   0.206  13.841 -0.4516  0.1351 -1.2919
17341TIP3    H273515   2.206   0.264  13.857 -1.0684  2.5773 -4.2659
17342TIP3   OH273516   0.763   4.035  12.460  0.0706 -0.1752  0.4357
17342TIP3    H173517   0.808   4.002  12.381 -0.7820 -0.1007 -0.0851
17342TIP3    H273518   0.761   4.130  12.449 -0.2726 -0.1832  0.4252
17343TIP3   OH273519   3.812   2.165  11.602  0.0132  0.2666 -0.3891
17343TIP3    H173520   3.735   2.218  11.625  0.0128 -0.3806  1.1592
17343TIP3    H273521   3.878   2.229  11.575 -0.1934  1.0294  0.8520
17344TIP3   OH273522   3.422   4.128  17.068 -0.3168 -0.0987 -0.2125
17344TIP3    H173523   3.352   4.068  17.044 -0.2840  0.0969 -0.8229
17344TIP3    H273524   3.465   4.148  16.985 -1.5580  2.3019 -0.3379
17345TIP3   OH273525   0.780   4.114  17.242 -0.7312  0.2922 -0.3959
17345TIP3    H173526   0.798   4.144  17.153 -0.3221  0.1505 -0.3634
17345TIP3    H273527   0.802   4.189  17.298  0.2276 -0.0424 -0.3172
17346TIP3   OH273528   1.192   5.575   4.317 -0.9183 -0.5818  0.1508
17346TIP3    H173529   1.244   5.561   4.396 -3.5637  1.4291  2.3602
17346TIP3    H273530   1.158   5.488   4.294  0.8290 -1.3703  0.4978
17347TIP3   OH273531   2.139   0.774   5.576 -0.6378  0.8056  0.3371
17347TIP3    H173532   2.145   0.866   5.553 -2.8063  1.0269  0.5106
17347TIP3    H273533   2.126   0.773   5.671 -0.0646  0.2966  0.4152
17348TIP3   OH273534   3.431   4.793   2.604 -0.4587 -0.4350 -0.4460
17348TIP3    H173535   3.516   4.834   2.589  0.3731 -0.7806  2.8982
17348TIP3    H273536   3.444   4.701   2.580  0.4968 -0.7391  1.1357
17349TIP3   OH273537   6.815   5.973   1.701 -0.5579 -0.0201  0.0355
17349TIP3    H173538   6.771   6.056   1.714  0.0642  0.2711  0.3248
17349TIP3    H273539   6.879   5.990   1.632 -1.3006 -0.5906 -0.7903
17350TIP3   OH273540   4.032   4.205  11.343  0.0495  0.3429 -0.5432
17350TIP3    H173541   3.996   4.120  11.372 -0.9456  0.7649 -0.5307
17350TIP3    H273542   3.965   4.269  11.369  1.2140  1.2457  0.2924
17351TIP3   OH273543   3.026   4.267   3.813 -1.2135  0.4601 -0.0173
17351TIP3    H173544   3.012   4.294   3.904 -0.7705 -0.5608  0.3580
17351TIP3    H273545   3.111   4.304   3.790 -0.4951 -0.7829  0.5760
17352TIP3   OH273546   6.556   1.438   4.816  0.1567 -0.8782  0.0377
17352TIP3    H173547   6.579   1.345   4.820 -1.3938 -1.2006  2.3014
17352TIP3    H273548   6.464   1.440   4.790 -0.4280 -0.1037  2.0552
17353TIP3   OH273549   6.562   4.058   4.379  0.6221  0.4439  0.1814
17353TIP3    H173550   6.495   4.024   4.320  2.1495 -0.3344 -1.1510
17353TIP3    H273551   6.552   4.153   4.373  3.0080  0.5854 -4.1917
17354TIP3   OH273552   6.133   1.319  13.240  0.0986  0.2606 -0.9331
17354TIP3    H173553   6.083   1.255  13.290 -2.8212  2.2424 -1.1831
17354TIP3    H273554   6.179   1.267  13.173  1.5423 -2.0324  1.7276
17355TIP3   OH273555   1.644   2.410   1.595  0.4333  0.3094 -0.0095
17355TIP3    H173556   1.606   2.498   1.584 -0.4487 -0.2238 -1.4043
17355TIP3    H273557   1.645   2.373   1.506 -1.1345 -1.8626  0.8254
17356TIP3   OH273558   6.085   5.937   3.094  0.2104  0.2654 -0.1065
17356TIP3    H173559   6.030   6.012   3.073 -0.1305 -0.7462 -3.1917
17356TIP3    H273560   6.169   5.956   3.052  1.2003  0.3752  1.8829
17357TIP3   OH273561   0.252   6.487  14.133  0.4581  0.6530  0.1695
17357TIP3    H173562   0.298   6.430  14.195 -0.0511  1.8485  1.6743
17357TIP3    H273563   0.211   6.426  14.071  3.1980 -0.4719 -0.6258
17358TIP3   OH273564   3.997   2.619  12.098  0.3392  0.4542 -0.3507
17358TIP3    H173565   3.934   2.649  12.033 -1.6395 -0.3877  1.1433
17358TIP3    H273566   4.031   2.537  12.063 -1.9837 -0.8882  0.4035
17359TIP3   OH273567   5.481   1.250  16.996  0.9306  0.3385 -0.2704
17359TIP3    H173568   5.459   1.223  17.084  1.8415  0.5301  0.0258
17359TIP3    H273569   5.574   1.228  16.986  0.8027  0.1867 -1.2254
17360TIP3   OH273570   0.137   5.643   5.338  0.0733 -0.4318 -0.0056
17360TIP3    H173571   0.150   5.631   5.244 -1.2824  1.3903 -0.4661
17360TIP3    H273572   0.053   5.600   5.356 -0.9528  1.4684 -0.1576
17361TIP3   OH273573   1.680   4.198   0.013 -0.1789  0.1831 -0.1068
17361TIP3    H173574   1.758   4.254   0.006 -1.4046  2.1452  1.2472
17361TIP3    H273575   1.641   4.200  -0.075 -1.2517  3.0948  0.3841
17362TIP3   OH273576   6.661   6.792   5.443  0.2238  0.0135 -0.3337
17362TIP3    H173577   6.659   6.819   5.351 -0.4518 -0.0990 -0.3511
17362TIP3    H273578   6.703   6.706   5.442  1.3170  0.5342 -0.4043
17363TIP3   OH273579   6.115   2.971   0.688  0.4023 -0.3091 -0.3532
17363TIP3    H173580   6.116   2.995   0.780 -1.7996 -0.5268 -0.2451
17363TIP3    H273581   6.162   3.042   0.644 -0.0391  0.6838  0.7389
17364TIP3   OH273582   4.384   6.027  16.471 -0.4185  0.2730  0.0683
17364TIP3    H173583   4.369   6.060  16.559 -1.5077 -1.5526  0.6024
17364TIP3    H273584   4.315   6.066  16.418 -0.7831  0.0470  0.3762
17365TIP3   OH273585   3.144   3.309  15.013 -0.5278  0.0852 -0.1584
17365TIP3    H173586   3.171   3.381  14.957  0.8361 -0.2936  0.0005
17365TIP3    H273587   3.145   3.232  14.956 -0.7234 -0.0297 -0.0091
17366TIP3   OH273588   3.509   5.027  14.230 -0.4498 -0.0038  0.4996
17366TIP3    H173589   3.427   5.023  14.180  0.3572  1.0317 -0.9493
17366TIP3    H273590   3.482   5.059  14.316 -1.3216  2.6657 -0.6894
17367TIP3   OH273591   1.664   4.963   1.288 -0.3720 -0.2685  0.3526
17367TIP3    H173592   1.649   4.869   1.293 -0.2925 -0.2257  1.8729
17367TIP3    H273593   1.595   4.996   1.230 -0.0688 -1.3216 -0.6241
17368TIP3   OH273594   5.988   3.421   0.113  0.0104  0.1164  0.4089
17368TIP3    H173595   6.057   3.476   0.076  1.2959 -1.0173  1.0740
17368TIP3    H273596   5.910   3.444   0.063  0.3260  3.1587  1.2684
17369TIP3   OH273597   0.942   5.461  14.998 -0.0571 -0.0523  0.6733
17369TIP3    H173598   0.970   5.523  15.066 -2.7443  0.1634  1.6667
17369TIP3    H273599   0.920   5.516  14.923 -1.6215  0.1474  1.2648
17370TIP3   OH273600   3.682   1.023   1.241 -0.3158  0.2158 -0.6156
17370TIP3    H173601   3.705   1.109   1.204  0.0212 -0.5902 -2.3566
17370TIP3    H273602   3.587   1.025   1.250 -0.2172  1.1174  0.2428
17371TIP3   OH273603   4.404   0.264  11.356 -0.7797  0.2733  0.4021
17371TIP3    H173604   4.326   0.227  11.399 -0.9837  0.0704 -0.1415
17371TIP3    H273605   4.393   0.358  11.366 -1.0726  0.2448  0.3656
17372TIP3   OH273606   3.427   3.231   2.743 -0.4148  0.1980  0.0892
17372TIP3    H173607   3.496   3.285   2.704  0.2630 -1.2471 -0.7839
17372TIP3    H273608   3.367   3.213   2.671 -0.0838 -1.0372  0.1042
17373TIP3   OH273609   1.403   0.147   1.885  0.1557  0.0292 -0.2782
17373TIP3    H173610   1.412   0.166   1.978  0.5838  0.1786 -0.3520
17373TIP3    H273611   1.463   0.074   1.869  0.7324  0.5753 -0.6167
17374TIP3   OH273612   6.397   3.270  15.176  0.0116  0.1742 -0.0648
17374TIP3    H173613   6.452   3.239  15.104  0.6399 -1.1290  0.9602
17374TIP3    H273614   6.414   3.364  15.180  2.5592 -0.2701  0.5366
17375TIP3   OH273615   3.004   5.690   1.655 -0.4986  0.4722  0.2011
17375TIP3    H173616   3.040   5.659   1.739 -1.9100  0.1729  0.7014
17375TIP3    H273617   3.032   5.781   1.650  0.8789  0.0784  0.2701
17376TIP3   OH273618   3.707   2.468   0.818  0.1868  0.2473  0.1418
17376TIP3    H173619   3.763   2.459   0.741 -0.0008  2.3203 -0.2550
17376TIP3    H273620   3.721   2.557   0.848 -2.4466  0.6240  0.3954
17377TIP3   OH273621   6.453   0.238  16.745 -0.7993 -0.0821  0.8095
17377TIP3    H173622   6.404   0.159  16.768 -0.5051 -0.7405 -0.7670
17377TIP3    H273623   6.520   0.207  16.684  0.3195  1.1322  1.4072
17378TIP3   OH273624   4.645   5.829  12.402  0.1905  0.0547  0.0279
17378TIP3    H173625   4.616   5.762  12.339 -0.7161  1.6078 -1.2441
17378TIP3    H273626   4.644   5.784  12.486 -2.0906 -1.0949 -0.5497
17379TIP3   OH273627   4.143   4.842   2.660  0.1901 -0.0904  0.2389
17379TIP3    H173628   4.231   4.805   2.651 -0.0665 -0.5657 -0.3549
17379TIP3    H273629   4.092   4.800   2.591 -0.5423  0.0757  0.6730
17380TIP3   OH273630   3.032   5.400  12.866  0.0403  0.6532  0.4223
17380TIP3    H173631   3.102   5.367  12.923  0.9058  2.4135  0.4216
17380TIP3    H273632   2.951   5.376  12.911  0.6408 -1.4107  0.4288
17381TIP3   OH273633   0.918   4.494  13.577  0.1722 -0.1502  0.0994
17381TIP3    H173634   0.834   4.540  13.580 -0.0881 -0.5839 -0.4429
17381TIP3    H273635   0.922   4.458  13.489 -0.3323 -2.4874  0.9952
17382TIP3   OH273636   4.967   3.306   5.625  0.0616 -0.2672  0.0322
17382TIP3    H173637   5.001   3.326   5.712  0.6123 -0.8146 -0.0509
17382TIP3    H273638   5.023   3.357   5.566  0.4751 -0.8504 -0.0794
17383TIP3   OH273639   5.159   3.623   3.157  0.1607 -0.1631 -0.5695
17383TIP3    H173640   5.241   3.668   3.140  0.9223 -1.5123 -0.5202
17383TIP3    H273641   5.124   3.603   3.070  0.3496 -0.4280 -0.5837
17384TIP3   OH273642   3.391   4.075  15.926  0.4624 -0.0119  0.1304
17384TIP3    H173643   3.464   4.137  15.916  2.4406 -2.2753  0.0634
17384TIP3    H273644   3.420   3.996  15.881 -2.3772 -0.7448 -0.5222
17385TIP3   OH273645   5.399   0.160   5.978  0.7758  0.2020  0.1063
17385TIP3    H173646   5.387   0.168   5.883  0.7139 -0.5328  0.0460
17385TIP3    H273647   5.391   0.066   5.994 -0.9893  0.4995  1.0759
17386TIP3   OH273648   4.646   1.478   2.056 -0.8746 -0.2275  0.2459
17386TIP3    H173649   4.580   1.437   2.000 -0.3521  1.0295 -1.3144
17386TIP3    H273650   4.598   1.504   2.135 -2.3454  1.0039 -1.0234
17387TIP3   OH273651   2.288   3.308   3.054 -0.2632  0.0303 -0.1850
17387TIP3    H173652   2.300   3.399   3.029 -1.5643  0.0044 -0.9815
17387TIP3    H273653   2.279   3.311   3.149  2.8609  0.3436  0.1454
17388TIP3   OH273654   5.338   4.309  11.571 -0.2979 -0.0512 -0.0651
17388TIP3    H173655   5.249   4.285  11.599 -0.7186  0.2686 -1.1396
17388TIP3    H273656   5.384   4.225  11.564 -0.7312 -0.2744 -0.2506
17389TIP3   OH273657   1.523   2.656  13.050  0.6731  0.0052 -0.4317
17389TIP3    H173658   1.448   2.649  13.109 -0.0790 -1.4386 -1.5230
17389TIP3    H273659   1.544   2.749  13.048 -0.5881  0.3188  0.5023
17390TIP3   OH273660   0.289   5.048   2.004 -0.7545 -0.2977  0.2108
17390TIP3    H173661   0.349   5.075   2.074  0.3127  1.2473 -1.2371
17390TIP3    H273662   0.217   5.110   2.010 -1.4220 -1.1393  0.9212
17391TIP3   OH273663   5.332   0.140  14.955 -0.3047 -0.0067 -0.1190
17391TIP3    H173664   5.337   0.216  14.896 -2.3370 -0.8667 -1.4736
17391TIP3    H273665   5.422   0.109  14.962 -0.0067  0.1568 -2.7335
17392TIP3   OH273666   2.669   2.558  17.075 -0.4121  0.1832  0.4658
17392TIP3    H173667   2.669   2.482  17.017  1.5126  0.6930 -0.2138
17392TIP3    H273668   2.626   2.527  17.155 -0.5510 -1.3262 -0.1800
17393TIP3   OH273669   6.348   4.947   1.911 -0.3541  0.1799 -0.2888
17393TIP3    H173670   6.277   4.971   1.852  1.1494  0.7656 -1.9185
17393TIP3    H273671   6.406   4.892   1.858 -0.7152 -2.2016  1.6776
17394TIP3   OH273672   5.034   5.905   3.567  0.1217 -0.7839  0.0299
17394TIP3    H173673   4.947   5.891   3.529  0.4988  0.9558 -1.5314
17394TIP3    H273674   5.035   5.998   3.590  1.1682 -1.0515  1.0852
17395TIP3   OH273675   2.941   1.986   1.156  0.0222 -0.2149 -0.3291
17395TIP3    H173676   2.998   1.922   1.113 -1.6030  0.3979 -3.5051
17395TIP3    H273677   2.861   1.936   1.175 -0.7013  0.5081 -1.4897
17396TIP3   OH273678   0.864   5.425   4.054  0.2829  0.9339  0.0078
17396TIP3    H173679   0.786   5.463   4.015  1.8719  2.3708 -1.8245
17396TIP3    H273680   0.830   5.371   4.126 -2.4271  0.9369 -1.2000
17397TIP3   OH273681   1.330   5.794   1.271  0.1780 -0.5565  0.0184
17397TIP3    H173682   1.363   5.781   1.182  0.3245 -1.7193  0.2319
17397TIP3    H273683   1.320   5.706   1.306 -1.2698 -0.1451  0.6618
17398TIP3   OH273684   0.470   4.625  14.433 -0.3636 -0.0156 -0.3283
17398TIP3    H173685   0.565   4.624  14.438 -0.3491  1.7157  0.3091
17398TIP3    H273686   0.450   4.703  14.381 -1.4253 -0.4969 -0.6608
17399TIP3   OH273687   6.138   5.393  13.463 -0.1838 -0.1713 -0.7417
17399TIP3    H173688   6.107   5.334  13.394 -1.8308  0.9554 -0.9978
17399TIP3    H273689   6.223   5.423  13.433  1.9832 -4.4678  0.6511
17400TIP3   OH273690   0.570   4.430   3.218 -0.3661  0.1571  0.3997
17400TIP3    H173691   0.665   4.424   3.221 -0.2819  0.9911 -0.5582
17400TIP3    H273692   0.551   4.524   3.215 -1.3010  0.0858  2.8275
17401TIP3   OH273693   0.292   6.332  16.605  0.4076  0.4816 -0.1149
17401TIP3    H173694   0.340   6.260  16.645 -1.5441  0.0531  1.5577
17401TIP3    H273695   0.340   6.411  16.633  0.7503  0.0118  0.6427
17402TIP3   OH273696   3.886   1.250  15.554 -0.2694 -0.1837  0.1575
17402TIP3    H173697   3.871   1.328  15.500 -0.2513 -0.1891  0.1440
17402TIP3    H273698   3.799   1.227  15.587 -0.3721 -0.5466 -0.3710
17403TIP3   OH273699   5.942   4.213  14.010 -0.5197 -0.4981  0.1791
17403TIP3    H173700   5.933   4.292  14.063  1.1409 -0.3342  0.2512
17403TIP3    H273701   5.876   4.222  13.942 -1.3901  0.1996  1.1121
17404TIP3   OH273702   2.438   4.437  11.926 -0.0528  0.0852  0.1872
17404TIP3    H173703   2.372   4.376  11.892 -1.8547  0.9588  1.9968
17404TIP3    H273704   2.466   4.486  11.849 -1.1231 -0.6713 -0.7140
17405TIP3   OH273705   3.544   5.524  14.710  0.4272 -0.3162 -0.6205
17405TIP3    H173706   3.504   5.452  14.758  1.6705 -0.2930  0.4828
17405TIP3    H273707   3.599   5.481  14.644  2.0754 -0.4410  0.7779
17406TIP3   OH273708   5.333   2.967  12.979  0.3710  0.2232  0.9618
17406TIP3    H173709   5.305   2.877  12.996 -0.4298  0.2436 -0.2325
17406TIP3    H273710   5.321   2.979  12.885 -1.1676  2.1303  1.3718
17407TIP3   OH273711   4.939   5.375   1.589 -0.7160  0.6669  0.0560
17407TIP3    H173712   5.009   5.441   1.593  1.3029 -1.4494  0.9808
17407TIP3    H273713   4.928   5.357   1.496 -0.4829  1.4857 -0.1318
17408TIP3   OH273714   5.240   1.674   0.547 -0.0225 -0.0403 -0.8291
17408TIP3    H173715   5.322   1.653   0.502  0.0246 -1.4057 -0.1192
17408TIP3    H273716   5.186   1.596   0.536 -1.0564  0.6708 -0.8726
17409TIP3   OH273717   2.192   3.939   4.408 -0.3056  0.1346  0.3346
17409TIP3    H173718   2.138   3.997   4.356 -0.5583  0.6486  1.1751
17409TIP3    H273719   2.272   3.989   4.425  0.6173 -0.7754 -1.2604
17410TIP3   OH273720   5.829   0.159  13.704  0.0280  0.8461 -0.5406
17410TIP3    H173721   5.894   0.113  13.757 -1.0840  0.3354  0.3923
17410TIP3    H273722   5.766   0.092  13.679  0.5896  1.0582 -2.6250
17411TIP3   OH273723   0.772   5.784  10.861  0.3261  0.1103 -0.1135
17411TIP3    H173724   0.854   5.786  10.911 -0.6032  1.2793  1.3755
17411TIP3    H273725   0.722   5.859  10.893 -0.9736 -0.0886 -1.6340
17412TIP3   OH273726   3.725   4.084   0.157 -0.2012  0.1797  0.6094
17412TIP3    H173727   3.791   4.078   0.226  1.9775  0.3838 -1.3970
17412TIP3    H273728   3.685   4.171   0.169  0.5516  0.4436  1.2426
17413TIP3   OH273729   6.440   5.945   3.680 -0.3745 -0.2866  0.0951
17413TIP3    H173730   6.520   5.936   3.732 -0.6346 -1.4067  0.3255
17413TIP3    H273731   6.468   5.931   3.590 -0.1889  0.0539  0.1005
17414TIP3   OH273732   5.983   4.554  15.638  0.0574 -0.0181 -0.2405
17414TIP3    H173733   5.916   4.607  15.680  0.0862  0.0857 -0.3244
17414TIP3    H273734   6.065   4.582  15.678 -0.2168 -2.0227  1.7811
17415TIP3   OH273735   5.982   2.091  16.975  0.0639 -0.0597  0.4762
17415TIP3    H173736   5.919   2.163  16.969  0.2778  0.0590 -0.3725
17415TIP3    H273737   6.011   2.077  16.885  3.0187  1.4735  1.1301
17416TIP3   OH273738   0.065   6.502  17.260  0.0203 -0.3600 -0.0229
17416TIP3    H173739   0.064   6.407  17.270 -0.0271 -0.0109  4.0726
17416TIP3    H273740  -0.025   6.529  17.274  0.1718  0.3539 -0.4085
17417TIP3   OH273741   0.236   6.389  15.396 -0.1165 -0.1247 -0.3736
17417TIP3    H173742   0.196   6.467  15.434  1.3654  0.5374 -0.1117
17417TIP3    H273743   0.185   6.316  15.430 -1.6531  0.7380 -0.7933
17418TIP3   OH273744   5.780   2.304   2.666 -0.2591 -0.2129 -0.8059
17418TIP3    H173745   5.744   2.221   2.632 -0.4418 -0.8122  0.7911
17418TIP3    H273746   5.729   2.372   2.623 -1.6970 -1.0077 -0.4004
17419TIP3   OH273747   4.184   6.780  14.424 -0.1160 -0.9556 -0.1695
17419TIP3    H173748   4.099   6.760  14.385  0.0015 -1.8529  0.0177
17419TIP3    H273749   4.246   6.767  14.353 -0.1574  0.0224 -0.3976
17420TIP3   OH273750   0.426   2.302  12.621  0.1221 -0.6762  0.0511
17420TIP3    H173751   0.471   2.251  12.688  1.4147 -0.7096 -0.8242
17420TIP3    H273752   0.431   2.392  12.652 -3.1937 -1.1573  2.1797
17421TIP3   OH273753   4.502   3.694   0.997 -0.4426 -0.2550  1.0139
17421TIP3    H173754   4.464   3.608   0.977  0.9070 -0.2396 -1.9096
17421TIP3    H273755   4.426   3.748   1.019 -1.5664 -1.5880  0.5691
17422TIP3   OH273756   6.215   3.709   5.693  0.4219 -0.3456  0.8251
17422TIP3    H173757   6.133   3.661   5.705  0.3792 -0.4543  0.1227
17422TIP3    H273758   6.284   3.643   5.708  0.3624 -0.6722 -0.3057
17423TIP3   OH273759   4.371   0.448  14.021 -0.6446  0.0982  0.1050
17423TIP3    H173760   4.318   0.411  14.091 -0.3472  1.3087  0.9808
17423TIP3    H273761   4.356   0.543  14.027 -0.2360  0.2508 -1.1493
17424TIP3   OH273762   4.923   5.691   4.108 -0.2290  0.0548 -0.0763
17424TIP3    H173763   5.001   5.640   4.126  0.4486  1.6017  1.4846
17424TIP3    H273764   4.882   5.648   4.032  1.9174 -0.9675 -0.6682
17425TIP3   OH273765   5.957   3.247   4.475  0.3031  0.1911  0.4102
17425TIP3    H173766   5.868   3.224   4.447 -0.2212  1.9010  0.6171
17425TIP3    H273767   5.995   3.164   4.503 -0.1677 -1.0971 -2.5598
17426TIP3   OH273768   6.718   3.991  10.330  0.6869  0.2625  0.7676
17426TIP3    H173769   6.763   3.930  10.388  0.3702  0.0707  0.8109
17426TIP3    H273770   6.650   3.939  10.288  0.6359  0.5047  0.5480
17427TIP3   OH273771   6.431   3.117  13.712  0.0417  0.2104 -0.1394
17427TIP3    H173772   6.461   3.033  13.747 -0.1729  0.3995  0.5177
17427TIP3    H273773   6.388   3.095  13.630  0.4095 -0.2654 -0.2079
17428TIP3   OH273774   2.197   3.215   3.683  0.6833  0.0044 -0.1827
17428TIP3    H173775   2.271   3.276   3.680  0.2789  0.6985  2.2004
17428TIP3    H273776   2.120   3.271   3.686  0.1072 -0.7000 -1.4891
17429TIP3   OH273777   0.025   5.571  13.842  0.4393 -0.5862  0.1053
17429TIP3    H173778   0.028   5.632  13.769 -0.8864 -0.4446  0.1556
17429TIP3    H273779   0.091   5.603  13.903  0.3288  0.3145 -0.2449
17430TIP3   OH273780   1.076   2.403  13.374  0.1396  0.6345  0.1957
17430TIP3    H173781   1.122   2.486  13.385 -0.8150  1.3269 -0.9492
17430TIP3    H273782   1.043   2.405  13.284 -1.7130 -0.0391  0.8391
17431TIP3   OH273783   1.287   1.612  15.412  0.3520 -0.0049  0.4256
17431TIP3    H173784   1.265   1.557  15.487  1.4595  0.7475  1.3250
17431TIP3    H273785   1.260   1.560  15.336 -0.6724 -0.8295  1.3297
17432TIP3   OH273786   5.622   1.623  13.913 -0.4216 -0.6921 -0.0901
17432TIP3    H173787   5.675   1.697  13.942 -1.6776  0.8080 -1.5150
17432TIP3    H273788   5.686   1.559  13.880  0.5765  0.5316 -0.5564
17433TIP3   OH273789   3.460   4.721  12.155 -0.5055 -0.2446 -0.1082
17433TIP3    H173790   3.465   4.737  12.061  0.4583  1.7612  0.2635
17433TIP3    H273791   3.406   4.793  12.189 -0.0581 -0.4223  1.0098
17434TIP3   OH273792   1.393   6.106  17.291 -0.3767 -0.2379 -0.0812
17434TIP3    H173793   1.344   6.047  17.347 -0.3573  1.7622  2.1569
17434TIP3    H273794   1.337   6.183  17.281  0.4682  0.2643 -1.1152
17435TIP3   OH273795   3.289   3.269  13.757  0.1612  0.1378  0.1212
17435TIP3    H173796   3.229   3.280  13.831  1.6974  2.0114  1.1236
17435TIP3    H273797   3.360   3.331  13.773  0.0536  1.3269 -3.4501
17436TIP3   OH273798   0.213   2.575   1.254  0.1562  0.1040  0.3121
17436TIP3    H173799   0.147   2.520   1.298  0.4840  0.7747  1.6610
17436TIP3    H273800   0.262   2.513   1.200 -1.8111 -0.3538 -1.0180
17437TIP3   OH273801   5.868   0.674  12.441 -0.6314 -0.4825 -0.2524
17437TIP3    H173802   5.834   0.736  12.376  0.1598  0.7882  0.5379
17437TIP3    H273803   5.831   0.590  12.414 -0.6105  0.0780 -2.1411
17438TIP3   OH273804   0.957   6.431   4.124  0.4207 -0.9340  0.3519
17438TIP3    H173805   0.885   6.431   4.061  1.2622 -1.8352 -0.6293
17438TIP3    H273806   0.948   6.515   4.170 -2.3763 -1.8664  1.5899
17439TIP3   OH273807   3.796   2.717   1.090  0.5675 -0.3498  0.3001
17439TIP3    H173808   3.860   2.729   1.020  0.8023  0.1564  0.5996
17439TIP3    H273809   3.847   2.726   1.171 -0.0764  1.2255  0.5563
17440TIP3   OH273810   3.762   3.140  13.323 -0.4903  0.1790 -0.5461
17440TIP3    H173811   3.747   3.095  13.240 -0.0736 -0.0663 -0.4877
17440TIP3    H273812   3.701   3.214  13.321 -1.3239 -0.4900 -0.5532
17441TIP3   OH273813   5.229   3.009  15.955 -0.6892 -0.2793 -0.1733
17441TIP3    H173814   5.226   3.045  16.044 -0.1135 -1.3443  0.2793
17441TIP3    H273815   5.164   3.060  15.907  0.4923  1.7617  0.3074
17442TIP3   OH273816   3.811   2.912  10.205  0.3447 -0.6157  0.1606
17442TIP3    H173817   3.727   2.886  10.243 -0.5307  0.8588 -0.7084
17442TIP3    H273818   3.843   2.981  10.262 -1.8041  2.8318 -2.6086
17443TIP3   OH273819   4.230   6.662   3.656  0.3468  0.3151 -0.8446
17443TIP3    H173820   4.274   6.705   3.730  0.4800 -0.4629 -0.4686
17443TIP3    H273821   4.302   6.633   3.600  0.2536  0.6691 -1.1479
17444TIP3   OH273822   5.103   4.979  12.260  0.8033  0.2993 -0.1710
17444TIP3    H173823   5.158   4.928  12.201  3.3034  1.7756  0.8335
17444TIP3    H273824   5.135   4.958  12.348 -1.9850 -0.8307  0.6336
17445TIP3   OH273825   1.001   4.691  14.942  0.3480 -0.1293 -0.3717
17445TIP3    H173826   0.927   4.720  14.888 -1.1097  0.4595  1.8731
17445TIP3    H273827   1.012   4.761  15.006  1.5540 -1.1815  0.5834
17446TIP3   OH273828   0.843   3.458  11.972 -0.4005 -0.2669 -0.3999
17446TIP3    H173829   0.918   3.400  11.961  0.5513  0.4810  1.7561
17446TIP3    H273830   0.865   3.537  11.923  0.6448  0.3040  0.9655
17447TIP3   OH273831   1.783   2.715  16.824 -0.5698 -0.1927 -0.1428
17447TIP3    H173832   1.786   2.629  16.781 -1.8503 -0.7229  0.8038
17447TIP3    H273833   1.826   2.774  16.762  0.1057 -1.4762 -0.9105
17448TIP3   OH273834   1.314   0.089  14.668 -0.4201 -0.2963 -0.2061
17448TIP3    H173835   1.325   0.092  14.573 -0.1414 -2.3466 -0.2591
17448TIP3    H273836   1.376   0.154  14.701  0.6736 -0.7469 -1.3319
17449TIP3   OH273837   0.803   4.425  15.897  0.7729 -0.1560  0.1164
17449TIP3    H173838   0.726   4.372  15.914 -1.5219  2.0175 -2.9275
17449TIP3    H273839   0.861   4.367  15.847 -0.4388 -0.7149 -0.6718
17450TIP3   OH273840   3.130   4.944  11.329  0.2403  0.1392 -1.0310
17450TIP3    H173841   3.185   4.891  11.386  0.5918  1.4180 -0.1410
17450TIP3    H273842   3.055   4.888  11.308  0.2580 -0.4691  0.4421
17451TIP3   OH273843   0.989   1.138  14.173  0.6114 -0.2771  0.1021
17451TIP3    H173844   0.919   1.081  14.141  0.4333  0.9649 -1.8253
17451TIP3    H273845   0.981   1.135  14.268 -0.6201 -1.9255 -0.0278
17452TIP3   OH273846   6.509   5.591  12.922 -0.3373 -0.3294  0.0820
17452TIP3    H173847   6.427   5.592  12.872 -1.4073 -0.1886  1.8054
17452TIP3    H273848   6.558   5.518  12.885 -0.4522  0.6682 -2.1657
17453TIP3   OH273849   4.704   0.631   1.648 -0.2212 -0.1338 -0.3058
17453TIP3    H173850   4.679   0.540   1.661  1.6647 -0.7659 -0.9121
17453TIP3    H273851   4.712   0.640   1.553 -0.8417  0.7909 -0.2754
17454TIP3   OH273852   0.719   3.678   2.060  0.1325 -1.0053  0.3463
17454TIP3    H173853   0.675   3.697   2.143 -1.1896  2.1092 -1.0048
17454TIP3    H273854   0.804   3.721   2.067  0.3043 -1.3473  0.3666
17455TIP3   OH273855   5.348   3.263   1.242  0.2361  0.3590 -0.3393
17455TIP3    H173856   5.321   3.213   1.319  1.7185  1.5848  1.0100
17455TIP3    H273857   5.396   3.200   1.188  1.8579  0.2355  1.2151
17456TIP3   OH273858   3.322   3.210   1.305  0.7133 -0.2242  0.6220
17456TIP3    H173859   3.332   3.301   1.334 -1.9253  0.3388 -0.1499
17456TIP3    H273860   3.390   3.163   1.353  0.6910  1.7882  2.7305
17457TIP3   OH273861   0.364   5.624  13.751  0.5858 -0.1542  0.2827
17457TIP3    H173862   0.435   5.584  13.701  0.4694  0.5414 -0.4575
17457TIP3    H273863   0.407   5.688  13.807  0.7848 -1.3547  1.5496
17458TIP3   OH273864   3.839   1.728  11.923  0.3156  0.0453 -0.3459
17458TIP3    H173865   3.761   1.781  11.943  0.4805  0.0843  0.1925
17458TIP3    H273866   3.877   1.771  11.846 -1.2705 -1.1185 -1.8096
17459TIP3   OH273867   3.560   4.721   3.697  0.5444 -0.2151 -0.1227
17459TIP3    H173868   3.525   4.635   3.723 -0.2455  0.1490  0.0162
17459TIP3    H273869   3.655   4.711   3.706  0.4492 -1.0165  0.0832
17460TIP3   OH273870   0.946   0.238   0.173  0.6204 -0.2917 -0.5719
17460TIP3    H173871   0.994   0.261   0.253 -1.4411 -0.2477  0.6696
17460TIP3    H273872   0.966   0.310   0.113 -1.5265  2.1355  1.5074
17461TIP3   OH273873   4.729   6.691   0.353  0.4415 -0.3845  0.3614
17461TIP3    H173874   4.786   6.662   0.282  0.2955 -0.2502  0.1881
17461TIP3    H273875   4.787   6.737   0.414  0.7104 -1.2441  0.7493
17462TIP3   OH273876   5.244   4.838   4.450 -0.4004 -0.1985  0.5268
17462TIP3    H173877   5.180   4.774   4.481  3.7156 -4.1331  1.6130
17462TIP3    H273878   5.255   4.817   4.357 -0.2987  0.1095  0.4696
17463TIP3   OH273879   3.650   3.305  13.595  0.2387  0.6236 -0.1185
17463TIP3    H173880   3.592   3.229  13.598  0.1995  0.5884 -1.4571
17463TIP3    H273881   3.670   3.324  13.687 -0.6680 -0.2978  0.2769
17464TIP3   OH273882   4.058   6.606   3.356 -0.0202 -0.1661 -0.4510
17464TIP3    H173883   4.143   6.641   3.384 -0.3037 -0.2890  0.5579
17464TIP3    H273884   4.049   6.524   3.403 -1.1479  0.3195  0.1931
17465TIP3   OH273885   0.935   3.202   2.148  0.0835  0.1806 -0.2497
17465TIP3    H173886   0.902   3.288   2.173 -1.3133 -0.6612  0.8883
17465TIP3    H273887   0.879   3.175   2.076 -0.7438 -0.5933  0.6716
17466TIP3   OH273888   6.474   5.085   4.619  0.2742 -0.4212  0.5763
17466TIP3    H173889   6.550   5.129   4.580  0.2413 -1.2031 -0.3884
17466TIP3    H273890   6.446   5.143   4.690  3.9569 -1.8058  3.3310
17467TIP3   OH273891   1.131   5.504  16.701 -0.8347  0.2002 -0.0787
17467TIP3    H173892   1.054   5.517  16.757 -0.3500  0.3653  0.5626
17467TIP3    H273893   1.113   5.557  16.623 -0.5475  1.7133  0.8814
17468TIP3   OH273894   1.622   3.648  13.784 -0.1889  0.3692 -0.0410
17468TIP3    H173895   1.594   3.558  13.768  1.0528 -0.1406  0.6615
17468TIP3    H273896   1.715   3.642  13.804 -0.2636  1.7167  0.8033
17469TIP3   OH273897   1.746   3.005   2.169  0.3844 -0.5282  0.9682
17469TIP3    H173898   1.834   3.042   2.166  0.5187 -0.9333 -0.1223
17469TIP3    H273899   1.743   2.959   2.253  0.5435  1.0935  1.9018
17470TIP3   OH273900   6.583   1.548   5.808 -0.0387 -0.1346  0.6910
17470TIP3    H173901   6.493   1.578   5.820 -0.0902 -0.4643  1.1559
17470TIP3    H273902   6.616   1.599   5.734 -0.9731 -0.8357 -0.2139
17471TIP3   OH273903   6.260   4.180   5.507  0.0025  0.2426 -0.1660
17471TIP3    H173904   6.228   4.223   5.427  2.5335 -1.5676 -2.2426
17471TIP3    H273905   6.242   4.087   5.492 -2.2400  0.1166  2.7589
17472TIP3   OH273906   0.905   6.569  15.582 -0.5337 -0.4885 -0.2189
17472TIP3    H173907   0.813   6.593  15.571 -1.1326 -2.4160  0.4000
17472TIP3    H273908   0.954   6.640  15.539 -2.3062  0.4192 -0.7710
17473TIP3   OH273909   1.944   1.656   2.163 -0.4856  0.5317 -0.0166
17473TIP3    H173910   1.984   1.704   2.235  0.1362 -1.4175  0.9696
17473TIP3    H273911   1.992   1.685   2.085 -0.7614  2.1923  0.4253
17474TIP3   OH273912   4.616   1.035   4.693 -0.1511  0.4323 -0.2938
17474TIP3    H173913   4.706   1.063   4.676  0.3811 -0.7233  0.6015
17474TIP3    H273914   4.569   1.117   4.712  0.7239  1.0265 -0.6416
17475TIP3   OH273915   4.271   0.182   3.044 -0.3220  0.4589 -0.1347
17475TIP3    H173916   4.190   0.139   3.071  0.2492  0.4344  1.5914
17475TIP3    H273917   4.339   0.145   3.101  0.7225  1.2337 -0.8546
17476TIP3   OH273918   4.429   3.363   5.904  0.0184  0.1143 -0.0241
17476TIP3    H173919   4.405   3.433   5.965  0.6046  0.4716 -0.1952
17476TIP3    H273920   4.352   3.306   5.901 -1.6149  2.3451 -2.1510
17477TIP3   OH273921   1.298   4.809  11.481 -0.5163 -0.1351 -0.4746
17477TIP3    H173922   1.281   4.727  11.434  1.7862 -0.1074 -1.4332
17477TIP3    H273923   1.299   4.783  11.573  4.6871 -2.2369 -0.9161
17478TIP3   OH273924   5.327   3.429   5.036  0.8402  0.0169 -0.4501
17478TIP3    H173925   5.302   3.458   5.124 -0.0983  0.8828 -0.9914
17478TIP3    H273926   5.275   3.350   5.022  3.3588 -1.9773  1.0045
17479TIP3   OH273927   4.043   5.095  10.759 -0.0349 -0.2434  0.3572
17479TIP3    H173928   4.074   5.045  10.834 -1.7777 -0.1943  1.1380
17479TIP3    H273929   4.071   5.045  10.683 -2.1427 -2.6767  1.1239
17480TIP3   OH273930   1.210   2.970  15.266  0.3238  0.4535  0.5703
17480TIP3    H173931   1.144   2.909  15.233  1.3675 -0.1843 -0.3588
17480TIP3    H273932   1.209   2.956  15.361 -0.6245  0.2076  0.5309
17481TIP3   OH273933   3.215   1.216   4.755  0.0607 -0.3418 -0.5645
17481TIP3    H173934   3.216   1.126   4.786 -0.8094 -0.5629 -1.1589
17481TIP3    H273935   3.307   1.241   4.751  0.2529 -0.6737  1.1059
17482TIP3   OH273936   3.731   5.373  12.060  0.4999 -0.0974  0.2429
17482TIP3    H173937   3.814   5.398  12.020  1.5572 -0.8933  1.8933
17482TIP3    H273938   3.755   5.317  12.134 -1.4743  0.0726  1.0622
17483TIP3   OH273939   2.875   2.114  15.022 -0.1784 -0.2942 -0.3800
17483TIP3    H173940   2.811   2.143  14.957  0.2827 -1.1083 -1.2141
17483TIP3    H273941   2.826   2.109  15.104 -0.6454  1.2471 -0.5517
17484TIP3   OH273942   2.292   1.735   3.308  0.2018  0.1442 -0.3869
17484TIP3    H173943   2.357   1.666   3.322 -0.4652 -0.4006  0.0669
17484TIP3    H273944   2.213   1.687   3.283 -0.3809  0.7207  0.3449
17485TIP3   OH273945   1.538   4.876  15.657 -0.1131  0.1958  0.2454
17485TIP3    H173946   1.503   4.958  15.624  0.9884  0.1670 -1.0448
17485TIP3    H273947   1.621   4.900  15.698  0.2446 -0.2803 -0.1911
17486TIP3   OH273948   1.682   1.144   3.193  0.4904 -0.2849  0.4843
17486TIP3    H173949   1.698   1.131   3.287  1.5763 -1.1241  0.1993
17486TIP3    H273950   1.624   1.071   3.169 -0.6566  0.5422  0.7178
17487TIP3   OH273951   0.345   5.018   3.866  0.5399 -0.9315 -0.1345
17487TIP3    H173952   0.314   5.036   3.954 -0.6511 -0.2598 -0.6776
17487TIP3    H273953   0.338   5.102   3.820 -0.6622 -1.7059 -1.3933
17488TIP3   OH273954   1.518   0.970   3.085  0.1337 -0.0633 -0.1172
17488TIP3    H173955   1.535   0.876   3.092  0.3504  0.0629  1.1051
17488TIP3    H273956   1.446   0.977   3.022 -1.4134 -1.1850  1.5029
17489TIP3   OH273957   3.171   4.240   2.393  0.5592  0.2798  0.0631
17489TIP3    H173958   3.178   4.326   2.354 -0.2836  0.0791 -0.5370
17489TIP3    H273959   3.178   4.179   2.320 -1.9036 -0.0744  0.0878
17490TIP3   OH273960   1.629   2.827  13.522  0.2079  0.5814 -0.3084
17490TIP3    H173961   1.717   2.800  13.496  1.1855  2.8561  0.4882
17490TIP3    H273962   1.585   2.849  13.440  0.6650  0.2393 -0.6437
17491TIP3   OH273963   1.444   0.159   5.991 -0.1113  0.6321 -0.5541
17491TIP3    H173964   1.406   0.112   6.065  0.8687 -1.6922 -1.4818
17491TIP3    H273965   1.448   0.094   5.921  2.5163  1.7004 -1.4641
17492TIP3   OH273966   0.528   3.431  16.646 -0.4086  0.0061 -0.1153
17492TIP3    H173967   0.554   3.420  16.737  0.8989 -1.0676 -0.5872
17492TIP3    H273968   0.610   3.452  16.601 -0.1726 -3.9146 -1.7379
17493TIP3   OH273969   2.576   5.323  16.825 -0.1959 -0.5309  0.2389
17493TIP3    H173970   2.531   5.393  16.776 -0.3585 -0.8027 -0.0024
17493TIP3    H273971   2.557   5.244  16.775  0.8029 -0.6004 -0.0303
17494TIP3   OH273972   2.670   5.514  16.344 -0.6439 -0.5244  0.2610
17494TIP3    H173973   2.745   5.548  16.296  0.6989 -2.8683  0.6628
17494TIP3    H273974   2.667   5.421  16.323 -1.7683 -1.0215  2.4413
17495TIP3   OH273975   5.241   2.195   1.273  0.3321  0.0138 -0.7167
17495TIP3    H173976   5.268   2.275   1.229  1.0837  0.1904  0.0552
17495TIP3    H273977   5.320   2.141   1.276 -0.4621 -1.3145 -2.3825
17496TIP3   OH273978   1.005   1.889  14.496  0.3797 -0.5537  0.2733
17496TIP3    H173979   1.072   1.855  14.555  0.7651 -0.0305  0.1438
17496TIP3    H273980   1.043   1.878  14.409  0.4594  0.0806  0.2214
17497TIP3   OH273981   3.411   4.206  15.071  0.1196  0.0472 -0.3685
17497TIP3    H173982   3.435   4.288  15.113  1.7609  0.1458 -1.4409
17497TIP3    H273983   3.371   4.231  14.988  0.3771 -0.2165 -0.5759
17498TIP3   OH273984   6.367   1.073   4.103  0.0602 -0.6193  0.3081
17498TIP3    H173985   6.356   1.150   4.046 -0.0873 -0.0676  1.0686
17498TIP3    H273986   6.455   1.084   4.141  1.3515 -2.4740 -1.9906
17499TIP3   OH273987   1.424   6.144  16.488 -0.1117  0.5486  0.1078
17499TIP3    H173988   1.498   6.084  16.478  1.8396  2.8711  0.0769
17499TIP3    H273989   1.396   6.163  16.398 -0.9063 -0.4963  0.1279
17500TIP3   OH273990   0.014   5.841  10.868  0.0245 -0.3065  0.0441
17500TIP3    H173991  -0.074   5.857  10.901 -0.2460 -0.5053 -0.5611
17500TIP3    H273992   0.005   5.847  10.773  0.6887 -0.2080 -0.0123
17501TIP3   OH273993   2.353   1.230   5.094 -0.8280 -0.2806  0.1767
17501TIP3    H173994   2.354   1.180   5.176  1.6336 -0.5741 -0.0078
17501TIP3    H273995   2.384   1.169   5.028 -0.3060  0.7327 -0.5208
17502TIP3   OH273996   4.590   6.589  12.760 -0.4420 -0.5333 -0.0732
17502TIP3    H173997   4.619   6.675  12.729  0.1219 -0.1824  1.3858
17502TIP3    H273998   4.567   6.603  12.852 -1.0699 -1.7805 -0.0246
17503TIP3   OH273999   5.100   6.658  17.014 -0.4735  0.0598  0.4915
17503TIP3    H174000   5.181   6.606  17.010  0.1937  1.1398 -0.3394
17503TIP3    H274001   5.108   6.709  17.095 -0.8333 -0.6283  0.9709
17504TIP3   OH274002   3.628   5.135   5.721  0.3640  0.2155 -0.4467
17504TIP3    H174003   3.678   5.200   5.672  1.4698 -1.1887 -1.2341
17504TIP3    H274004   3.601   5.180   5.801 -0.1571  2.0687 -1.6447
17505TIP3   OH274005   1.096   1.720   0.372 -0.0389  0.3866 -0.5145
17505TIP3    H174006   1.139   1.790   0.422  0.6971  0.8461 -1.7706
17505TIP3    H274007   1.133   1.640   0.407  0.0259  0.6785  0.0962
17506TIP3   OH274008   1.323   6.625  15.244  0.3842 -0.2385 -0.6231
17506TIP3    H174009   1.241   6.640  15.196 -0.0155 -1.0272 -0.1972
17506TIP3    H274010   1.363   6.712  15.250 -2.0186  0.7653  2.0074
17507TIP3   OH274011   4.140   2.497  13.801 -0.2363 -0.1639  0.2043
17507TIP3    H174012   4.198   2.433  13.841 -1.3563 -1.3624 -0.0477
17507TIP3    H274013   4.069   2.508  13.865  0.9459  2.3496  1.1500
17508TIP3   OH274014   5.807   6.689  15.793 -0.0603 -0.2276 -0.0495
17508TIP3    H174015   5.777   6.600  15.773  2.3405 -1.2783  0.7731
17508TIP3    H274016   5.844   6.721  15.711 -0.4753 -0.1601 -0.2143
17509TIP3   OH274017   0.952   3.068  10.587 -0.4161 -0.3466  0.5446
17509TIP3    H174018   0.915   3.142  10.635 -0.0622  0.1393  0.0914
17509TIP3    H274019   0.877   3.019  10.555 -0.6600 -0.0347  0.6385
17510TIP3   OH274020   1.357   1.923   3.621 -0.3825  0.2196  0.0157
17510TIP3    H174021   1.378   2.011   3.588  0.4164 -1.0451 -3.0213
17510TIP3    H274022   1.434   1.871   3.599 -0.8056 -1.2293  1.9022
17511TIP3   OH274023   6.730   4.418   0.926  0.5787  0.0067 -0.1831
17511TIP3    H174024   6.714   4.421   1.020  2.1827  0.2990  0.0962
17511TIP3    H274025   6.644   4.401   0.888 -0.5501  2.4956  1.1525
17512TIP3   OH274026   3.682   3.826  15.984  0.6537  0.5417 -0.5547
17512TIP3    H174027   3.624   3.752  15.966  0.5408  0.0334  1.7062
17512TIP3    H274028   3.747   3.791  16.045  0.2979  2.4149  0.9572
17513TIP3   OH274029   3.488   6.695  17.074  1.1421  0.0169  0.2541
17513TIP3    H174030   3.535   6.724  17.152 -0.8514 -0.9756  1.8842
17513TIP3    H274031   3.418   6.759  17.062  0.6036 -0.5889  0.1056
17514TIP3   OH274032   2.582   6.774   0.084 -0.2363  0.0433 -0.1006
17514TIP3    H174033   2.532   6.697   0.112 -0.4335 -0.0547 -0.7067
17514TIP3    H274034   2.530   6.812   0.013 -0.4943  1.1575  0.6703
17515TIP3   OH274035   2.086   5.592  13.247 -0.2761  0.0154 -0.3499
17515TIP3    H174036   2.095   5.513  13.193 -1.2831  0.5953 -1.4027
17515TIP3    H274037   2.156   5.586  13.311  0.1971 -1.3032 -0.9779
17516TIP3   OH274038   1.502   5.315   3.147  0.3933  0.1719  0.2995
17516TIP3    H174039   1.491   5.386   3.210  0.0331  0.6024 -0.2367
17516TIP3    H274040   1.484   5.356   3.062 -0.9084 -0.8103  0.0782
17517TIP3   OH274041   6.379   2.278  16.484  0.2198 -0.4818  0.3486
17517TIP3    H174042   6.429   2.267  16.402  0.1309 -1.0067  0.3601
17517TIP3    H274043   6.299   2.323  16.457  0.5056 -0.0193  0.2615
17518TIP3   OH274044   4.152   0.516  15.974 -0.5122  0.1499 -0.7745
17518TIP3    H174045   4.161   0.466  16.055 -1.5730  0.2407 -0.6013
17518TIP3    H274046   4.238   0.508  15.931 -0.4264 -1.1512 -0.3720
17519TIP3   OH274047   6.246   3.322  16.239 -0.4418 -0.2739  0.2493
17519TIP3    H174048   6.234   3.269  16.160 -0.6753  0.1924 -0.0287
17519TIP3    H274049   6.182   3.393  16.230  0.9510  0.9525 -0.1266
17520TIP3   OH274050   2.602   3.013   4.677  0.4791 -0.2175  0.5766
17520TIP3    H174051   2.567   3.089   4.722  1.5419  1.0666 -0.7393
17520TIP3    H274052   2.691   3.003   4.711  0.6796 -0.2889  0.0417
17521TIP3   OH274053   2.084   3.441   1.473  0.7140 -0.5082 -0.0090
17521TIP3    H174054   2.169   3.484   1.482  0.5029 -0.3445  1.3364
17521TIP3    H274055   2.105   3.353   1.441  1.1811  0.3938 -2.2637
17522TIP3   OH274056   2.489   0.190   0.831 -0.2292  0.2759  0.2156
17522TIP3    H174057   2.460   0.127   0.765  2.6287  1.1740 -1.9928
17522TIP3    H274058   2.579   0.212   0.805  0.8532  0.9680  4.1853
17523TIP3   OH274059   4.324   5.138  14.875  0.1551  0.4594  0.2155
17523TIP3    H174060   4.229   5.136  14.878  0.1465  1.7180  2.2586
17523TIP3    H274061   4.345   5.229  14.854  0.9025  0.1725 -0.2875
17524TIP3   OH274062   4.586   5.439   2.658  0.0919  0.0108  0.0303
17524TIP3    H174063   4.602   5.523   2.701  0.4255  0.1045 -0.2793
17524TIP3    H274064   4.552   5.383   2.728 -0.0777  0.3836  0.2514
17525TIP3   OH274065   0.723   1.995   4.711  0.6344  0.1530 -0.2636
17525TIP3    H174066   0.637   2.027   4.685  0.2973 -0.5305 -0.0034
17525TIP3    H274067   0.711   1.966   4.802  1.5497  1.6064  0.3430
17526TIP3   OH274068   4.945   0.149   4.357  0.0709 -0.4348  0.0830
17526TIP3    H174069   4.870   0.110   4.401  0.8326  0.6019  2.3772
17526TIP3    H274070   5.020   0.098   4.386  0.5392  0.0370 -0.2844
17527TIP3   OH274071   1.557   3.425   4.260 -0.4961  0.2255 -0.0289
17527TIP3    H174072   1.472   3.462   4.285 -0.9267  0.9027 -2.3483
17527TIP3    H274073   1.542   3.331   4.252 -0.7327  0.2019  0.6599
17528TIP3   OH274074   3.646   0.701  11.559 -0.5823  0.2109  0.7294
17528TIP3    H174075   3.730   0.740  11.532  0.4408 -1.4834  1.3547
17528TIP3    H274076   3.655   0.689  11.653 -2.0053  1.0862  0.9776
17529TIP3   OH274077   1.519   3.289   4.576 -0.0876  0.5028  0.7438
17529TIP3    H174078   1.594   3.259   4.524 -1.4259  1.4006 -1.7563
17529TIP3    H274079   1.529   3.384   4.580 -0.4375  0.5135  1.4708
17530TIP3   OH274080   4.442   4.266  12.856  0.1328 -0.0705 -0.6253
17530TIP3    H174081   4.381   4.297  12.789  0.3406  0.0360 -0.7688
17530TIP3    H274082   4.388   4.223  12.921 -0.2625  1.4441  0.0679
17531TIP3   OH274083   6.609   4.515  14.390  0.3086 -0.5550 -0.0833
17531TIP3    H174084   6.552   4.587  14.414  1.3288  0.1629  0.2114
17531TIP3    H274085   6.698   4.547  14.407  0.7664 -1.9262  0.2158
17532TIP3   OH274086   2.416   6.513  14.944  0.2907 -0.0331  0.9845
17532TIP3    H174087   2.431   6.422  14.919 -0.4910 -0.1133  0.7917
17532TIP3    H274088   2.498   6.540  14.987  1.7913  0.2157 -1.9143
17533TIP3   OH274089   0.623   5.680   0.104  0.1081  0.0660  0.0192
17533TIP3    H174090   0.580   5.688   0.189 -0.1674 -0.3252 -0.0801
17533TIP3    H274091   0.663   5.766   0.088 -1.2771  0.6629 -0.2439
17534TIP3   OH274092   1.598   2.508   0.630  0.1139 -0.3462 -0.4911
17534TIP3    H174093   1.686   2.528   0.661 -1.0227  3.1708  0.7400
17534TIP3    H274094   1.551   2.476   0.706  0.1187 -1.5079 -0.9710
17535TIP3   OH274095   4.885   1.663   0.662 -0.2605 -0.5093  0.3496
17535TIP3    H174096   4.833   1.601   0.611  1.5257 -1.2478 -0.6348
17535TIP3    H274097   4.891   1.623   0.749 -3.0219  0.5847  1.0854
17536TIP3   OH274098   2.037   5.571   3.141  0.2830 -0.5740  0.0444
17536TIP3    H174099   2.093   5.509   3.094  0.5582  0.5458 -1.1271
17536TIP3    H274100   2.071   5.572   3.230  0.4124 -1.9361  0.0317
17537TIP3   OH274101   1.928   6.390  13.189 -0.8429 -0.4368 -0.0727
17537TIP3    H174102   1.965   6.306  13.215 -1.0431 -0.1569  1.1197
17537TIP3    H274103   2.000   6.453  13.202 -1.1757 -0.1787  0.5436
17538TIP3   OH274104   5.747   3.185  11.171 -0.5145  0.3427  0.2096
17538TIP3    H174105   5.720   3.230  11.091 -1.5970 -1.4562 -0.4722
17538TIP3    H274106   5.828   3.229  11.198 -1.4189  2.5015 -0.5481
17539TIP3   OH274107   3.182   5.078  13.226 -0.2909 -0.2934 -0.7425
17539TIP3    H174108   3.258   5.039  13.269 -0.9235 -1.1130 -0.3587
17539TIP3    H274109   3.219   5.148  13.172  0.7746 -0.9156 -0.8416
17540TIP3   OH274110   3.431   6.749  11.856 -0.2507  0.1319  0.1414
17540TIP3    H174111   3.451   6.676  11.798  1.8288  1.2143 -0.5513
17540TIP3    H274112   3.359   6.796  11.813 -1.0739 -1.0654  0.2110
17541TIP3   OH274113   5.139   0.960  14.283 -0.4561 -0.2115 -0.3101
17541TIP3    H174114   5.107   0.939  14.195 -0.2809 -1.6308 -0.0523
17541TIP3    H274115   5.132   0.877  14.331  1.8526 -0.1125  0.2707
17542TIP3   OH274116   4.152   5.798  13.231 -0.0017  0.1047  0.1616
17542TIP3    H174117   4.081   5.806  13.295  0.3718  1.3124  0.4365
17542TIP3    H274118   4.111   5.754  13.156 -1.3648  1.8227 -0.1494
17543TIP3   OH274119   1.009   3.847   3.048 -0.5599  0.4185  0.2401
17543TIP3    H174120   1.031   3.940   3.045 -0.2434  0.3327 -0.0731
17543TIP3    H274121   0.945   3.836   2.977  0.9778 -0.0223 -1.0874
17544TIP3   OH274122   0.612   3.060  13.091 -0.2507 -0.2478 -0.4704
17544TIP3    H174123   0.573   3.122  13.152  0.2335 -0.5196  0.1126
17544TIP3    H274124   0.562   3.072  13.010 -1.3011 -0.3299  0.1599
17545TIP3   OH274125   6.724   6.120   5.228  0.2143  0.5763  0.2530
17545TIP3    H174126   6.670   6.043   5.209  1.8240 -0.5526  0.1618
17545TIP3    H274127   6.773   6.136   5.147  0.1720  1.4755  0.3953
17546TIP3   OH274128   5.454   5.397   5.963 -0.3488  0.5081  0.1229
17546TIP3    H174129   5.506   5.424   6.038 -0.6141  0.4655  0.3245
17546TIP3    H274130   5.406   5.320   5.994  0.2672 -0.0826 -0.3937
17547TIP3   OH274131   4.709   1.082   1.756 -0.1437  0.1671 -0.1089
17547TIP3    H174132   4.613   1.083   1.759 -0.1800 -1.5029  0.2869
17547TIP3    H274133   4.735   1.174   1.754 -1.6709  0.7698  3.2510
17548TIP3   OH274134   0.035   1.954   6.071 -0.4054  0.0217  0.3781
17548TIP3    H174135  -0.052   1.916   6.056 -0.9019  0.9270  0.9720
17548TIP3    H274136   0.020   2.048   6.072  0.7717  0.2302 -0.6817
17549TIP3   OH274137   6.001   6.807   1.602 -0.1210 -0.1378  0.0996
17549TIP3    H174138   6.071   6.857   1.645 -0.0206  0.4562 -0.7436
17549TIP3    H274139   5.985   6.734   1.661  0.9078 -0.0378  0.5220
17550TIP3   OH274140   6.252   3.084  16.851 -0.7258  0.3210  0.4447
17550TIP3    H174141   6.345   3.076  16.829 -0.8466  0.8968 -0.3122
17550TIP3    H274142   6.250   3.083  16.946  0.1697  1.4008  0.4927
17551TIP3   OH274143   6.510   0.030   4.824  0.4960  0.6313  0.2698
17551TIP3    H174144   6.528   0.122   4.843 -1.8103  1.4709 -1.4006
17551TIP3    H274145   6.433   0.032   4.768 -0.1010 -2.3746  0.9106
17552TIP3   OH274146   6.691   6.201   1.745 -0.3593  0.2555  0.4484
17552TIP3    H174147   6.599   6.225   1.733  0.0783  1.6713 -0.1795
17552TIP3    H274148   6.720   6.251   1.821 -0.4654 -1.2519  1.5077
17553TIP3   OH274149   1.073   0.417   2.891  0.5016  0.1587  0.5021
17553TIP3    H174150   1.058   0.511   2.899  0.9680  0.2398  0.4896
17553TIP3    H274151   1.169   0.408   2.896  0.3751 -0.4774  2.2205
17554TIP3   OH274152   4.405   1.404  10.582  0.0784  0.3945 -0.0883
17554TIP3    H174153   4.494   1.419  10.551 -0.6146  1.3014 -1.6847
17554TIP3    H274154   4.380   1.320  10.542  0.6690 -0.5358  1.4372
17555TIP3   OH274155   6.653   1.449  14.513  0.7072 -0.0691 -0.0873
17555TIP3    H174156   6.742   1.477  14.495  0.5331 -0.5803 -1.8588
17555TIP3    H274157   6.661   1.389  14.587  1.5016  1.8776  1.4284
17556TIP3   OH274158   0.101   3.042  14.400  0.6758 -0.1921  0.4318
17556TIP3    H174159   0.170   2.982  14.427  0.9758 -0.0977 -0.1147
17556TIP3    H274160   0.142   3.129  14.404 -0.0814  0.1061  2.3153
17557TIP3   OH274161   3.850   4.024  15.587  0.1532  0.4679 -0.3948
17557TIP3    H174162   3.904   4.085  15.636  0.6583  0.2206 -0.6426
17557TIP3    H274163   3.780   3.999  15.648  2.6468 -2.4442  1.4231
17558TIP3   OH274164   1.403   1.058  14.735 -0.2484  0.2760  0.0929
17558TIP3    H174165   1.315   1.095  14.727  0.1398  1.5755  1.3745
17558TIP3    H274166   1.461   1.128  14.704  0.4943  0.7003  2.3345
17559TIP3   OH274167   2.770   0.130  15.159  0.4153  0.4195 -0.0707
17559TIP3    H174168   2.837   0.155  15.224 -0.9384 -1.6110  2.1808
17559TIP3    H274169   2.805   0.052  15.117  0.4669  0.6920 -0.5438
17560TIP3   OH274170   6.179   5.762  15.437 -0.3007 -0.0140  0.3689
17560TIP3    H174171   6.192   5.735  15.527  0.9044  1.0913  0.5254
17560TIP3    H274172   6.186   5.857  15.438 -0.8456  0.0570 -0.7967
17561TIP3   OH274173   3.350   2.327   2.843 -0.5346 -0.6312  0.2947
17561TIP3    H174174   3.269   2.319   2.894 -1.2427 -0.2917 -0.7645
17561TIP3    H274175   3.358   2.421   2.827  0.3424 -0.6079  0.8133
17562TIP3   OH274176   4.707   1.953   5.110  0.3575  0.4096 -0.4643
17562TIP3    H174177   4.763   1.897   5.058 -0.4502 -0.9235  0.0596
17562TIP3    H274178   4.667   2.013   5.047  0.1331 -0.5499 -1.2521
17563TIP3   OH274179   0.025   3.051  13.784  0.0548  0.5112 -0.1910
17563TIP3    H174180  -0.001   3.117  13.849  0.4182  1.6698 -1.1900
17563TIP3    H274181   0.115   3.075  13.761  0.7846 -1.3693  0.6803
17564TIP3   OH274182   1.393   4.456  16.529 -0.0862 -0.0518  0.4892
17564TIP3    H174183   1.422   4.519  16.463  0.9712 -1.2975 -0.2606
17564TIP3    H274184   1.339   4.394  16.480  0.1784 -0.6179  0.9147
17565TIP3   OH274185   6.639   3.210   3.442 -0.4440  0.0313  0.3936
17565TIP3    H174186   6.631   3.297   3.403  2.2037  1.1853  2.2974
17565TIP3    H274187   6.598   3.218   3.528  0.1409 -0.5138  0.7245
17566TIP3   OH274188   3.385   4.557   4.922  0.5530  0.2199  0.4014
17566TIP3    H174189   3.427   4.632   4.965  0.8561 -0.6153  1.5844
17566TIP3    H274190   3.381   4.490   4.990  2.2865 -1.6139 -1.2561
17567TIP3   OH274191   1.918   2.910  12.661 -0.0118 -0.2934 -0.4600
17567TIP3    H174192   2.005   2.936  12.633 -0.3563  0.2417 -1.0538
17567TIP3    H274193   1.862   2.928  12.586 -0.3277 -2.4021 -0.7438
17568TIP3   OH274194   4.864   5.824  17.019  0.3798 -0.2787  0.3418
17568TIP3    H174195   4.877   5.754  16.955 -0.0362  0.1204 -0.1790
17568TIP3    H274196   4.770   5.824  17.036 -0.0179  1.7943 -1.5595
17569TIP3   OH274197   2.825   1.566  15.209 -0.5551  0.7176 -0.0398
17569TIP3    H174198   2.826   1.539  15.117 -3.4713  2.6010 -0.7132
17569TIP3    H274199   2.875   1.648  15.210 -1.9959  1.6264 -0.3283
17570TIP3   OH274200   6.633   3.048   5.642 -0.2142 -0.1314  0.2292
17570TIP3    H174201   6.631   3.087   5.555  1.3075 -0.4767  0.0283
17570TIP3    H274202   6.544   3.015   5.656 -1.6812  3.7961  0.6114
17571TIP3   OH274203   0.158   4.179   3.896  0.5081  1.0976  0.4415
17571TIP3    H174204   0.103   4.211   3.824 -0.7853  0.6219  1.2072
17571TIP3    H274205   0.106   4.110   3.937  1.6580  0.6919  1.2219
17572TIP3   OH274206   0.895   1.900  16.812 -0.5201 -0.5493  0.6163
17572TIP3    H174207   0.940   1.835  16.759 -1.0163  1.3543 -2.2791
17572TIP3    H274208   0.964   1.945  16.860 -0.0778 -2.4141  1.7469
17573TIP3   OH274209   6.649   6.781   4.451 -0.9258 -0.2307 -0.6568
17573TIP3    H174210   6.725   6.734   4.415 -0.9252  1.0010 -2.3245
17573TIP3    H274211   6.599   6.713   4.496  0.5392 -1.2911 -0.5596
17574TIP3   OH274212   6.781   4.098  17.245 -0.2868 -0.4493 -0.4978
17574TIP3    H174213   6.759   4.033  17.312  1.6750  0.4503  1.0324
17574TIP3    H274214   6.700   4.148  17.234 -0.2005  0.3890  2.3197
17575TIP3   OH274215   2.456   2.891  13.154 -0.2621  0.0423 -0.3872
17575TIP3    H174216   2.502   2.909  13.236  0.0089 -1.4731 -0.1922
17575TIP3    H274217   2.515   2.834  13.105  0.5196  2.6212 -2.5817
17576TIP3   OH274218   3.273   5.136  12.029 -0.2740 -0.4743 -0.1239
17576TIP3    H174219   3.278   5.060  12.088  0.1433 -0.3459  0.0026
17576TIP3    H274220   3.230   5.203  12.081  0.4058 -0.2484  0.1548
17577TIP3   OH274221   1.742   6.247   0.043  0.3350 -0.8315  0.1119
17577TIP3    H174222   1.663   6.257   0.095  0.2595 -0.4080 -0.0798
17577TIP3    H274223   1.712   6.255  -0.048  0.6223 -0.4652  0.0457
17578TIP3   OH274224   3.468   6.134  15.009  0.1371 -0.2341  0.0886
17578TIP3    H174225   3.506   6.048  15.030  1.0546  0.3883  1.0234
17578TIP3    H274226   3.496   6.191  15.080 -1.2441  0.6367 -0.0447
17579TIP3   OH274227   3.265   1.961   3.527  0.3922  0.4701 -0.4509
17579TIP3    H174228   3.348   1.921   3.503 -0.0168 -0.3918 -0.4768
17579TIP3    H274229   3.249   1.931   3.617  0.0283  0.4878 -0.5068
17580TIP3   OH274230   2.146   3.426  17.131  0.0962 -0.2179 -0.2586
17580TIP3    H174231   2.174   3.511  17.164 -2.2172  0.9045 -1.0503
17580TIP3    H274232   2.077   3.447  17.067 -1.2707 -2.7387  0.3263
17581TIP3   OH274233   2.664   2.379   5.216 -0.0553  0.5307 -0.4894
17581TIP3    H174234   2.633   2.452   5.163 -0.4034  0.4406 -0.4047
17581TIP3    H274235   2.696   2.315   5.152 -1.3879 -0.0011 -0.6304
17582TIP3   OH274236   1.312   6.616   2.135 -0.5061  0.0837  0.0471
17582TIP3    H174237   1.249   6.662   2.191 -0.0422  1.6402 -0.6967
17582TIP3    H274238   1.271   6.616   2.048 -0.1532 -0.2534 -0.1212
17583TIP3   OH274239   4.386   1.701   0.218 -0.3287  0.1696  0.3390
17583TIP3    H174240   4.384   1.718   0.313  1.4913 -1.0436  0.6168
17583TIP3    H274241   4.294   1.701   0.192 -0.9780 -1.5098  2.4741
17584TIP3   OH274242   6.760   5.485  11.917  0.2466  0.4185 -0.4452
17584TIP3    H174243   6.665   5.469  11.910 -0.3501  2.5379  2.0369
17584TIP3    H274244   6.789   5.423  11.984  0.5542 -0.0231 -0.9899
17585TIP3   OH274245   2.367   5.396  15.908  0.1279 -0.3627 -0.6368
17585TIP3    H174246   2.385   5.308  15.874 -1.3374 -2.5996  3.9188
17585TIP3    H274247   2.449   5.423  15.950  0.0426 -0.3584 -0.4708
17586TIP3   OH274248   6.570   1.357  16.914 -0.0569 -0.5219 -0.1043
17586TIP3    H174249   6.517   1.408  16.853 -1.3134 -2.1750 -0.4389
17586TIP3    H274250   6.631   1.309  16.858  0.5514 -0.0617  0.1495
17587TIP3   OH274251   5.582   3.860   1.843  0.1471  0.1150 -0.0726
17587TIP3    H174252   5.532   3.931   1.884  0.1186  0.2405 -0.3208
17587TIP3    H274253   5.668   3.863   1.885  0.0953  0.1940  0.0282
17588TIP3   OH274254   2.469   0.938   4.602  0.4730 -0.3252  0.2092
17588TIP3    H174255   2.391   0.965   4.554  2.3637  1.8951 -1.7702
17588TIP3    H274256   2.448   0.851   4.636 -2.2889 -0.4006 -1.5377
17589TIP3   OH274257   5.726   5.270  10.918  0.3394  0.2325 -0.1339
17589TIP3    H174258   5.708   5.358  10.953 -0.7637 -0.2793  0.6087
17589TIP3    H274259   5.788   5.285  10.847  0.8170  1.5337  0.5352
17590TIP3   OH274260   6.718   5.000  14.738  0.2529  0.0057 -0.1335
17590TIP3    H174261   6.740   4.953  14.658  2.0511  0.1513  0.2452
17590TIP3    H274262   6.748   4.943  14.809 -0.3474  0.3448  0.3948
17591TIP3   OH274263   0.491   0.085  13.447 -0.3441 -0.7110  0.0726
17591TIP3    H174264   0.527   0.090  13.358  0.8218  1.9359  0.6333
17591TIP3    H274265   0.565   0.061  13.502 -0.6611 -0.5834  0.5610
17592TIP3   OH274266   2.938   0.642   3.113  0.2348  0.0835 -0.4503
17592TIP3    H174267   2.944   0.562   3.060  2.5616  0.6620 -1.1398
17592TIP3    H274268   2.986   0.622   3.193 -0.5973  0.2390  0.0859
17593TIP3   OH274269   3.922   5.103  15.199 -0.1621 -0.1202  0.3622
17593TIP3    H174270   3.956   5.033  15.255  0.2646 -2.0846 -2.2688
17593TIP3    H274271   3.988   5.172  15.203  0.3223 -0.6385  1.5079
17594TIP3   OH274272   3.778   3.833   4.416 -0.1668 -0.6832 -0.1086
17594TIP3    H174273   3.825   3.849   4.497 -1.3442 -0.2546  0.5039
17594TIP3    H274274   3.759   3.920   4.382  0.1698 -0.8588 -0.7581
17595TIP3   OH274275   1.862   1.774  12.048 -0.2102 -0.4248  0.3244
17595TIP3    H174276   1.809   1.853  12.055 -1.2396 -1.1180  0.5065
17595TIP3    H274277   1.893   1.775  11.957 -1.7014 -0.7149 -0.2185
17596TIP3   OH274278   3.177   3.751  13.613  0.3359 -0.1957  0.0988
17596TIP3    H174279   3.151   3.814  13.680 -0.0847  0.5743 -0.7759
17596TIP3    H274280   3.221   3.681  13.662 -0.3928  0.1181  1.2230
17597TIP3   OH274281   2.110   4.212  13.262  0.3967  0.1345 -0.2078
17597TIP3    H174282   2.169   4.272  13.216  1.8855 -1.9456 -1.1031
17597TIP3    H274283   2.044   4.269  13.301  1.8593  2.3658 -0.8627
17598TIP3   OH274284   6.033   5.409   3.705  0.0155 -0.2292 -0.2571
17598TIP3    H174285   6.039   5.365   3.790 -0.2957 -2.3378 -1.3046
17598TIP3    H274286   6.015   5.339   3.643 -2.7075  1.6611 -1.6857
17599TIP3   OH274287   3.004   5.877  11.367  0.6147 -0.6094 -0.3565
17599TIP3    H174288   2.966   5.823  11.436  1.1950  0.6580  0.9815
17599TIP3    H274289   2.930   5.897  11.310 -0.1699 -0.5241  0.6705
17600TIP3   OH274290   6.105   4.719  12.692  0.5385  0.1460  0.3996
17600TIP3    H174291   6.200   4.710  12.684  0.5719  1.8985 -1.3177
17600TIP3    H274292   6.075   4.735  12.603 -1.2381  0.9087  1.1291
17601TIP3   OH274293   1.378   5.498  16.402 -0.3188 -0.1224 -0.1212
17601TIP3    H174294   1.366   5.536  16.315  1.0135  0.4790 -0.0620
17601TIP3    H274295   1.442   5.428  16.389 -1.3796 -1.1402  0.0939
17602TIP3   OH274296   3.821   4.140   2.573  0.4342 -0.1376 -0.0078
17602TIP3    H174297   3.797   4.086   2.497 -1.1013  1.0024 -0.3558
17602TIP3    H274298   3.738   4.157   2.617  0.9520  1.6364  0.3060
17603TIP3   OH274299   0.737   4.692  16.993  0.4169 -0.5030 -0.4058
17603TIP3    H174300   0.815   4.687  17.047  0.3815 -1.6332 -0.4551
17603TIP3    H274301   0.687   4.613  17.015 -2.5335  1.9758  2.4260
17604TIP3   OH274302   4.825   5.429  15.276  0.1652  0.4034  0.2951
17604TIP3    H174303   4.746   5.466  15.316  0.4932  0.6269  0.7426
17604TIP3    H274304   4.865   5.503  15.230  1.6984  1.0546  2.5480
17605TIP3   OH274305   0.360   5.273   0.481  0.2245 -0.6200  0.2817
17605TIP3    H174306   0.312   5.353   0.503  2.1051  1.3804 -2.5811
17605TIP3    H274307   0.304   5.229   0.417 -0.7405 -1.5421  1.7439
17606TIP3   OH274308   5.903   5.795  11.692 -0.2022  0.1676  0.0782
17606TIP3    H174309   5.957   5.717  11.706  0.0109  0.6436  1.9321
17606TIP3    H274310   5.962   5.860  11.655 -0.2119 -0.2929 -0.7679
17607TIP3   OH274311   4.344   2.337   5.026  0.1060  0.1754 -0.6239
17607TIP3    H174312   4.379   2.425   5.013  1.0079  0.0647  1.0260
17607TIP3    H274313   4.256   2.341   4.987 -0.7802  2.4913  1.4951
17608TIP3   OH274314   1.798   4.600  13.368  0.1436  0.1128 -0.1218
17608TIP3    H174315   1.810   4.693  13.350  1.1932  0.1327  0.6673
17608TIP3    H274316   1.887   4.564  13.371 -0.3063 -1.3215 -2.5484
17609TIP3   OH274317   3.797   5.637  13.621  0.4947 -0.2864 -0.3101
17609TIP3    H174318   3.819   5.730  13.622  2.0194 -0.6355 -1.0037
17609TIP3    H274319   3.814   5.607  13.710 -0.7197  0.2404  0.1198
17610TIP3   OH274320   1.607   1.047  16.310  0.4534 -0.1317  0.3331
17610TIP3    H174321   1.680   1.103  16.282  0.1124  0.9746  1.6005
17610TIP3    H274322   1.552   1.039  16.232  1.3196 -0.0010 -0.2986
17611TIP3   OH274323   5.505   2.345   4.538  0.6090  0.5525  0.1211
17611TIP3    H174324   5.420   2.387   4.522  1.0067  1.4280  0.2391
17611TIP3    H274325   5.541   2.393   4.613  1.5846  0.7679 -0.4802
17612TIP3   OH274326   0.057   1.533  12.090 -0.6722 -0.1999 -0.1855
17612TIP3    H174327   0.008   1.497  12.164  1.3056 -0.3699  1.0810
17612TIP3    H274328   0.134   1.477  12.083 -0.2978  0.4757 -1.7005
17613TIP3   OH274329   6.556   0.873  16.567 -0.2921 -0.5596  0.7144
17613TIP3    H174330   6.650   0.870  16.552 -0.1278 -0.9986  1.8642
17613TIP3    H274331   6.526   0.784  16.551 -0.3398 -0.6896  1.5520
17614TIP3   OH274332   0.325   2.592   3.649  0.1398  0.3523  0.1427
17614TIP3    H174333   0.404   2.559   3.693  0.1015 -0.3919 -0.3162
17614TIP3    H274334   0.262   2.607   3.719  0.6094  0.7086  0.4893
17615TIP3   OH274335   4.620   3.944  13.803 -0.2126 -0.2771 -0.3020
17615TIP3    H174336   4.708   3.931  13.838 -0.3753  0.1244  0.2640
17615TIP3    H274337   4.564   3.891  13.859 -0.5724  0.9751  0.5493
17616TIP3   OH274338   2.766   3.258  11.068 -0.0646  0.0031 -0.3876
17616TIP3    H174339   2.812   3.336  11.036  1.2308 -0.4130  0.4775
17616TIP3    H274340   2.774   3.195  10.997  1.7474 -0.4911  0.2544
17617TIP3   OH274341   1.373   5.797  13.811 -0.4769  0.5726  0.4520
17617TIP3    H174342   1.447   5.822  13.756 -0.2633 -1.7317 -0.3629
17617TIP3    H274343   1.342   5.714  13.774 -4.0743  1.9304  0.1853
17618TIP3   OH274344   5.290   1.343   6.529 -0.0737 -0.4701  0.6739
17618TIP3    H174345   5.217   1.281   6.533  0.9796 -2.0657 -2.6869
17618TIP3    H274346   5.340   1.328   6.609 -1.4111 -1.9495  1.2523
17619TIP3   OH274347   6.174   5.837   1.058  0.1927 -0.3251 -0.0930
17619TIP3    H174348   6.211   5.899   0.995  0.4457 -1.1965 -0.8230
17619TIP3    H274349   6.121   5.891   1.117  1.4433  0.7461  0.0748
17620TIP3   OH274350   1.254   2.598  15.716  0.1718  0.7214  0.0148
17620TIP3    H174351   1.269   2.627  15.626 -0.0605  0.7222 -0.0265
17620TIP3    H274352   1.164   2.565  15.715 -0.4274  2.2911  0.6413
17621TIP3   OH274353   5.783   2.997  14.965 -0.4511 -0.0923 -0.0013
17621TIP3    H174354   5.746   2.948  15.039 -0.7113 -0.5990 -0.4671
17621TIP3    H274355   5.735   3.080  14.964 -0.9391 -0.3746 -0.0383
17622TIP3   OH274356   3.629   2.947   6.126 -0.3754 -0.1174 -0.1238
17622TIP3    H174357   3.656   2.982   6.211  0.0302 -0.6343 -0.0374
17622TIP3    H274358   3.694   2.979   6.064 -0.2410 -0.3695 -0.1142
17623TIP3   OH274359   5.645   1.362   1.207 -0.5333 -0.3317 -0.5486
17623TIP3    H174360   5.612   1.373   1.117  1.3411 -0.1688 -1.2357
17623TIP3    H274361   5.696   1.281   1.204  0.0879  0.0280  0.2155
17624TIP3   OH274362   4.329   1.640  13.606  0.1436  0.4399  0.1967
17624TIP3    H174363   4.252   1.683  13.643 -0.4302 -0.1359 -0.3109
17624TIP3    H274364   4.387   1.711  13.582  0.1399  0.8579  1.3753
17625TIP3   OH274365   6.260   5.401  16.884  0.8949  0.1945 -0.0673
17625TIP3    H174366   6.193   5.466  16.905 -0.6261 -1.0323 -1.0046
17625TIP3    H274367   6.211   5.323  16.861  2.6802 -0.8936 -0.2727
17626TIP3   OH274368   4.854   3.860   4.720  0.3970 -0.3547  0.1421
17626TIP3    H174369   4.928   3.822   4.768  1.1381 -0.4957 -1.0919
17626TIP3    H274370   4.891   3.935   4.673 -0.5772  0.5180  0.7407
17627TIP3   OH274371   5.146   0.493  14.424  0.2503  0.2051  0.1446
17627TIP3    H174372   5.133   0.588  14.430 -0.2312  0.2402 -1.1849
17627TIP3    H274373   5.065   0.456  14.459  0.3697  0.2836  0.5072
17628TIP3   OH274374   5.368   2.151  14.392  0.5436  0.1082 -0.0690
17628TIP3    H174375   5.295   2.096  14.361  0.8957  1.2278 -2.9656
17628TIP3    H274376   5.439   2.089  14.406 -0.1413 -0.6488  0.1483
17629TIP3   OH274377   4.325   0.521   0.222 -0.4360  0.6176  0.2764
17629TIP3    H174378   4.233   0.531   0.245 -1.1187 -2.6219 -0.7571
17629TIP3    H274379   4.326   0.526   0.126  0.6660  1.8972  0.3385
17630TIP3   OH274380   3.737   4.698   2.506  0.4693 -0.2603 -0.9637
17630TIP3    H174381   3.682   4.692   2.428 -0.4523 -0.0640 -0.3458
17630TIP3    H274382   3.706   4.627   2.562  2.4013 -1.6041 -1.5519
17631TIP3   OH274383   2.463   2.252  12.596 -0.1835 -0.3843 -0.0511
17631TIP3    H174384   2.377   2.228  12.563 -0.7570 -0.7493  1.6706
17631TIP3    H274385   2.447   2.326  12.655  0.9501  0.9224 -1.3098
17632TIP3   OH274386   0.276   1.734   5.960 -0.5154 -0.5862 -0.3216
17632TIP3    H174387   0.343   1.667   5.946 -0.1419 -0.1711 -0.5498
17632TIP3    H274388   0.232   1.708   6.041  0.3825 -0.4817  0.2075
17633TIP3   OH274389   0.880   2.346  15.576  0.0583 -0.1867  0.6055
17633TIP3    H174390   0.832   2.392  15.645  1.7510  0.0924  1.6045
17633TIP3    H274391   0.948   2.407  15.548 -0.0544 -0.6380 -0.6982
17634TIP3   OH274392   4.546   2.230  14.498 -0.0023  0.6653 -0.0155
17634TIP3    H174393   4.533   2.317  14.461 -1.0497  0.0576 -1.1325
17634TIP3    H274394   4.493   2.173  14.442 -0.3794 -0.4957  1.5035
17635TIP3   OH274395   4.128   1.208  14.641  0.4582 -0.5089  0.6892
17635TIP3    H174396   4.144   1.221  14.734 -1.4755 -0.9853  1.1023
17635TIP3    H274397   4.034   1.197  14.633  0.7351 -2.0354 -1.1294
17636TIP3   OH274398   6.274   3.634   4.833 -0.9152 -1.0387 -0.1236
17636TIP3    H174399   6.335   3.662   4.765 -1.2060  0.4290  0.1918
17636TIP3    H274400   6.188   3.659   4.800 -0.9440  1.0644  1.3952
17637TIP3   OH274401   5.439   3.777   2.106  0.2484 -0.0832 -0.0392
17637TIP3    H174402   5.534   3.789   2.111  0.2597 -0.3711  0.3829
17637TIP3    H274403   5.404   3.830   2.178  0.0986 -0.1103 -0.0918
17638TIP3   OH274404   2.761   3.986   2.121  0.5881 -0.1299  0.4498
17638TIP3    H174405   2.791   4.057   2.177 -0.5099  0.5353  0.2096
17638TIP3    H274406   2.667   4.000   2.113  0.8668  0.4410 -2.4500
17639TIP3   OH274407   1.160   1.103  12.286  0.2199 -0.2180 -0.2184
17639TIP3    H174408   1.254   1.090  12.276 -0.0134 -1.1490 -1.3396
17639TIP3    H274409   1.126   1.101  12.196 -1.0289 -1.2759  0.2524
17640TIP3   OH274410   3.130   2.832  11.011  0.0750 -0.3441 -0.1174
17640TIP3    H174411   3.050   2.802  11.054 -0.1153  1.7859  1.0805
17640TIP3    H274412   3.117   2.927  11.001  1.7707 -0.2299 -1.3700
17641TIP3   OH274413   1.620   2.055   1.058 -0.1285  0.3602 -0.0267
17641TIP3    H174414   1.658   2.007   1.132 -0.0282 -0.1968 -0.4400
17641TIP3    H274415   1.568   2.124   1.099  1.1090  0.9755  0.5630
17642TIP3   OH274416   0.601   6.702   3.098  0.4361 -0.0766 -0.7628
17642TIP3    H174417   0.618   6.615   3.063  1.0192 -0.7184  1.0667
17642TIP3    H274418   0.556   6.748   3.028  1.4406 -1.3774 -2.2785
17643TIP3   OH274419   3.652   4.797  15.068  0.0651 -0.1950  0.0329
17643TIP3    H174420   3.673   4.872  15.013 -1.0033  0.8980  1.0749
17643TIP3    H274421   3.564   4.771  15.040 -1.0857  1.2676  2.1373
17644TIP3   OH274422   5.632   4.291  14.867  0.0893 -0.0923 -0.3167
17644TIP3    H174423   5.724   4.310  14.884 -0.2789  1.0533  0.4383
17644TIP3    H274424   5.591   4.377  14.860 -0.9178 -0.6019 -0.6660
17645TIP3   OH274425   6.125   1.054   1.680 -0.3512 -1.0135  0.0548
17645TIP3    H174426   6.078   1.137   1.691  3.9472  1.5349  0.0957
17645TIP3    H274427   6.128   1.042   1.585  0.6377 -0.0707 -0.0537
17646TIP3   OH274428   3.230   4.791   1.209 -0.0213  0.0333  0.3425
17646TIP3    H174429   3.306   4.732   1.219  0.7018  0.4327 -2.3323
17646TIP3    H274430   3.180   4.779   1.290  2.6967 -0.5093  2.0420
17647TIP3   OH274431   4.076   3.465  17.162  0.4547  0.0872 -0.0947
17647TIP3    H174432   4.001   3.462  17.102  0.1244  1.2622  0.2355
17647TIP3    H274433   4.036   3.481  17.248  1.0703  0.5134  0.1121
17648TIP3   OH274434   0.319   2.838  13.684  0.3454  0.2092 -0.4191
17648TIP3    H174435   0.400   2.834  13.633 -0.1465 -0.1151 -1.1703
17648TIP3    H274436   0.249   2.831  13.620 -0.2702 -1.2817  0.3796
17649TIP3   OH274437   2.280   4.714   2.112  0.1127 -0.0327  0.7834
17649TIP3    H174438   2.367   4.694   2.146  0.8453 -0.7840 -1.4162
17649TIP3    H274439   2.288   4.803   2.078  0.9446 -1.1384 -2.1037
17650TIP3   OH274440   2.938   5.292   2.989  0.0144 -0.5387 -0.0147
17650TIP3    H174441   2.931   5.289   3.085 -0.2759 -2.9595 -0.0737
17650TIP3    H274442   2.874   5.357   2.963 -0.5563 -0.5099  1.3885
17651TIP3   OH274443   0.021   2.670   5.586  0.0612 -0.1071  0.2974
17651TIP3    H174444   0.097   2.616   5.604 -0.5995 -0.3290  2.4852
17651TIP3    H274445   0.055   2.759   5.581  0.6785 -0.3702 -0.2677
17652TIP3   OH274446   6.138   0.921  13.940 -0.1856  0.5567 -0.0433
17652TIP3    H174447   6.082   0.956  13.871 -0.1641  0.6146 -0.0305
17652TIP3    H274448   6.182   0.846  13.900 -1.0839 -0.1401  0.2688
17653TIP3   OH274449   2.708   6.287  12.450 -0.7223  0.1112  0.3164
17653TIP3    H174450   2.762   6.222  12.406 -0.1515  0.3292  0.6982
17653TIP3    H274451   2.682   6.348  12.381  2.8276  2.2999  0.8326
17654TIP3   OH274452   1.473   3.355   3.043 -0.4324 -0.1708  0.6374
17654TIP3    H174453   1.412   3.288   3.012 -0.2506  0.3232 -0.8514
17654TIP3    H274454   1.504   3.322   3.127 -2.3309 -0.6932  1.1717
17655TIP3   OH274455   5.546   5.340  14.365 -0.4771  0.1383 -0.5672
17655TIP3    H174456   5.634   5.341  14.330 -0.4865 -0.2401 -0.6071
17655TIP3    H274457   5.498   5.279  14.309 -0.5430 -0.3135 -0.0341
17656TIP3   OH274458   4.163   3.694   4.648 -0.7336 -0.3621 -0.3556
17656TIP3    H174459   4.233   3.661   4.704  0.0103  0.9217 -0.5034
17656TIP3    H274460   4.147   3.783   4.679  1.0849  1.1395 -3.4136
17657TIP3   OH274461   4.604   6.762  11.815 -0.2261  0.4692  0.9075
17657TIP3    H174462   4.555   6.683  11.792 -1.5033  1.2073  1.0089
17657TIP3    H274463   4.548   6.834  11.785  0.7291  1.3394  1.1853
17658TIP3   OH274464   0.034   4.794   4.934 -0.6929  0.0321 -1.0820
17658TIP3    H174465  -0.003   4.833   4.855 -0.2981  1.7820 -0.4271
17658TIP3    H274466   0.113   4.845   4.951 -0.2647 -0.9500 -0.1037
17659TIP3   OH274467   4.662   2.605  13.273  0.0425  0.1194 -0.3440
17659TIP3    H174468   4.721   2.605  13.197  0.8979 -0.6022  0.3119
17659TIP3    H274469   4.626   2.516  13.275  1.0129 -0.2548  0.8504
17660TIP3   OH274470   0.279   4.044   2.449  0.0428 -0.2827 -0.3779
17660TIP3    H174471   0.195   4.081   2.479 -0.6660 -0.0102 -2.5610
17660TIP3    H274472   0.282   3.956   2.487 -0.0905  0.5774  1.6853
17661TIP3   OH274473   2.585   3.399  13.291  0.0419  0.6331 -0.0681
17661TIP3    H174474   2.663   3.409  13.347  0.3512  0.5382 -0.4839
17661TIP3    H274475   2.606   3.447  13.211  0.0137 -0.1169 -0.5279
17662TIP3   OH274476   2.960   5.905  14.502 -0.3207  0.1264 -0.0704
17662TIP3    H174477   2.962   5.909  14.598 -0.2962 -2.5617  0.0763
17662TIP3    H274478   2.877   5.947  14.478 -0.0724  1.3086  1.0953
17663TIP3   OH274479   5.854   6.270   2.954  0.9233  0.5114 -0.2759
17663TIP3    H174480   5.858   6.322   2.874 -0.2572  0.6194 -0.2757
17663TIP3    H274481   5.937   6.288   3.000  1.0071  1.4957 -0.8162
17664TIP3   OH274482   3.657   2.307  14.475  0.6853  0.9282  0.4272
17664TIP3    H174483   3.634   2.361  14.400 -1.5355  0.2804  0.6116
17664TIP3    H274484   3.735   2.259  14.447 -0.1076  0.7031 -1.4695
17665TIP3   OH274485   3.541   1.577   6.253  0.1524  0.2587 -0.9007
17665TIP3    H174486   3.571   1.488   6.273 -0.5378 -0.1020 -1.4390
17665TIP3    H274487   3.452   1.565   6.220 -0.2150  1.2184 -0.2807
17666TIP3   OH274488   1.468   2.929   5.466 -0.0057  1.0769 -0.0602
17666TIP3    H174489   1.515   3.009   5.444 -0.2438  1.3508  0.4233
17666TIP3    H274490   1.475   2.922   5.561 -2.0139  1.8177  0.1847
17667TIP3   OH274491   0.272   3.188  13.557  0.6506  0.4347  0.5169
17667TIP3    H174492   0.261   3.181  13.652  0.3875  0.3861  0.4849
17667TIP3    H274493   0.234   3.107  13.523  0.5248  0.5629  0.3531
17668TIP3   OH274494   6.496   5.266  12.540  0.0678  0.5698  0.3223
17668TIP3    H174495   6.483   5.197  12.606 -0.0869  0.5380  0.2619
17668TIP3    H274496   6.549   5.224  12.473 -0.2922  0.4071  0.1334
17669TIP3   OH274497   1.177   5.182   4.555 -0.2213 -0.4340  0.1758
17669TIP3    H174498   1.244   5.124   4.589 -1.6078 -2.0130  0.2906
17669TIP3    H274499   1.158   5.148   4.467  0.2241  0.9440 -0.4693
17670TIP3   OH274500   3.347   6.304   5.998 -0.4214  0.5767  0.3111
17670TIP3    H174501   3.426   6.304   5.944  0.3562  1.2877  1.4197
17670TIP3    H274502   3.275   6.296   5.936  0.5888 -2.3388 -0.5752
17671TIP3   OH274503   1.577   0.262  15.199  0.0618 -0.2705 -0.6556
17671TIP3    H174504   1.523   0.340  15.196  0.7317  0.1249 -3.0194
17671TIP3    H274505   1.661   0.292  15.234  0.0136 -0.1391 -0.6535
17672TIP3   OH274506   3.215   3.553   5.471  0.0554  0.2258 -0.1076
17672TIP3    H174507   3.229   3.558   5.566 -0.0463  1.9014 -0.1699
17672TIP3    H274508   3.132   3.507   5.462 -0.4906  1.0318  0.6662
17673TIP3   OH274509   2.774   3.062  10.848  0.5852  0.6930 -0.2107
17673TIP3    H174510   2.698   3.015  10.814  0.5952  0.9065 -0.5234
17673TIP3    H274511   2.823   3.088  10.771  0.6115  1.1674 -0.0378
17674TIP3   OH274512   0.602   0.741   4.399  0.1552  0.4709 -0.3429
17674TIP3    H174513   0.632   0.728   4.489  1.5889  0.1880 -0.8463
17674TIP3    H274514   0.561   0.658   4.375  3.1396 -0.7984 -1.2112
17675TIP3   OH274515   3.279   4.354  12.380  0.5671  0.0174  0.1072
17675TIP3    H174516   3.350   4.397  12.333 -0.4115  0.2141 -1.2056
17675TIP3    H274517   3.317   4.333  12.465  2.0822  0.4584 -0.4363
17676TIP3   OH274518   1.547   6.507   5.085 -0.6168  0.5738 -0.4308
17676TIP3    H174519   1.584   6.594   5.070 -2.5088  1.7104  1.1542
17676TIP3    H274520   1.550   6.496   5.180 -1.1253 -0.7650 -0.5637
17677TIP3   OH274521   1.648   3.548  16.674 -0.6604  0.1738  0.2882
17677TIP3    H174522   1.654   3.561  16.769  0.1355 -1.3195  0.4544
17677TIP3    H274523   1.660   3.454  16.661 -0.3268  0.4124 -1.3236
17678TIP3   OH274524   3.478   5.105   2.705 -0.3001  0.1233  0.5781
17678TIP3    H174525   3.501   5.030   2.760 -0.0969 -0.0198  0.3072
17678TIP3    H274526   3.521   5.086   2.621  1.5315  1.5692  1.1623
17679TIP3   OH274527   1.335   2.678  15.184  0.9470 -0.0424  0.1561
17679TIP3    H174528   1.294   2.653  15.101 -0.5845 -0.2307  0.9396
17679TIP3    H274529   1.380   2.761  15.165  0.9051 -0.2603 -0.9388
17680TIP3   OH274530   2.299   3.471  15.257 -0.3634 -0.2185 -0.0573
17680TIP3    H174531   2.307   3.436  15.345  4.1377  0.4319 -0.0841
17680TIP3    H274532   2.266   3.560  15.268  0.7339  0.0541  1.0140
17681TIP3   OH274533   4.875   5.905  13.799 -0.1766  0.6379 -0.2099
17681TIP3    H174534   4.923   5.822  13.809  1.8241  1.6468 -1.1667
17681TIP3    H274535   4.787   5.885  13.832  1.0772 -1.0475  2.3922
17682TIP3   OH274536   5.916   1.778   5.083 -0.4431 -0.4075 -0.4541
17682TIP3    H174537   5.921   1.832   5.004 -1.4470 -2.7835 -2.1695
17682TIP3    H274538   6.006   1.778   5.117  0.4170 -0.9458 -2.6686
17683TIP3   OH274539   5.932   1.166  15.546  0.4564 -0.1710  0.4438
17683TIP3    H174540   5.920   1.230  15.616  0.1976  1.2780 -0.8938
17683TIP3    H274541   5.845   1.128  15.534  0.2187  0.4721  0.0781
17684TIP3   OH274542   4.413   2.188  17.090  0.5524  0.2918  0.3015
17684TIP3    H174543   4.329   2.180  17.046  0.8190  1.3014 -0.4148
17684TIP3    H274544   4.394   2.236  17.171  0.5064  0.9114 -0.0747
17685TIP3   OH274545   1.398   4.174   1.141  0.6634 -0.0056 -0.0506
17685TIP3    H174546   1.443   4.258   1.151  0.3118  0.1780 -0.0029
17685TIP3    H274547   1.392   4.161   1.046  1.6018 -0.4531 -0.0449
17686TIP3   OH274548   1.548   5.047   0.794  0.0112 -0.0301  0.3809
17686TIP3    H174549   1.524   4.994   0.870 -1.4426 -1.0459 -0.7619
17686TIP3    H274550   1.512   5.000   0.719  0.4003  1.5656 -0.8399
17687TIP3   OH274551   6.243   0.593   3.269 -0.5877  0.0666  0.6859
17687TIP3    H174552   6.210   0.640   3.192  0.5949  1.0404  0.7584
17687TIP3    H274553   6.215   0.647   3.343  0.3389  0.4084  0.7974
17688TIP3   OH274554   4.912   2.858   2.985 -0.2695  0.1208 -0.4288
17688TIP3    H174555   4.887   2.876   3.076 -0.5925 -1.6171 -0.1668
17688TIP3    H274556   4.831   2.874   2.935 -0.4959 -0.3776 -0.2243
17689TIP3   OH274557   3.154   3.303   4.461  0.4616  0.0140 -0.3359
17689TIP3    H174558   3.139   3.261   4.376 -0.4619  0.4845 -0.4115
17689TIP3    H274559   3.102   3.252   4.523  0.7714 -0.0508 -0.1267
17690TIP3   OH274560   1.785   0.896   4.614 -0.1589  0.5385  0.2038
17690TIP3    H174561   1.841   0.849   4.675  0.9293 -0.2997 -1.3965
17690TIP3    H274562   1.738   0.828   4.565 -2.4309  1.2165  1.3394
17691TIP3   OH274563   4.953   3.666  15.094 -0.0332 -0.1148 -0.0377
17691TIP3    H174564   5.001   3.644  15.174 -2.4592 -1.1710  1.1594
17691TIP3    H274565   4.928   3.758  15.106  0.9585  0.1913 -0.2930
17692TIP3   OH274566   6.740   0.476  13.804  0.4700  0.7014  0.0660
17692TIP3    H174567   6.810   0.529  13.766 -0.5454  1.5049 -0.7025
17692TIP3    H274568   6.696   0.437  13.728 -0.1022  0.4334  0.5323
17693TIP3   OH274569   2.583   5.223  11.478  0.1831  0.1959  0.0886
17693TIP3    H174570   2.512   5.166  11.448 -1.1160  2.3764 -1.0510
17693TIP3    H274571   2.642   5.164  11.526 -2.6713 -1.5427  1.5523
17694TIP3   OH274572   2.924   3.171  14.072 -0.5147 -0.6976  0.3148
17694TIP3    H174573   2.980   3.198  14.145  0.4355  0.8028 -0.9437
17694TIP3    H274574   2.974   3.106  14.024 -1.3958 -2.1596  1.3315
17695TIP3   OH274575   6.146   3.675  12.969  0.2278 -0.4472 -0.4138
17695TIP3    H174576   6.090   3.753  12.976 -0.8004 -1.3064  1.1986
17695TIP3    H274577   6.096   3.614  12.915 -0.4665 -1.2478  1.0969
17696TIP3   OH274578   0.478   1.236  12.218  0.2452  0.0657  0.5235
17696TIP3    H174579   0.446   1.248  12.128  1.5139  0.5470  0.1327
17696TIP3    H274580   0.434   1.157  12.249 -1.0206  0.4800 -0.1415
17697TIP3   OH274581   0.537   3.651   4.007 -0.1699 -0.5580 -0.4621
17697TIP3    H174582   0.458   3.692   4.045  0.8304  0.0893  0.9655
17697TIP3    H274583   0.557   3.705   3.931 -0.4905 -0.0831 -0.2163
17698TIP3   OH274584   1.347   6.212  16.215 -0.1808  0.0029 -0.3161
17698TIP3    H174585   1.316   6.181  16.130  0.9819 -2.1108  0.0086
17698TIP3    H274586   1.273   6.262  16.250 -1.0658 -0.0255 -2.0819
17699TIP3   OH274587   4.474   1.381  16.180  0.4304 -0.3219  0.1103
17699TIP3    H174588   4.539   1.409  16.245  0.4568 -0.5503  0.1830
17699TIP3    H274589   4.474   1.285  16.186  0.6122 -0.3602 -0.3981
17700TIP3   OH274590   1.588   6.112  17.086  0.6114 -0.1538  0.6045
17700TIP3    H174591   1.530   6.100  17.010  2.1352 -1.0833 -0.4523
17700TIP3    H274592   1.528   6.130  17.158 -0.8772  0.9228 -0.8365
17701TIP3   OH274593   5.390   5.434   0.401 -0.3615  0.5040  0.2848
17701TIP3    H174594   5.463   5.374   0.414 -0.7656  0.0716  0.5886
17701TIP3    H274595   5.321   5.400   0.458 -0.0537  2.1847  1.7321
17702TIP3   OH274596   0.540   0.594   1.186 -0.7376 -0.2982 -0.5086
17702TIP3    H174597   0.594   0.593   1.265  1.2212  0.6870 -1.7753
17702TIP3    H274598   0.470   0.656   1.206  1.5136  2.4276 -0.5982
17703TIP3   OH274599   0.115   5.696  12.829  0.5141 -0.1058 -0.1417
17703TIP3    H174600   0.041   5.661  12.879  1.6507 -0.6310  1.2181
17703TIP3    H274601   0.136   5.626  12.767 -0.0139 -0.0217 -0.4209
17704TIP3   OH274602   3.010   1.085   2.999  0.5150 -0.2339 -0.2163
17704TIP3    H174603   2.967   1.080   2.913  1.9136  0.0735 -0.9520
17704TIP3    H274604   3.044   0.997   3.014  0.0937 -0.3399  0.1228
17705TIP3   OH274605   2.861   2.592   1.127 -0.1914 -0.4019 -0.0816
17705TIP3    H174606   2.789   2.647   1.095  0.2724 -0.8884 -1.9834
17705TIP3    H274607   2.899   2.642   1.199 -0.1323  1.5271 -1.4296
17706TIP3   OH274608   0.245   4.172   1.466 -0.5295  0.1291 -0.3629
17706TIP3    H174609   0.251   4.079   1.487  0.1457 -0.2997 -2.2996
17706TIP3    H274610   0.336   4.202   1.465 -0.7698  0.8716  0.5498
17707TIP3   OH274611   6.468   3.699  13.439  0.0825  0.0174  0.1368
17707TIP3    H174612   6.478   3.694  13.344 -0.2440 -1.4668  0.1756
17707TIP3    H274613   6.555   3.725  13.470  0.1087  0.8181 -0.5847
17708TIP3   OH274614   5.318   1.379  16.171  0.0896  0.9756 -0.2040
17708TIP3    H174615   5.306   1.328  16.091 -0.3985  0.5669  0.1311
17708TIP3    H274616   5.347   1.465  16.140  0.0870  0.7608 -0.8077
17709TIP3   OH274617   1.648   1.499   4.306  0.2640 -0.0782 -0.0041
17709TIP3    H174618   1.602   1.548   4.374  0.7084  1.3120 -0.6761
17709TIP3    H274619   1.657   1.562   4.234  0.1130 -1.4123 -1.2076
17710TIP3   OH274620   6.491   2.747   0.730  0.1392 -0.2386 -0.3023
17710TIP3    H174621   6.454   2.806   0.795 -1.9118 -0.9839 -0.7472
17710TIP3    H274622   6.577   2.725   0.764  0.4968  2.1042  0.4278
17711TIP3   OH274623   5.641   0.280  10.737  0.0507 -0.1078 -0.5407
17711TIP3    H174624   5.568   0.221  10.757 -0.7011  0.5177 -1.4227
17711TIP3    H274625   5.719   0.224  10.743 -0.5003 -0.8156  0.2559
17712TIP3   OH274626   2.993   3.411   5.543 -0.4809 -0.3810 -0.1975
17712TIP3    H174627   2.908   3.419   5.501 -0.1410  0.3191 -0.7725
17712TIP3    H274628   2.974   3.389   5.634 -1.3085  1.0027 -0.0316
17713TIP3   OH274629   2.445   0.758  13.032  0.2428  0.2340 -0.1065
17713TIP3    H174630   2.491   0.826  13.082  0.2906  0.3320 -0.2825
17713TIP3    H274631   2.353   0.768  13.056  0.2504  0.3567 -0.1288
17714TIP3   OH274632   5.479   3.695  11.641  0.5503  0.3204 -0.7989
17714TIP3    H174633   5.401   3.671  11.692  0.5891 -2.0280 -1.8023
17714TIP3    H274634   5.443   3.733  11.560  0.3967 -1.8232 -1.7685
17715TIP3   OH274635   0.115   1.264   5.585  0.8753  0.0613 -0.5282
17715TIP3    H174636   0.104   1.223   5.499 -1.4534 -0.4439 -0.0213
17715TIP3    H274637   0.180   1.333   5.571  1.9547 -1.2811 -2.2547
17716TIP3   OH274638   0.992   1.414   1.317  0.1669  0.0246  0.2998
17716TIP3    H174639   1.063   1.459   1.271 -0.1207 -1.3713 -1.5672
17716TIP3    H274640   0.979   1.465   1.397  1.8150  1.5368 -0.3664
17717TIP3   OH274641   2.654   3.649  16.552 -0.1894  0.3617 -0.2133
17717TIP3    H174642   2.686   3.716  16.613 -0.7823 -0.0896  0.6027
17717TIP3    H274643   2.655   3.692  16.466 -0.5683  1.4119  0.3083
17718TIP3   OH274644   1.828   5.873   2.407 -0.0854  0.5055  0.6577
17718TIP3    H174645   1.813   5.963   2.377 -1.0672  0.2786  0.4623
17718TIP3    H274646   1.751   5.824   2.377  1.9512 -1.1398 -2.2564
17719TIP3   OH274647   0.032   2.913  10.478  0.1150  0.2049 -0.3491
17719TIP3    H174648   0.126   2.920  10.489  0.0397 -0.1107  0.5744
17719TIP3    H274649  -0.003   2.994  10.516 -0.1622 -0.9747  2.0461
17720TIP3   OH274650   5.162   5.725  16.569  0.8172 -0.1228 -0.3243
17720TIP3    H174651   5.246   5.768  16.588  0.8012 -0.2738  0.0948
17720TIP3    H274652   5.126   5.775  16.495  0.8168  0.5703  0.1377
17721TIP3   OH274653   6.204   0.137  15.326  0.2366  0.0598 -0.6040
17721TIP3    H174654   6.213   0.232  15.328 -0.5055  0.1208 -0.3625
17721TIP3    H274655   6.133   0.121  15.263  0.0747 -0.3174 -0.3242
17722TIP3   OH274656   5.908   6.786  15.550  0.7463  0.0820  0.5697
17722TIP3    H174657   5.898   6.877  15.579  1.1072 -0.5041  2.6272
17722TIP3    H274658   5.844   6.776  15.479  0.7948  1.9627  0.2368
17723TIP3   OH274659   2.547   2.092  13.012 -0.6120 -0.2198 -1.0146
17723TIP3    H174660   2.603   2.106  12.935  1.6947  1.3081  0.8691
17723TIP3    H274661   2.541   1.997  13.020  2.5319 -0.4411 -0.7619
17724TIP3   OH274662   1.899   0.560   3.243 -0.1415  0.3045 -0.4872
17724TIP3    H174663   1.967   0.609   3.197  0.4715 -0.1634 -0.1001
17724TIP3    H274664   1.948   0.499   3.299 -0.8885 -0.6184 -0.8314
17725TIP3   OH274665   0.425   4.675   3.290  0.2466  0.2008 -0.6401
17725TIP3    H174666   0.379   4.599   3.325 -1.1210  1.0306 -0.6109
17725TIP3    H274667   0.357   4.741   3.278  0.8727  0.3798 -3.6660
17726TIP3   OH274668   5.983   2.512   4.371 -1.0028 -0.2584 -0.2057
17726TIP3    H174669   5.953   2.570   4.300 -1.6441  0.7171  0.8364
17726TIP3    H274670   6.058   2.558   4.409 -0.5273 -0.8812 -0.3919
17727TIP3   OH274671   5.254   3.959  10.423 -0.1035 -0.1112  0.1687
17727TIP3    H174672   5.349   3.953  10.432 -0.0786  0.9252  0.7143
17727TIP3    H274673   5.239   3.984  10.332  0.2310  1.2989  0.4883
17728TIP3   OH274674   1.800   1.321   0.242 -1.0373 -0.3718 -0.3276
17728TIP3    H174675   1.735   1.371   0.291 -0.9906 -1.2201  0.6092
17728TIP3    H274676   1.855   1.280   0.309  1.5020  1.6467 -1.1165
17729TIP3   OH274677   4.929   1.668  13.306 -0.4456  0.2076 -0.0532
17729TIP3    H174678   4.916   1.604  13.376  1.1964 -0.0516  0.0392
17729TIP3    H274679   4.893   1.749  13.340  0.2629  0.0598  1.0564
17730TIP3   OH274680   1.345   4.981  16.788  0.3944  0.5072 -0.3676
17730TIP3    H174681   1.326   5.061  16.739 -0.5516  0.7882  0.4576
17730TIP3    H274682   1.276   4.920  16.761 -0.1146  0.6553  0.5924
17731TIP3   OH274683   5.532   3.194  17.050  1.2595 -0.5138 -0.4246
17731TIP3    H174684   5.526   3.114  16.997 -2.6312 -0.2962 -0.4464
17731TIP3    H274685   5.569   3.259  16.991 -0.2186 -1.0493 -1.9800
17732TIP3   OH274686   6.440   1.054   0.345  0.2448 -0.0042  0.4038
17732TIP3    H174687   6.494   1.019   0.275  0.9830  1.1372  0.3952
17732TIP3    H274688   6.385   1.120   0.303 -1.1985 -1.1541  0.4053
17733TIP3   OH274689   1.888   5.449   2.193  0.5429  0.1703 -0.2730
17733TIP3    H174690   1.942   5.516   2.235  0.5885 -0.0952  0.0982
17733TIP3    H274691   1.812   5.496   2.161  0.4931  0.3786  0.1421
17734TIP3   OH274692   2.790   0.385  13.021  0.0084  0.2338 -0.6736
17734TIP3    H174693   2.801   0.291  13.031  0.1305  0.3549  0.4728
17734TIP3    H274694   2.779   0.399  12.927  0.6110 -0.8524 -0.9117
17735TIP3   OH274695   4.840   1.187   4.622  0.1911  0.1688 -0.7087
17735TIP3    H174696   4.856   1.223   4.535 -0.1160  0.3462 -0.6931
17735TIP3    H274697   4.824   1.264   4.677  1.3696  0.1250 -0.2799
17736TIP3   OH274698   1.253   2.592  14.651 -0.2039 -0.0869 -0.8597
17736TIP3    H174699   1.276   2.684  14.668  1.7805 -0.3775 -1.8969
17736TIP3    H274700   1.193   2.596  14.577 -2.2264  0.5426  0.7497
17737TIP3   OH274701   4.154   2.256  17.075  0.2341 -0.5729  0.0203
17737TIP3    H174702   4.097   2.190  17.035 -0.2628 -0.4336  0.4843
17737TIP3    H274703   4.154   2.235  17.168 -0.7290  0.6696  0.3167
17738TIP3   OH274704   0.333   1.271  11.986  0.4476  0.0478  0.2639
17738TIP3    H174705   0.324   1.299  11.895  1.1701 -0.1665  0.1226
17738TIP3    H274706   0.247   1.286  12.024 -0.1596 -0.8343 -0.7273
17739TIP3   OH274707   1.518   1.272  11.958  0.6300  0.1261  0.0165
17739TIP3    H174708   1.544   1.181  11.949  0.5955  0.2474 -1.4737
17739TIP3    H274709   1.575   1.320  11.898  0.9695  1.1545  1.1296
17740TIP3   OH274710   4.067   4.320  14.403  0.3024 -0.1743  0.1604
17740TIP3    H174711   4.142   4.266  14.429 -0.8271 -0.6752  2.5087
17740TIP3    H274712   3.990   4.268  14.428 -0.8640  0.2287 -2.4294
17741TIP3   OH274713   6.390   1.450  16.711 -0.2852 -0.3882  0.6838
17741TIP3    H174714   6.320   1.398  16.672 -0.9262  0.2861  0.9201
17741TIP3    H274715   6.447   1.473  16.637 -0.0131 -1.3985  0.5780
17742TIP3   OH274716   6.256   4.791  12.185 -0.1784 -0.2602 -0.5002
17742TIP3    H174717   6.222   4.829  12.104  0.4295  0.7102 -0.3064
17742TIP3    H274718   6.214   4.705  12.190 -3.5234  1.3654  0.3275
17743TIP3   OH274719   2.669   5.027  12.079 -0.2379 -0.1656  0.0429
17743TIP3    H174720   2.626   4.982  12.007 -1.6176  1.1307  0.0291
17743TIP3    H274721   2.692   4.957  12.141 -1.6490 -0.9660 -0.3240
17744TIP3   OH274722   2.512   5.681   1.615  0.3714  0.1184 -0.4222
17744TIP3    H174723   2.583   5.674   1.550  0.9529  3.1428 -0.1509
17744TIP3    H274724   2.556   5.675   1.699 -0.1657 -1.8056 -0.2506
17745TIP3   OH274725   1.379   0.411  13.910  0.1261  0.1620  0.2373
17745TIP3    H174726   1.303   0.462  13.939  0.8698  0.4583  1.7006
17745TIP3    H274727   1.454   0.456  13.949  1.0338 -0.3114 -0.9360
17746TIP3   OH274728   1.827   4.874   0.722  0.2142  0.3624  0.0486
17746TIP3    H174729   1.750   4.818   0.730 -0.7160  1.7173  0.9086
17746TIP3    H274730   1.897   4.815   0.695 -1.3885 -0.6910 -1.9540
17747TIP3   OH274731   4.124   3.847  12.064 -0.2611  0.2578  0.3247
17747TIP3    H174732   4.175   3.927  12.055 -1.6443  1.1658  0.3210
17747TIP3    H274733   4.177   3.779  12.022 -0.3231  1.7040 -2.1715
17748TIP3   OH274734   4.389   6.267   5.021 -0.3301  0.2628 -0.2858
17748TIP3    H174735   4.373   6.196   5.083 -2.3057  0.5904 -0.3906
17748TIP3    H274736   4.432   6.335   5.073 -0.4428 -0.1377  0.3336
17749TIP3   OH274737   4.532   1.221   1.205 -0.1409 -0.0654 -0.3072
17749TIP3    H174738   4.552   1.128   1.197 -1.9173 -0.6235  1.4483
17749TIP3    H274739   4.436   1.225   1.202 -0.2100  1.4174  2.4329
17750TIP3   OH274740   4.649   6.279   3.479  0.0401  0.2833  0.1414
17750TIP3    H174741   4.708   6.219   3.434  0.6915  0.7118  0.4147
17750TIP3    H274742   4.571   6.227   3.499  1.1297 -0.8423  1.5843
17751TIP3   OH274743   4.079   0.298   0.089  0.5247 -0.1166 -0.3706
17751TIP3    H174744   4.147   0.365   0.082 -0.0384  0.4330 -0.5754
17751TIP3    H274745   4.053   0.280  -0.001 -0.4546  0.5534 -0.2282
17752TIP3   OH274746   6.639   5.939  16.454  0.0068  0.0438 -0.4301
17752TIP3    H174747   6.579   5.868  16.432  0.6401 -0.5921 -0.1154
17752TIP3    H274748   6.583   6.008  16.488 -0.8758  0.6027 -2.9025
17753TIP3   OH274749   5.098   4.192  16.981 -0.2566 -0.2834 -0.0954
17753TIP3    H174750   5.019   4.139  16.972 -1.8022  2.0127 -0.5605
17753TIP3    H274751   5.111   4.230  16.894  0.9974 -0.1552  0.1400
17754TIP3   OH274752   1.650   5.714  14.938  0.4902  0.2035  0.0667
17754TIP3    H174753   1.726   5.738  14.886  1.5724 -0.3403  1.3845
17754TIP3    H274754   1.586   5.683  14.873  0.7509  2.1932 -1.2116
17755TIP3   OH274755   3.416   4.735  15.005 -0.2811 -0.2309 -0.3919
17755TIP3    H174756   3.360   4.810  14.985  1.1768  0.6212 -1.3891
17755TIP3    H274757   3.356   4.661  15.013 -1.6605  0.9105 -0.1377
17756TIP3   OH274758   6.774   6.101  11.127  0.0387 -0.4062  0.2245
17756TIP3    H174759   6.680   6.113  11.112  0.3571  2.1328 -0.0166
17756TIP3    H274760   6.813   6.107  11.039  0.4880 -0.8711  0.3899
17757TIP3   OH274761   1.609   1.665   3.790 -0.3736 -0.3470 -0.1921
17757TIP3    H174762   1.536   1.643   3.848 -0.0958 -0.6048  0.0562
17757TIP3    H274763   1.567   1.710   3.717 -0.7673 -0.3503  0.0258
17758TIP3   OH274764   5.107   5.436   4.155 -0.1280 -0.0273 -0.1977
17758TIP3    H174765   5.192   5.472   4.128  0.2982 -0.5737  0.3907
17758TIP3    H274766   5.057   5.428   4.073 -0.1913  1.7804 -0.3409
17759TIP3   OH274767   0.598   0.280   2.247  0.2974  0.2144 -0.0642
17759TIP3    H174768   0.592   0.274   2.152  1.0164 -0.3359 -0.0821
17759TIP3    H274769   0.560   0.198   2.279  0.1480  0.3532  0.1163
17760TIP3   OH274770   1.759   6.078  15.178 -0.3618 -0.1190  0.2225
17760TIP3    H174771   1.778   5.995  15.135 -3.6892 -1.7105  1.6276
17760TIP3    H274772   1.726   6.134  15.108  0.5173 -0.4608 -0.4670
17761TIP3   OH274773   2.233   6.544   1.409  0.2890 -0.3455  0.4554
17761TIP3    H174774   2.176   6.552   1.333 -0.1097  2.8911  1.0590
17761TIP3    H274775   2.322   6.541   1.372  0.0626  0.5358 -0.1642
17762TIP3   OH274776   6.748   2.968  15.932 -0.2789 -0.2397 -0.1133
17762TIP3    H174777   6.668   3.004  15.969  0.5935  0.6237  0.9822
17762TIP3    H274778   6.749   2.998  15.841 -0.3458  1.1679  0.3456
17763TIP3   OH274779   5.117   6.622  15.415 -0.6299  0.0885  0.3507
17763TIP3    H174780   5.200   6.575  15.424 -0.8353 -0.4708 -0.6253
17763TIP3    H274781   5.143   6.711  15.390 -0.3018  0.1010  0.7289
17764TIP3   OH274782   5.748   1.094  13.480  0.1271  0.4898 -0.2892
17764TIP3    H174783   5.736   0.999  13.470 -2.3171  0.7759 -0.3749
17764TIP3    H274784   5.788   1.104  13.566 -1.8975 -0.4996  0.8081
17765TIP3   OH274785   5.808   5.318   4.580 -0.2723 -0.0746  0.5313
17765TIP3    H174786   5.732   5.326   4.638 -1.9970  0.2123 -1.6979
17765TIP3    H274787   5.818   5.224   4.565  0.4898 -0.1830  1.6721
17766TIP3   OH274788   2.075   4.619  14.364  0.0195 -0.2229 -0.0178
17766TIP3    H174789   2.126   4.686  14.318  0.0521 -1.0319 -1.1762
17766TIP3    H274790   2.118   4.610  14.449 -0.1222  1.3950  0.2507
17767TIP3   OH274791   4.910   3.368   5.199 -0.4663  0.1439  0.1503
17767TIP3    H174792   4.943   3.345   5.112 -0.4682  0.9083 -0.0508
17767TIP3    H274793   4.978   3.337   5.259 -0.5584 -0.5656 -0.1079
17768TIP3   OH274794   1.916   0.748  14.732  0.1548 -0.1213  0.1073
17768TIP3    H174795   1.926   0.810  14.660  0.1212 -0.4657 -0.1941
17768TIP3    H274796   1.966   0.787  14.804 -1.3881  1.1678  0.5060
17769TIP3   OH274797   3.224   3.021  15.441 -0.4874 -0.4093 -0.6662
17769TIP3    H174798   3.315   3.051  15.446 -0.7882  0.1307  2.4182
17769TIP3    H274799   3.188   3.065  15.363  1.3332  0.9298 -0.7782
17770TIP3   OH274800   1.737   0.149   2.832  0.6791 -0.1229  0.3772
17770TIP3    H174801   1.678   0.131   2.904 -0.4954  0.3180 -0.4689
17770TIP3    H274802   1.824   0.149   2.872  0.1765 -1.4777  1.4890
17771TIP3   OH274803   6.563   6.234   4.122  0.0858 -0.4076 -0.0802
17771TIP3    H174804   6.599   6.299   4.063 -1.2619 -0.2194 -0.7216
17771TIP3    H274805   6.575   6.151   4.077  0.0141 -0.3838 -0.1421
17772TIP3   OH274806   5.156   4.241   3.779 -0.4795  0.6555  0.6360
17772TIP3    H174807   5.128   4.298   3.708 -2.3361 -0.8109  0.1315
17772TIP3    H274808   5.185   4.160   3.735  0.2387  0.4666  1.4385
17773TIP3   OH274809   6.678   4.091  15.477 -0.7423  0.0868  0.0200
17773TIP3    H174810   6.715   4.004  15.492  0.3613  0.8202  1.7710
17773TIP3    H274811   6.712   4.117  15.392 -0.0895 -0.7097  0.0261
17774TIP3   OH274812   2.170   5.488   2.773 -0.2950  0.5599 -0.4141
17774TIP3    H174813   2.212   5.455   2.853  1.1816  0.3720 -1.2473
17774TIP3    H274814   2.188   5.582   2.773  0.5854  0.4004 -1.0253
17775TIP3   OH274815   6.046   5.546  17.130  0.0977 -0.1458  0.7340
17775TIP3    H174816   6.033   5.631  17.170  0.9138  0.1570  0.3724
17775TIP3    H274817   5.976   5.491  17.166 -0.8753  0.8575  0.4117
17776TIP3   OH274818   4.106   0.236  15.560 -0.3943 -0.1855  0.0246
17776TIP3    H174819   4.201   0.228  15.562 -0.5005 -1.5043  0.5361
17776TIP3    H274820   4.088   0.323  15.597  0.6312  0.3064 -0.6314
17777TIP3   OH274821   5.367   6.227   4.539 -0.0414  0.7323  0.4422
17777TIP3    H174822   5.309   6.206   4.465 -1.2034  0.0880  1.5229
17777TIP3    H274823   5.340   6.314   4.568 -0.3104  0.5239  0.8101
17778TIP3   OH274824   1.141   4.989  14.720  0.2952 -0.7729  0.3373
17778TIP3    H174825   1.162   4.979  14.813 -0.2149 -2.6962  0.2689
17778TIP3    H274826   1.047   5.005  14.719  0.3885 -0.2194  0.1692
17779TIP3   OH274827   1.071   3.295  11.959  0.1526 -0.1569  0.3957
17779TIP3    H174828   1.048   3.229  12.024  0.1548 -0.8600 -0.3033
17779TIP3    H274829   1.076   3.246  11.876  0.8629  0.5904 -0.0058
17780TIP3   OH274830   3.751   6.081   6.039  0.1993  0.0266  0.4583
17780TIP3    H174831   3.797   6.131   5.972 -0.0833  0.4876  0.5971
17780TIP3    H274832   3.801   6.096   6.119  0.7331 -0.8064  0.2831
17781TIP3   OH274833   0.696   1.066   1.021 -0.0427 -0.7452 -0.3419
17781TIP3    H174834   0.728   1.059   1.111  1.6762 -0.6598 -0.9321
17781TIP3    H274835   0.629   1.135   1.024  1.1869  0.4255  0.5514
17782TIP3   OH274836   5.199   2.870  15.241  0.1542  0.2252 -1.1267
17782TIP3    H174837   5.227   2.829  15.323 -0.0393 -0.0704 -1.2073
17782TIP3    H274838   5.195   2.963  15.261 -2.1828 -0.0611 -0.1096
17783TIP3   OH274839   3.006   2.742   2.762  0.0299 -0.6880  1.0875
17783TIP3    H174840   2.916   2.767   2.783 -0.0943  0.7579 -1.0305
17783TIP3    H274841   3.060   2.811   2.800 -0.0778  0.9319 -1.6250
17784TIP3   OH274842   6.349   2.600   3.902  0.4127 -0.4410 -0.0652
17784TIP3    H174843   6.407   2.651   3.845 -1.0615  1.6083  0.2338
17784TIP3    H274844   6.379   2.621   3.991  0.1878 -0.5593  0.0391
17785TIP3   OH274845   4.597   5.847   3.975 -0.0763  0.2204 -0.5461
17785TIP3    H174846   4.536   5.920   3.977  2.2548  2.2533  2.4192
17785TIP3    H274847   4.641   5.854   3.891  0.8594  2.9814  0.1150
17786TIP3   OH274848   5.319   6.150  12.207 -0.8081 -0.5240 -0.1012
17786TIP3    H174849   5.361   6.099  12.139 -0.4499 -0.4463  0.0602
17786TIP3    H274850   5.228   6.160  12.178 -1.1538 -2.1383  0.3587
17787TIP3   OH274851   6.146   5.205   1.054 -0.0745  0.3490 -0.2916
17787TIP3    H174852   6.165   5.208   1.148  1.5206 -1.4770 -0.5154
17787TIP3    H274853   6.051   5.204   1.048 -0.1902  0.6282  1.3060
17788TIP3   OH274854   4.750   1.381  16.109  0.8890  0.3179 -0.6379
17788TIP3    H174855   4.835   1.348  16.080  0.1763 -1.0740 -1.2479
17788TIP3    H274856   4.687   1.316  16.076 -0.3511  1.0104  0.3000
17789TIP3   OH274857   4.085   0.022  11.159 -0.6653  0.4719  0.2119
17789TIP3    H174858   4.142  -0.003  11.087  0.9315  1.1164  1.2236
17789TIP3    H274859   4.066  -0.060  11.205  2.9510  0.7432  2.3617
17790TIP3   OH274860   1.671   6.434  13.020 -0.1655 -0.1902  0.8279
17790TIP3    H174861   1.683   6.527  13.000 -0.0786 -0.0186  1.6759
17790TIP3    H274862   1.738   6.415  13.086 -0.2361 -0.8335  0.7170
17791TIP3   OH274863   3.131   1.873   1.459 -0.2983 -0.5131  0.0547
17791TIP3    H174864   3.074   1.801   1.486 -0.5484  0.2639  1.6952
17791TIP3    H274865   3.113   1.942   1.524  2.1954 -0.0988  0.3402
17792TIP3   OH274866   5.944   3.814   1.984  0.2913  0.5128 -0.2212
17792TIP3    H174867   5.926   3.823   1.890 -0.9953  0.2754 -0.0101
17792TIP3    H274868   6.038   3.829   1.992  0.7914 -1.4976 -1.8155
17793TIP3   OH274869   1.909   1.902  13.778 -0.0995  0.1471 -0.0719
17793TIP3    H174870   1.850   1.902  13.854 -0.4703  0.4517 -0.3615
17793TIP3    H274871   1.926   1.995  13.761  2.3962  0.0300  1.5114
17794TIP3   OH274872   5.264   3.263   0.839  0.4793  0.4531 -0.5867
17794TIP3    H174873   5.359   3.257   0.831  0.5754  1.7585 -0.6074
17794TIP3    H274874   5.247   3.266   0.933  0.4516  0.0299 -0.5806
17795TIP3   OH274875   5.827   3.915  12.317  0.2877 -0.4687  0.9509
17795TIP3    H174876   5.838   3.831  12.273  0.1553 -0.4994  0.9762
17795TIP3    H274877   5.867   3.979  12.257 -1.1330 -0.3394  0.1199
17796TIP3   OH274878   6.664   3.096   0.717  0.2406  0.1505 -0.2490
17796TIP3    H174879   6.686   3.165   0.781 -1.1998  1.2728 -0.9365
17796TIP3    H274880   6.686   3.015   0.762  0.5183  0.9877  1.1802
17797TIP3   OH274881   3.382   2.559   4.801 -0.3822  0.4893 -0.0875
17797TIP3    H174882   3.417   2.523   4.882  0.6887  0.2589 -0.6530
17797TIP3    H274883   3.405   2.495   4.734 -1.3616  0.6221 -0.5618
17798TIP3   OH274884   4.832   4.234  16.189 -0.1204 -0.1826  0.1252
17798TIP3    H174885   4.771   4.305  16.209 -0.5561 -0.3233 -0.6900
17798TIP3    H274886   4.864   4.205  16.274  1.8075  2.4989  0.4127
17799TIP3   OH274887   4.555   1.425  10.843 -0.6170 -0.0806  0.0648
17799TIP3    H174888   4.478   1.401  10.792 -0.3710  0.1026 -0.3909
17799TIP3    H274889   4.558   1.520  10.838  0.2874 -0.1510 -0.8711
17800TIP3   OH274890   4.204   2.819   3.105  0.1203 -0.0343  0.1475
17800TIP3    H174891   4.184   2.756   3.035  0.8796  1.3121 -1.3014
17800TIP3    H274892   4.294   2.846   3.088 -0.1091  1.2346  0.9198
17801TIP3   OH274893   0.696   1.710  13.503 -0.5136  0.2209  0.0340
17801TIP3    H174894   0.768   1.693  13.443  0.2834 -2.1255  1.5998
17801TIP3    H274895   0.736   1.706  13.590 -1.7964  2.7612  0.8012
17802TIP3   OH274896   2.299   6.717  15.076 -0.2808  0.0138  0.1327
17802TIP3    H174897   2.348   6.638  15.054  1.3954  1.0646  0.0302
17802TIP3    H274898   2.274   6.755  14.992 -1.7170 -0.7889  0.1925
17803TIP3   OH274899   4.524   6.256   0.179  0.1213  0.4605  0.2443
17803TIP3    H174900   4.587   6.328   0.175 -0.2496  0.7648 -0.0751
17803TIP3    H274901   4.484   6.254   0.092 -0.9072  0.8116  0.6980
17804TIP3   OH274902   3.626   1.331  15.635 -0.6676  0.2607 -0.0265
17804TIP3    H174903   3.621   1.420  15.670  0.7894  0.3407  0.0091
17804TIP3    H274904   3.597   1.276  15.708 -0.3686  0.6273  0.3772
17805TIP3   OH274905   5.477   0.183  13.732  0.5623  0.0183  0.8338
17805TIP3    H174906   5.435   0.212  13.812 -0.6419 -1.6120  0.8184
17805TIP3    H274907   5.550   0.243  13.719 -0.9995  2.0964  1.5554
17806TIP3   OH274908   2.566   2.923  16.660  0.3543  0.0514 -0.1469
17806TIP3    H174909   2.603   2.841  16.628 -1.8754 -0.2865 -1.9737
17806TIP3    H274910   2.558   2.910  16.755  2.3797 -0.8462 -0.0780
17807TIP3   OH274911   4.189   3.683   5.158 -0.7830 -0.3757 -0.4291
17807TIP3    H174912   4.161   3.643   5.076  0.2446 -0.8205 -0.5734
17807TIP3    H274913   4.219   3.610   5.212 -1.1473 -0.0473  0.2216
17808TIP3   OH274914   0.935   1.633  16.253 -0.0590  0.3001 -0.2555
17808TIP3    H174915   1.019   1.676  16.242  1.7480 -2.8846  0.6816
17808TIP3    H274916   0.942   1.552  16.202 -1.9043 -0.8352  1.2259
17809TIP3   OH274917   3.709   0.503  16.709 -0.0488 -0.2839  0.1851
17809TIP3    H174918   3.656   0.518  16.631  1.3133  0.1079 -0.6772
17809TIP3    H274919   3.664   0.551  16.779 -0.4071  0.6767 -0.7007
17810TIP3   OH274920   4.921   2.102  12.220 -0.6032  0.5231 -0.4947
17810TIP3    H174921   4.834   2.122  12.185 -0.4214  1.3518 -0.4829
17810TIP3    H274922   4.981   2.158  12.170  0.0056 -0.5216 -0.9584
17811TIP3   OH274923   5.467   0.527   1.977 -0.2083 -0.5055 -0.6329
17811TIP3    H174924   5.491   0.440   1.945  2.5951  0.2379 -0.6988
17811TIP3    H274925   5.544   0.556   2.027 -1.1004  1.9087 -0.6154
17812TIP3   OH274926   5.764   6.673   0.446  0.6628  0.1934 -0.0787
17812TIP3    H174927   5.763   6.579   0.467  0.2248  0.0722 -0.6434
17812TIP3    H274928   5.683   6.688   0.398 -0.4585  1.3631  2.0934
17813TIP3   OH274929   2.237   3.040  12.579  0.2286 -0.1931  0.3572
17813TIP3    H174930   2.330   3.056  12.561 -0.1367  1.0833 -0.4691
17813TIP3    H274931   2.196   3.038  12.493 -0.9051  1.7654  0.8331
17814TIP3   OH274932   0.586   5.363   4.301 -0.3309  0.4153  0.5365
17814TIP3    H174933   0.521   5.332   4.238 -0.7797 -0.2010  1.2884
17814TIP3    H274934   0.631   5.284   4.330  0.7453  0.8424  0.0357
17815TIP3   OH274935   2.587   5.329   3.951  0.3074  0.1906 -0.6107
17815TIP3    H174936   2.626   5.300   4.033 -1.2517  0.4451  0.2460
17815TIP3    H274937   2.572   5.423   3.963 -0.4268  0.1263 -0.9848
17816TIP3   OH274938   3.218   2.731   0.797 -0.0182 -0.0011 -1.2366
17816TIP3    H174939   3.149   2.727   0.730 -0.2871  0.4140 -0.9824
17816TIP3    H274940   3.171   2.749   0.879  0.4923  1.2502 -1.2151
17817TIP3   OH274941   2.488   4.356   6.261 -0.0690  0.2858  0.0570
17817TIP3    H174942   2.437   4.410   6.201  0.4483  0.1539 -0.5070
17817TIP3    H274943   2.531   4.291   6.204 -0.6386 -0.6747  0.7144
17818TIP3   OH274944   1.322   4.401  13.871 -0.2587 -0.2666 -0.2425
17818TIP3    H174945   1.374   4.349  13.810  1.2788 -0.9539  1.6012
17818TIP3    H274946   1.383   4.464  13.908 -1.2006  0.2319  0.4898
17819TIP3   OH274947   3.614   2.552   5.258 -0.0600 -0.2976  0.3920
17819TIP3    H174948   3.530   2.597   5.263 -0.6614 -1.1086 -1.7389
17819TIP3    H274949   3.607   2.480   5.321 -0.6439  0.1282  0.8206
17820TIP3   OH274950   1.623   1.002  11.942  0.5849 -0.0466  0.1016
17820TIP3    H174951   1.690   0.943  11.909 -0.3519 -1.2887  0.3642
17820TIP3    H274952   1.549   0.945  11.964  0.3120  0.9988  2.0674
17821TIP3   OH274953   2.694   3.268  12.343 -0.3437  0.4181  0.0508
17821TIP3    H174954   2.690   3.283  12.248 -0.6644  0.3581  0.0541
17821TIP3    H274955   2.646   3.341  12.381 -0.2328  0.4301  0.1643
17822TIP3   OH274956   3.550   1.862  13.850  0.0552 -0.7804  0.2265
17822TIP3    H174957   3.515   1.905  13.771  1.4347 -1.0207 -0.5177
17822TIP3    H274958   3.472   1.824  13.891 -0.8010  0.0329 -0.5847
17823TIP3   OH274959   5.770   4.458   4.219  0.7428 -0.7171 -0.0205
17823TIP3    H174960   5.701   4.508   4.176  2.0932  0.9865 -0.2607
17823TIP3    H274961   5.729   4.373   4.239 -1.0530 -0.1599 -1.1758
17824TIP3   OH274962   2.662   1.777  16.586  0.3921  0.2387 -0.2672
17824TIP3    H174963   2.684   1.788  16.494 -0.1727  0.9524 -0.3188
17824TIP3    H274964   2.654   1.682  16.597  0.2591  0.1612 -1.0068
17825TIP3   OH274965   3.965   2.176   3.591  0.2446 -0.0565  0.0742
17825TIP3    H174966   3.928   2.109   3.649  0.5707  1.2336  1.8025
17825TIP3    H274967   3.978   2.252   3.647  0.9408  1.1055 -1.6195
17826TIP3   OH274968   2.268   6.571   4.910 -0.4988 -0.1015  0.1720
17826TIP3    H174969   2.311   6.628   4.974  1.5907 -0.4370 -0.8992
17826TIP3    H274970   2.175   6.581   4.928 -0.0059  0.9847  2.2691
17827TIP3   OH274971   1.472   0.385  14.897  0.1099  0.1999 -0.2546
17827TIP3    H174972   1.451   0.418  14.810  0.9306  0.1286 -0.4843
17827TIP3    H274973   1.468   0.461  14.954  2.1154  0.7337 -0.8009
17828TIP3   OH274974   2.982   1.566   1.225 -0.2091 -0.1235  0.4094
17828TIP3    H174975   2.908   1.595   1.172 -0.9841 -0.3972  1.3249
17828TIP3    H274976   3.042   1.525   1.163 -0.7524  0.2476 -0.3644
17829TIP3   OH274977   4.407   2.301   0.045 -0.3480  0.2934  0.1156
17829TIP3    H174978   4.351   2.227   0.070 -0.6904  0.3554 -0.4698
17829TIP3    H274979   4.389   2.368   0.111 -0.6266  0.1435  0.1917
17830TIP3   OH274980   5.946   4.108  12.185 -0.6244  0.8594 -0.0161
17830TIP3    H174981   6.011   4.128  12.252 -0.8640  0.3334  0.3750
17830TIP3    H274982   5.990   4.047  12.126 -1.2888 -0.7624  1.1433
17831TIP3   OH274983   6.091   4.527  11.767 -0.5097  0.3317  0.3436
17831TIP3    H174984   6.135   4.527  11.682  0.8267  0.5290  1.0355
17831TIP3    H274985   6.016   4.585  11.755 -0.3902  0.2694 -0.7344
17832TIP3   OH274986   5.322   1.510   1.588 -0.1651 -0.2051 -0.0508
17832TIP3    H174987   5.250   1.574   1.590 -1.5310 -1.6184 -1.9743
17832TIP3    H274988   5.384   1.542   1.653 -1.4605  2.3301  0.0070
17833TIP3   OH274989   1.230   4.297  16.324 -0.3993  0.1177 -0.2889
17833TIP3    H174990   1.298   4.338  16.271 -1.3625  1.8170 -0.2531
17833TIP3    H274991   1.181   4.244  16.261  0.1796 -0.1074 -0.5578
17834TIP3   OH274992   3.541   3.051   2.909 -0.5273  0.0735  0.5609
17834TIP3    H174993   3.565   3.111   2.979  0.2921 -0.4547  0.7441
17834TIP3    H274994   3.495   3.106   2.845 -1.2803  0.5541  1.4997
17835TIP3   OH274995   1.264   4.446  11.932 -0.0486 -0.3719 -0.3903
17835TIP3    H174996   1.276   4.528  11.979 -0.7484  0.5569 -1.7972
17835TIP3    H274997   1.349   4.402  11.938  0.4660  0.6636 -0.0408
17836TIP3   OH274998   0.450   1.047   0.258 -0.5039  0.1749  0.0709
17836TIP3    H174999   0.451   1.130   0.306  1.1185  0.2531 -0.0730
17836TIP3    H275000   0.532   1.046   0.210 -1.6844 -0.3406 -1.9997
17837TIP3   OH275001   3.132   1.924  13.460  0.2788 -0.3686  0.3486
17837TIP3    H175002   3.071   1.869  13.509  0.2067 -0.0190  0.6542
17837TIP3    H275003   3.128   1.890  13.370  0.9448 -1.4757  0.7161
17838TIP3   OH275004   0.514   3.972   3.680  0.4133 -0.0924  0.5231
17838TIP3    H175005   0.486   3.972   3.771  0.9379  0.9897  0.6881
17838TIP3    H275006   0.504   3.881   3.652 -1.1931 -0.1596  1.2155
17839TIP3   OH275007   1.754   6.320  16.859  0.1293 -0.1873 -0.5725
17839TIP3    H175008   1.786   6.278  16.779  0.9503  1.1516 -0.9661
17839TIP3    H275009   1.828   6.318  16.919 -1.1438 -3.2104  1.0214
17840TIP3   OH275010   1.085   0.148  11.062  0.5592 -0.2391 -0.0312
17840TIP3    H175011   1.176   0.119  11.057  0.8596  0.6262  0.3494
17840TIP3    H275012   1.081   0.225  11.006  0.5111  0.8296  1.4036
17841TIP3   OH275013   0.283   2.983   2.416  0.4067 -0.0019 -0.1232
17841TIP3    H175014   0.203   2.930   2.408  1.0955 -0.9541 -0.8582
17841TIP3    H275015   0.305   2.977   2.509 -0.5039  0.4626  0.1313
17842TIP3   OH275016   2.035   0.796   2.680 -0.0262  0.7213  0.0558
17842TIP3    H175017   2.066   0.817   2.591  1.4455  0.8153  0.5825
17842TIP3    H275018   1.981   0.871   2.705 -0.5125  0.6597 -0.7915
17843TIP3   OH275019   1.490   6.818  15.320  0.3919 -0.5999 -0.4208
17843TIP3    H175020   1.539   6.745  15.282  3.0164  0.8779 -0.0249
17843TIP3    H275021   1.538   6.896  15.291 -1.5364  0.9014  0.3172
17844TIP3   OH275022   5.124   2.145   3.639 -0.0843  0.0628  0.3482
17844TIP3    H175023   5.219   2.132   3.645 -0.0627  0.5063  1.0925
17844TIP3    H275024   5.106   2.217   3.700 -0.8431  0.2614 -0.1003
17845TIP3   OH275025   0.790   3.159   3.527  0.3310 -0.2628  0.4554
17845TIP3    H175026   0.854   3.210   3.478  0.1572 -0.8341 -0.3696
17845TIP3    H275027   0.828   3.150   3.614  1.3968 -0.6471 -0.0522
17846TIP3   OH275028   0.470   4.946  16.135 -0.2686  0.1207 -0.5114
17846TIP3    H175029   0.540   4.952  16.200 -1.0639 -0.7407  0.4574
17846TIP3    H275030   0.414   5.021  16.154 -0.5642 -0.1965 -0.1084
17847TIP3   OH275031   5.764   6.075   0.273  0.2316 -0.1650 -0.2261
17847TIP3    H175032   5.779   6.117   0.358 -0.5710 -1.2550  0.4512
17847TIP3    H275033   5.791   5.984   0.285  0.2296 -0.2990 -1.1775
17848TIP3   OH275034   5.570   0.001  12.469  0.0172  0.1952 -1.0617
17848TIP3    H175035   5.597  -0.089  12.488 -1.1477  0.1457  0.5066
17848TIP3    H275036   5.525  -0.004  12.385 -2.3595 -1.1943  0.2440
17849TIP3   OH275037   1.147   2.715   1.852  0.0585 -0.7164 -0.1026
17849TIP3    H175038   1.100   2.782   1.803  0.2355 -1.0358 -0.7042
17849TIP3    H275039   1.200   2.670   1.787 -0.5368 -1.8625  0.2068
17850TIP3   OH275040   5.388   6.187   4.183  0.3358  0.3497 -0.4259
17850TIP3    H175041   5.434   6.109   4.213 -0.8897  0.0444  0.7194
17850TIP3    H275042   5.295   6.166   4.196 -0.1245  0.9743 -2.6067
17851TIP3   OH275043   2.843   0.067   3.476  0.4393 -0.0794  0.5011
17851TIP3    H175044   2.805   0.043   3.561  2.9761 -1.6847  1.2239
17851TIP3    H275045   2.797   0.148   3.452 -1.4558 -0.4618  2.6246
17852TIP3   OH275046   2.068   0.138  11.104 -0.2711 -0.1357  0.1959
17852TIP3    H175047   2.129   0.071  11.133 -0.6453 -0.9914 -0.9535
17852TIP3    H275048   1.983   0.108  11.135 -0.2364  0.6150  1.0445
17853TIP3   OH275049   5.689   5.639   4.865 -0.0594  0.4165  0.1752
17853TIP3    H175050   5.624   5.573   4.890  1.5803 -0.8992  1.0814
17853TIP3    H275051   5.651   5.683   4.788 -0.7875 -2.1777 -0.9957
17854TIP3   OH275052   1.340   5.421   3.405  0.3773  0.7057  0.3388
17854TIP3    H175053   1.273   5.462   3.460  0.8850  0.6830  0.9750
17854TIP3    H275054   1.389   5.495   3.367  0.1571  0.7160  0.0679
17855TIP3   OH275055   6.633   4.561  11.831 -0.0740 -0.1356 -0.1285
17855TIP3    H175056   6.552   4.558  11.883  0.0486  0.4001  0.1005
17855TIP3    H275057   6.604   4.545  11.741 -0.1567 -2.1076  0.2256
17856TIP3   OH275058   0.091   5.567  14.389 -0.3063  0.0464 -0.0982
17856TIP3    H175059   0.066   5.585  14.480 -1.0781 -1.5884  0.0416
17856TIP3    H275060   0.007   5.563  14.343 -0.0337 -0.8820 -0.5273
17857TIP3   OH275061   5.482   6.527   1.338  0.4603 -0.5088  0.4696
17857TIP3    H175062   5.550   6.461   1.336  0.9459  0.0029 -0.4898
17857TIP3    H275063   5.481   6.559   1.428  2.0094  0.0115  0.3109
17858TIP3   OH275064   3.862   2.442   5.195  0.1807  0.4213 -0.0062
17858TIP3    H175065   3.786   2.483   5.237 -3.1494 -1.9374 -3.3784
17858TIP3    H275066   3.867   2.355   5.234  0.3844  0.1490 -0.6311
17859TIP3   OH275067   1.768   4.758  13.064 -0.1231 -0.4606 -0.1911
17859TIP3    H175068   1.800   4.703  12.993  2.2077 -1.1720  1.3649
17859TIP3    H275069   1.847   4.799  13.100 -1.4074  0.8380  1.2120
17860TIP3   OH275070   3.538   0.092   4.978 -0.2971 -0.5418  0.2726
17860TIP3    H175071   3.588   0.015   4.952  0.0289 -0.1132 -0.3693
17860TIP3    H275072   3.450   0.058   4.997 -0.1395 -1.0760  0.0535
17861TIP3   OH275073   4.175   2.533  16.987 -0.1754 -0.1297 -0.0743
17861TIP3    H175074   4.187   2.560  17.078 -0.4572  0.1983 -0.1334
17861TIP3    H275075   4.157   2.439  16.992  0.9312 -0.3369  0.1241
17862TIP3   OH275076   5.721   3.390   2.016 -0.0479 -0.0738 -0.9680
17862TIP3    H175077   5.738   3.304   2.054  0.4155  0.5450  0.2543
17862TIP3    H275078   5.713   3.449   2.091 -0.2109  0.9808 -1.7914
17863TIP3   OH275079   1.446   1.578   5.641  0.3077 -0.1255 -0.0249
17863TIP3    H175080   1.459   1.493   5.599 -0.2252  1.1240 -2.8284
17863TIP3    H275081   1.524   1.628   5.620  1.2266 -0.3040  2.7453
17864TIP3   OH275082   6.546   5.920   2.543  0.4615 -0.1370 -0.3296
17864TIP3    H175083   6.605   5.845   2.537  3.4294  1.9277  1.3153
17864TIP3    H275084   6.467   5.885   2.583  1.1220 -2.7206 -1.2059
17865TIP3   OH275085   2.296   1.560   0.497 -0.5936  0.6078 -0.0873
17865TIP3    H175086   2.292   1.486   0.559  1.0825  0.3116 -0.2987
17865TIP3    H275087   2.231   1.538   0.430  0.2532 -0.9507 -0.4242
17866TIP3   OH275088   1.288   0.358   0.712 -0.4605 -0.5082 -0.0328
17866TIP3    H175089   1.369   0.350   0.762 -0.7107 -2.3665  0.1391
17866TIP3    H275090   1.242   0.432   0.751  0.9304  0.2286  0.1982
17867TIP3   OH275091   6.034   0.211  11.379  0.0841 -0.0291  0.5324
17867TIP3    H175092   6.109   0.209  11.438  0.8767 -1.4918 -0.4944
17867TIP3    H275093   5.996   0.123  11.385 -0.5243  0.1719 -0.2538
17868TIP3   OH275094   5.890   3.330  16.664 -0.2303  0.6913  0.7332
17868TIP3    H175095   5.857   3.242  16.652 -0.1196  0.5840  1.1968
17868TIP3    H275096   5.978   3.318  16.701 -0.6453  1.0065  1.8569
17869TIP3   OH275097   0.825   2.672  11.832  0.3435  0.0576  0.7664
17869TIP3    H175098   0.832   2.617  11.754  0.6877  0.7806  0.2853
17869TIP3    H275099   0.731   2.673  11.852  0.1381  0.7276 -0.2519
17870TIP3   OH275100   3.961   2.980  11.305  0.3330  0.5254 -0.0165
17870TIP3    H175101   3.925   2.894  11.325  0.4333  0.7496  1.1378
17870TIP3    H275102   3.909   3.011  11.231  2.3132 -1.8549 -2.5202
17871TIP3   OH275103   4.360   6.604  13.055  0.3592  0.2628  0.1751
17871TIP3    H175104   4.336   6.525  13.008  0.7318 -0.2072  0.7699
17871TIP3    H275105   4.349   6.674  12.991 -1.3611 -0.0862  0.0599
17872TIP3   OH275106   1.990   0.711   4.770 -0.1245 -0.4590 -0.2083
17872TIP3    H175107   2.006   0.739   4.679  0.5768  0.8125  0.2990
17872TIP3    H275108   2.077   0.702   4.808 -0.4419  0.1751  0.6823
17873TIP3   OH275109   2.050   4.569   4.140  0.6005  0.0414  0.2990
17873TIP3    H175110   2.127   4.610   4.177 -0.0206  0.2659  1.3713
17873TIP3    H275111   2.045   4.483   4.184  0.9964 -0.5198 -0.7482
17874TIP3   OH275112   1.595   3.246  14.955  0.1395  0.0388 -0.8323
17874TIP3    H175113   1.581   3.261  15.049  1.1047 -1.1722 -0.4855
17874TIP3    H275114   1.509   3.220  14.922 -0.2306  0.5681 -0.3095
17875TIP3   OH275115   0.267   0.068  11.007  0.1278 -0.3964 -0.0692
17875TIP3    H175116   0.193   0.074  10.947 -0.6629 -0.5486  0.8740
17875TIP3    H275117   0.283   0.159  11.035  0.3836 -0.3481 -0.3635
17876TIP3   OH275118   2.451   0.686   0.678  0.3166  0.4979  0.0029
17876TIP3    H175119   2.380   0.737   0.640 -0.1441  1.6565  2.2930
17876TIP3    H275120   2.511   0.669   0.606 -1.6690  0.5922 -1.6964
17877TIP3   OH275121   0.961   0.831   3.017 -0.5939  0.6673 -0.1540
17877TIP3    H175122   1.012   0.755   3.046 -0.7868  1.0372  1.1718
17877TIP3    H275123   1.006   0.906   3.056 -1.5409  1.0759  0.1623
17878TIP3   OH275124   1.777   2.728   3.828  0.3512  0.5431  0.3684
17878TIP3    H175125   1.860   2.765   3.858  0.7285  0.6677 -0.7930
17878TIP3    H275126   1.802   2.656   3.770 -0.3655 -0.2725  1.0612
17879TIP3   OH275127   3.720   2.287  15.292  0.2357  0.7179 -0.9610
17879TIP3    H175128   3.656   2.357  15.288  0.4495  0.8632 -1.8173
17879TIP3    H275129   3.687   2.219  15.233 -1.6025 -1.2934  2.2006
17880TIP3   OH275130   6.423   2.652   2.336  0.1619  0.8973 -0.2982
17880TIP3    H175131   6.425   2.723   2.271  0.6696  2.1008  1.0141
17880TIP3    H275132   6.471   2.687   2.411  1.0640 -1.1179  0.1051
17881TIP3   OH275133   6.719   0.851  13.896 -0.0432  0.1051  0.4763
17881TIP3    H175134   6.727   0.863  13.801 -1.4606  2.8056  0.6638
17881TIP3    H275135   6.799   0.804  13.921  0.2685 -0.7970 -2.0664
17882TIP3   OH275136   5.445   6.480  11.865 -0.0046  0.3706 -0.2218
17882TIP3    H175137   5.478   6.558  11.821  1.9224 -0.3705 -0.0983
17882TIP3    H275138   5.429   6.417  11.794  0.2565  0.2178 -0.1469
17883TIP3   OH275139   2.209   3.722   5.591 -0.3354  0.2567 -0.6245
17883TIP3    H175140   2.254   3.638   5.590 -1.4513 -0.3423 -1.8553
17883TIP3    H275141   2.205   3.747   5.684  0.3437 -0.8533 -0.2971
17884TIP3   OH275142   5.689   6.009  10.885  0.5820  0.5929 -0.0951
17884TIP3    H175143   5.607   6.039  10.923  0.4697  1.5544 -1.0741
17884TIP3    H275144   5.739   6.089  10.870  1.4434  0.0593 -0.0748
17885TIP3   OH275145   1.511   0.276  16.297  0.0945 -0.1179 -0.2341
17885TIP3    H175146   1.540   0.295  16.207  1.9099  0.8565  0.5495
17885TIP3    H275147   1.588   0.292  16.351 -1.1987 -0.0086  1.5996
17886TIP3   OH275148   5.181   3.754   4.195 -0.2025 -0.1680 -0.4733
17886TIP3    H175149   5.092   3.785   4.208  0.4994  1.3841  0.7650
17886TIP3    H275150   5.174   3.659   4.200 -1.7208 -0.0366  0.1165
17887TIP3   OH275151   6.143   5.303   4.256 -0.2276 -0.3926 -0.3324
17887TIP3    H175152   6.097   5.372   4.304 -1.4711 -1.2684 -0.2235
17887TIP3    H275153   6.082   5.278   4.186  0.3171 -1.1728 -0.5396
17888TIP3   OH275154   2.363   4.023   5.148 -0.3742  0.0556  0.4231
17888TIP3    H175155   2.452   3.998   5.170  0.7985  1.8532 -2.0212
17888TIP3    H275156   2.308   3.978   5.213  2.4028  0.5141  3.1892
17889TIP3   OH275157   5.667   1.997   1.891  0.4088  0.1812  0.4003
17889TIP3    H175158   5.676   2.025   1.982  4.5072 -1.7628  0.7197
17889TIP3    H275159   5.753   2.012   1.852 -0.3088 -2.0598 -2.2562
17890TIP3   OH275160   5.621   5.185  13.352  0.0341  0.6230 -0.2386
17890TIP3    H175161   5.634   5.194  13.446 -2.1342 -0.6365  0.2159
17890TIP3    H275162   5.692   5.235  13.313  0.0841  2.4340  2.0760
17891TIP3   OH275163   1.231   5.676  12.504 -0.1760 -0.0266  0.3927
17891TIP3    H175164   1.186   5.603  12.547 -1.2676 -0.3232 -1.1897
17891TIP3    H275165   1.251   5.737  12.575  1.9554 -2.4511  1.9199
17892TIP3   OH275166   1.128   3.307  11.484 -0.3923  0.0615 -0.3623
17892TIP3    H175167   1.197   3.246  11.511 -0.7786  0.3208  1.3042
17892TIP3    H275168   1.151   3.332  11.395  0.2011 -1.9050 -0.7719
17893TIP3   OH275169   1.777   0.483   6.247 -0.3596  0.2764 -0.3473
17893TIP3    H175170   1.865   0.463   6.279  1.3574  2.4757 -3.4674
17893TIP3    H275171   1.777   0.452   6.156 -1.7027  3.1121 -1.3677
17894TIP3   OH275172   4.131   4.790   4.540  0.4673  0.2316  0.2579
17894TIP3    H175173   4.079   4.790   4.621  0.9398 -0.8174  0.5776
17894TIP3    H275174   4.123   4.701   4.507  0.7969  0.4885 -0.5267
17895TIP3   OH275175   4.744   6.155   2.751  0.5998 -0.4625 -0.0191
17895TIP3    H175176   4.789   6.180   2.832  2.5994 -1.7837 -0.6649
17895TIP3    H275177   4.805   6.179   2.682 -1.4144  1.3592 -1.2286
17896TIP3   OH275178   5.447   0.516  15.298 -0.3340  0.8693  0.0193
17896TIP3    H175179   5.365   0.477  15.267 -0.2087  1.5257 -1.1668
17896TIP3    H275180   5.509   0.500  15.227  0.7786 -0.2948  1.2345
17897TIP3   OH275181   5.898   6.130   1.579  0.1055 -0.3201 -0.8726
17897TIP3    H175182   5.912   6.221   1.603  0.0197 -0.4979 -0.1384
17897TIP3    H275183   5.985   6.090   1.583 -0.4379 -1.2608  2.9991
17898TIP3   OH275184   5.706   6.123   2.382  0.0207 -1.0535  0.1448
17898TIP3    H175185   5.663   6.176   2.315 -1.6000 -0.7106  1.4328
17898TIP3    H275186   5.746   6.187   2.441 -0.9168 -1.2806  1.0377
17899TIP3   OH275187   3.871   3.454   5.356 -0.2798 -0.0370  0.4061
17899TIP3    H175188   3.795   3.477   5.409  0.0584 -0.2735  1.0008
17899TIP3    H275189   3.844   3.471   5.266 -1.1339 -0.3752  0.5917
17900TIP3   OH275190   2.357   3.420   5.346  0.9058  0.0708  0.1530
17900TIP3    H175191   2.262   3.405   5.346  0.8188  0.6171  0.2344
17900TIP3    H275192   2.377   3.446   5.436  0.9103  1.2951 -0.1851
17901TIP3   OH275193   5.440   3.601  14.526  0.0057 -0.2347 -0.2009
17901TIP3    H175194   5.535   3.614  14.529  0.0905 -0.6822 -0.7350
17901TIP3    H275195   5.405   3.658  14.594  0.8428 -1.9312  1.6860
17902TIP3   OH275196   1.163   4.491   0.988  0.2258  0.5446 -0.0519
17902TIP3    H175197   1.124   4.427   1.047 -0.1115 -0.2002 -1.0741
17902TIP3    H275198   1.109   4.569   0.999 -1.6683 -0.5138 -1.5395
17903TIP3   OH275199   5.287   1.319   3.041  0.0670  0.3297  0.0768
17903TIP3    H175200   5.364   1.318   2.983  0.0829 -0.6549  0.1000
17903TIP3    H275201   5.310   1.257   3.111 -1.0464 -0.5607 -0.3306
17904TIP3   OH275202   5.678   2.710   1.253  0.4165  0.3985  0.7230
17904TIP3    H175203   5.589   2.738   1.233  0.8009  0.4630 -0.9703
17904TIP3    H275204   5.672   2.614   1.260  0.2765  0.3782  0.3169
17905TIP3   OH275205   1.413   4.053  12.778  0.2108  0.1018  0.4834
17905TIP3    H175206   1.423   4.039  12.684 -0.5379 -0.5334  0.4891
17905TIP3    H275207   1.411   3.965  12.815  0.9204  0.3585  1.1448
17906TIP3   OH275208   3.687   0.892  15.791  0.3097  0.3137 -0.6562
17906TIP3    H175209   3.740   0.830  15.741  0.8747  0.6413 -0.4614
17906TIP3    H275210   3.748   0.961  15.816  0.4693 -0.8132  2.1661
17907TIP3   OH275211   2.266   0.747  17.033 -0.0917  0.7062  0.2569
17907TIP3    H175212   2.323   0.822  17.013  0.1274  0.1590 -1.1967
17907TIP3    H275213   2.192   0.786  17.079 -0.8007  2.0908 -1.9618
17908TIP3   OH275214   0.054   5.394  17.165  0.1454  0.7360  0.0907
17908TIP3    H175215   0.024   5.343  17.240  1.3965  0.9800  0.7798
17908TIP3    H275216   0.063   5.330  17.094  0.4107  0.2256  0.5780
17909TIP3   OH275217   2.818   4.206  13.094  0.6017 -0.6773  0.5479
17909TIP3    H175218   2.820   4.128  13.040  1.9857 -0.3984  0.1758
17909TIP3    H275219   2.877   4.267  13.051 -2.3109  1.5023 -0.5356
17910TIP3   OH275220   1.717   5.732   0.037 -0.1308 -0.7962 -0.2830
17910TIP3    H175221   1.711   5.636   0.039  1.3058 -0.9328 -1.8934
17910TIP3    H275222   1.811   5.750   0.041 -0.4422  0.6243  1.8241
17911TIP3   OH275223   2.303   3.362   4.967  0.2343 -0.0869  0.0004
17911TIP3    H175224   2.211   3.382   4.985 -0.5319 -0.9155 -2.7928
17911TIP3    H275225   2.337   3.329   5.050 -2.6473 -2.1213  0.4487
17912TIP3   OH275226   2.009   6.209  12.548 -0.1216  0.1627 -0.0024
17912TIP3    H175227   2.046   6.278  12.603 -0.3781  0.3614 -0.0816
17912TIP3    H275228   1.958   6.156  12.609 -2.8470  2.0763 -0.5425
17913TIP3   OH275229   0.383   3.929  16.736 -0.0759  0.7874  0.0956
17913TIP3    H175230   0.411   3.849  16.780 -2.6933  0.3913  1.1684
17913TIP3    H275231   0.388   3.909  16.643  0.3392 -0.2386  0.3348
17914TIP3   OH275232   4.391   1.851  16.429 -0.3567 -0.6525 -0.6603
17914TIP3    H175233   4.301   1.874  16.410 -0.6499  0.3596  1.8139
17914TIP3    H275234   4.410   1.778  16.370 -2.1817  0.2910 -2.4692
17915TIP3   OH275235   1.701   6.344  16.009  0.0990  0.3746 -0.2753
17915TIP3    H175236   1.783   6.349  15.961 -0.3508  2.7404 -0.8560
17915TIP3    H275237   1.696   6.426  16.057 -0.9729 -0.6138  1.3642
17916TIP3   OH275238   4.426   3.832  10.698 -0.0578  0.8861  0.3835
17916TIP3    H175239   4.461   3.750  10.663 -0.1173  0.9129  0.2613
17916TIP3    H275240   4.398   3.881  10.621 -0.6105  0.7513  0.4961
17917TIP3   OH275241   2.425   5.152   0.815  0.0620  0.0177  0.5914
17917TIP3    H175242   2.472   5.118   0.739  0.2123  2.0016 -0.2316
17917TIP3    H275243   2.342   5.106   0.815 -0.1859  0.4409 -1.1574
17918TIP3   OH275244   3.591   3.756  11.333  0.0617  0.2446  0.4987
17918TIP3    H175245   3.647   3.681  11.310 -0.0127  0.2855  0.1721
17918TIP3    H275246   3.585   3.754  11.428 -0.0725 -0.2576  0.4772
17919TIP3   OH275247   3.232   3.256  11.086  0.2256  0.1534 -0.0897
17919TIP3    H175248   3.187   3.265  11.002 -0.4720 -1.8685  0.0199
17919TIP3    H275249   3.244   3.161  11.095  1.6090  0.4650  1.4103
17920TIP3   OH275250   3.332   5.102   1.646 -0.1300  0.3479 -0.2378
17920TIP3    H175251   3.296   5.101   1.558 -1.7615 -1.7718  0.4127
17920TIP3    H275252   3.389   5.025   1.650 -0.5498  0.0770  0.7567
17921TIP3   OH275253   3.946   1.600   1.935  0.1475  0.4921  0.1415
17921TIP3    H175254   3.951   1.509   1.965  0.9492  0.1034 -1.1165
17921TIP3    H275255   3.898   1.645   2.004 -0.7304 -0.9878  0.5337
17922TIP3   OH275256   2.703   0.820   6.034  0.1297  0.1713 -0.1349
17922TIP3    H175257   2.633   0.827   6.098 -1.0132 -1.7010 -1.1410
17922TIP3    H275258   2.755   0.746   6.064 -0.4477 -0.7497 -1.3962
17923TIP3   OH275259   1.454   6.196   2.498  0.2214 -0.4877 -0.1138
17923TIP3    H175260   1.450   6.179   2.404  0.3702 -1.3964  0.0421
17923TIP3    H275261   1.485   6.114   2.537 -0.7518 -0.4255  0.8260
17924TIP3   OH275262   3.711   6.800  12.998  0.1149 -0.3625 -0.2911
17924TIP3    H175263   3.753   6.861  12.937 -1.0861  1.7017  0.8691
17924TIP3    H275264   3.708   6.717  12.950 -3.2031  1.8056 -4.2027
17925TIP3   OH275265   1.609   2.085  11.674  0.7476  0.5002 -0.7356
17925TIP3    H175266   1.640   2.036  11.598  0.7303 -2.6040  1.1716
17925TIP3    H275267   1.515   2.094  11.661  0.9033  0.9476 -1.5842
17926TIP3   OH275268   2.683   3.865  16.705 -0.4787  0.4741 -0.1529
17926TIP3    H175269   2.711   3.933  16.644  1.7604  0.5628  0.9162
17926TIP3    H275270   2.618   3.908  16.761 -0.5348  1.1495 -0.7334
17927TIP3   OH275271   4.824   5.522   3.608  0.7622 -0.7051  0.0112
17927TIP3    H175272   4.874   5.506   3.688  0.9673 -0.0206  0.0257
17927TIP3    H275273   4.758   5.587   3.633  0.0852 -1.3436 -0.0944
17928TIP3   OH275274   1.273   3.697  15.453  0.2390  0.6454 -0.6735
17928TIP3    H175275   1.318   3.612  15.453  0.2283  0.6401 -1.2465
17928TIP3    H275276   1.305   3.742  15.375 -1.6816  0.1455 -1.7945
17929TIP3   OH275277   1.035   3.952  13.565 -0.2284 -0.1029 -0.1839
17929TIP3    H175278   0.994   3.994  13.640 -3.1662  1.2354 -2.4617
17929TIP3    H275279   1.100   4.015  13.534 -0.5497  0.2840 -0.0748
17930TIP3   OH275280   5.447   2.409  11.455 -0.3577  0.1793  0.0244
17930TIP3    H175281   5.521   2.359  11.489 -0.6437  0.1628  0.6274
17930TIP3    H275282   5.440   2.382  11.364 -1.3083 -1.8339  0.6762
17931TIP3   OH275283   3.944   6.113  11.841  0.4397 -0.3176  0.2265
17931TIP3    H175284   3.850   6.111  11.826  0.4584 -3.2345  0.2714
17931TIP3    H275285   3.955   6.095  11.934  0.9498  3.6126  1.0269
17932TIP3   OH275286   1.025   4.211   3.484  0.1822 -0.6740 -0.4963
17932TIP3    H175287   1.022   4.291   3.432 -1.0359 -0.2638  0.1736
17932TIP3    H275288   0.933   4.191   3.503  0.6144  0.9179  4.0376
17933TIP3   OH275289   0.159   2.984   3.573  0.3173  0.3897  0.2494
17933TIP3    H175290   0.213   2.912   3.539 -0.8825  0.1631 -1.2555
17933TIP3    H275291   0.120   3.023   3.495 -1.0680  1.0372  1.2442
17934TIP3   OH275292   5.356   4.643  14.000  0.0664 -0.3326  0.1306
17934TIP3    H175293   5.300   4.573  13.966  0.1878 -0.2296 -0.2836
17934TIP3    H275294   5.431   4.597  14.037 -0.1233 -0.4516  0.3714
17935TIP3   OH275295   4.437   1.800   3.002  0.3751 -0.1510 -0.8438
17935TIP3    H175296   4.494   1.739   3.049  0.7618 -0.6957 -2.0077
17935TIP3    H275297   4.385   1.744   2.943  1.1377  0.6825 -2.3394
17936TIP3   OH275298   2.147   1.825   2.028 -0.8997  0.3901  0.3092
17936TIP3    H175299   2.177   1.836   1.938  1.1674 -1.2928  0.7365
17936TIP3    H275300   2.228   1.827   2.080 -1.8342 -1.1154  1.8620
17937TIP3   OH275301   0.975   5.355   2.642  0.0043 -0.0754 -0.3124
17937TIP3    H175302   0.984   5.270   2.687 -1.7097  0.6872  1.5817
17937TIP3    H275303   0.880   5.366   2.632  0.1593  2.0288  0.3248
17938TIP3   OH275304   5.083   5.584  11.125 -0.1890  0.6690 -0.1244
17938TIP3    H175305   5.008   5.585  11.184  0.0651  0.0825  0.2075
17938TIP3    H275306   5.061   5.648  11.058 -1.1258  0.2699 -0.2034
17939TIP3   OH275307   4.502   1.114  16.285 -0.2021  0.0275  0.4349
17939TIP3    H175308   4.412   1.106  16.316  0.7089  1.0081  3.4721
17939TIP3    H275309   4.550   1.044  16.330  1.0346  1.0634  0.7666
17940TIP3   OH275310   6.416   1.490   3.310 -0.0004  0.1727 -0.1477
17940TIP3    H175311   6.469   1.423   3.352  2.5210  2.1250 -0.1237
17940TIP3    H275312   6.429   1.475   3.216 -2.1421 -1.4361 -0.2288
17941TIP3   OH275313   1.523   4.533  14.043 -0.4532 -0.1016 -0.1496
17941TIP3    H175314   1.595   4.592  14.064  1.0423 -2.1240  0.6097
17941TIP3    H275315   1.564   4.446  14.039 -2.7164 -1.1939 -0.4339
17942TIP3   OH275316   4.846   5.082  16.760 -0.1311  0.2440  0.4206
17942TIP3    H175317   4.838   4.988  16.776  1.1610 -0.1709 -1.2411
17942TIP3    H275318   4.890   5.117  16.838  2.4499 -1.0856 -0.3814
17943TIP3   OH275319   0.792   4.534   3.782  0.3677 -0.4028  0.2763
17943TIP3    H175320   0.700   4.507   3.773  0.2960 -0.2409  0.5322
17943TIP3    H275321   0.838   4.485   3.713  0.1512 -0.7630  0.3879
17944TIP3   OH275322   1.929   0.204  13.168  0.4856  0.0765  0.1887
17944TIP3    H175323   1.867   0.276  13.170  0.7758  0.3261  0.2201
17944TIP3    H275324   1.901   0.145  13.238 -0.3395 -0.3347 -0.4768
17945TIP3   OH275325   6.093   5.114  15.189  0.1437 -0.1397 -0.0820
17945TIP3    H175326   6.021   5.163  15.150  0.2153 -0.7706 -1.0127
17945TIP3    H275327   6.059   5.085  15.274 -0.4622  0.1091 -0.2378
17946TIP3   OH275328   0.226   2.087  14.399  0.1204  0.5860 -0.0317
17946TIP3    H175329   0.262   2.176  14.395 -0.4276  0.8770  1.1918
17946TIP3    H275330   0.268   2.041  14.327  1.9327  1.2873  0.5475
17947TIP3   OH275331   2.821   3.073   4.014 -0.3903 -0.0752  0.4682
17947TIP3    H175332   2.798   3.000   3.956  1.5270 -0.6663  0.4142
17947TIP3    H275333   2.763   3.063   4.089 -2.6773  0.5029 -1.1464
17948TIP3   OH275334   5.179   1.128   2.043 -0.2827 -0.5907 -0.6605
17948TIP3    H175335   5.177   1.052   2.101  0.2755 -0.4489 -0.4539
17948TIP3    H275336   5.100   1.119   1.989  0.3287 -1.8579 -1.3456
17949TIP3   OH275337   6.340   4.321  16.206  0.2961 -0.0872  0.5653
17949TIP3    H175338   6.329   4.276  16.289  1.9861  0.3676  1.0405
17949TIP3    H275339   6.395   4.263  16.153  1.9285  1.0763  0.9431
17950TIP3   OH275340   5.673   0.061   5.236 -0.2926 -0.9069  0.2225
17950TIP3    H175341   5.708  -0.016   5.190  0.3154 -0.6827  0.3053
17950TIP3    H275342   5.581   0.039   5.252  0.1488 -2.0887  1.2372
17951TIP3   OH275343   4.881   3.341   0.111 -0.2429  0.2706 -1.1458
17951TIP3    H175344   4.937   3.316   0.037  0.8656  2.7535 -1.1971
17951TIP3    H275345   4.932   3.320   0.188 -0.2833  0.2249 -1.1310
17952TIP3   OH275346   2.378   5.148  15.745 -0.3162  0.1909  0.7703
17952TIP3    H175347   2.290   5.155  15.707  0.5011 -1.4355 -1.5369
17952TIP3    H275348   2.376   5.065  15.793  0.1997 -0.3052 -0.0438
17953TIP3   OH275349   2.059   3.796  17.268 -0.3045  0.5035  0.1241
17953TIP3    H175350   2.143   3.825  17.304  1.4546 -2.6343 -1.2537
17953TIP3    H275351   2.014   3.755  17.342  0.0571  0.7741  0.4985
17954TIP3   OH275352   3.488   2.426  14.687  0.2587  0.0353 -0.4306
17954TIP3    H175353   3.469   2.517  14.665  2.1024  0.3940 -0.5637
17954TIP3    H275354   3.524   2.388  14.606 -1.1028 -1.0040 -0.5759
17955TIP3   OH275355   2.228   1.228  14.809  0.0136 -0.0418 -0.3726
17955TIP3    H175356   2.235   1.185  14.724 -0.6240 -1.6441  0.3542
17955TIP3    H275357   2.139   1.264  14.810  0.5752  1.3720 -1.0130
17956TIP3   OH275358   3.372   1.538  12.290  0.6823 -0.4060  0.0127
17956TIP3    H175359   3.361   1.456  12.338  1.5780 -0.3277  0.3619
17956TIP3    H275360   3.466   1.558  12.298  0.6620  0.1125 -0.9415
17957TIP3   OH275361   5.568   6.433  16.219 -0.2823 -0.5950  0.7680
17957TIP3    H175362   5.618   6.473  16.149  0.2701 -1.0441  0.9048
17957TIP3    H275363   5.477   6.454  16.199 -0.1757 -1.2022 -0.4009
17958TIP3   OH275364   1.347   6.394  14.977 -0.1416 -0.0316  0.3136
17958TIP3    H175365   1.329   6.381  14.884 -0.2412  1.3746  0.1166
17958TIP3    H275366   1.409   6.467  14.979 -0.4563  0.2158  1.3697
17959TIP3   OH275367   5.303   0.507  14.955  0.8064  0.3721  0.5294
17959TIP3    H175368   5.380   0.465  14.992  1.1048  0.4772  0.0247
17959TIP3    H275369   5.289   0.462  14.871  0.6136  0.6944  0.3878
17960TIP3   OH275370   5.413   4.390   4.014 -0.5165 -0.4444  0.5625
17960TIP3    H175371   5.488   4.349   3.970 -0.6896  0.7208 -0.8440
17960TIP3    H275372   5.367   4.438   3.945 -1.4415  0.4940  1.7948
17961TIP3   OH275373   2.901   4.905   5.670 -0.1023 -0.1947  0.1163
17961TIP3    H175374   2.924   4.953   5.749 -0.9647 -0.4046  0.4983
17961TIP3    H275375   2.871   4.972   5.609  1.4402  0.0800 -0.3751
17962TIP3   OH275376   3.570   0.568   2.480 -0.1994 -0.2069  0.2536
17962TIP3    H175377   3.559   0.646   2.534  0.4077  0.5480 -0.6956
17962TIP3    H275378   3.514   0.583   2.405  1.0669  0.0057 -0.6630
17963TIP3   OH275379   1.711   4.037  12.718 -0.1288  0.6067  0.0129
17963TIP3    H175380   1.723   4.022  12.624  0.9143  1.1069  0.0676
17963TIP3    H275381   1.628   4.084  12.724  0.1741  1.2441 -0.7228
17964TIP3   OH275382   0.412   5.208  16.906  0.1786  0.0806  0.7874
17964TIP3    H175383   0.321   5.217  16.933  0.4240  1.1115  1.2792
17964TIP3    H275384   0.459   5.183  16.985  0.4654  0.4148  0.7229
17965TIP3   OH275385   2.257   3.916   2.690 -0.3825  0.1621 -0.3925
17965TIP3    H175386   2.225   3.992   2.642  0.9354  1.8462  1.3104
17965TIP3    H275387   2.180   3.881   2.735 -0.7082  1.4899  0.1097
17966TIP3   OH275388   5.212   2.805  13.850  0.8460  1.0657 -0.1970
17966TIP3    H175389   5.122   2.776  13.839  0.7069  0.9603  1.1517
17966TIP3    H275390   5.259   2.726  13.877  1.2068  1.2542 -0.2733
17967TIP3   OH275391   0.975   0.131  11.346  0.1339 -0.0274 -0.0536
17967TIP3    H175392   0.895   0.082  11.330 -0.8130  1.5519 -0.2577
17967TIP3    H275393   1.022   0.128  11.263  0.3601 -1.0683  0.1045
17968TIP3   OH275394   6.294   6.244   4.449 -0.0902  0.5304 -0.3290
17968TIP3    H175395   6.255   6.311   4.504  0.2053 -0.5232  1.1911
17968TIP3    H275396   6.224   6.220   4.388 -0.9760  0.5252  0.6754
17969TIP3   OH275397   0.609   3.284   5.465 -0.2415 -0.5864 -0.4366
17969TIP3    H175398   0.575   3.368   5.498  1.1478 -0.3638  0.4697
17969TIP3    H275399   0.704   3.295   5.466 -0.0680 -1.9897 -0.8462
17970TIP3   OH275400   1.742   0.713  11.528  0.1476  0.5603  0.1361
17970TIP3    H175401   1.651   0.717  11.497 -0.0338  1.7002  0.7844
17970TIP3    H275402   1.735   0.698  11.622  0.5724  2.3651  0.4828
17971TIP3   OH275403   1.451   5.904   0.456 -0.0277  0.1963  0.0090
17971TIP3    H175404   1.437   5.843   0.383 -0.5838 -0.7165  0.8747
17971TIP3    H275405   1.402   5.982   0.431  0.9902  0.4385 -1.2780
17972TIP3   OH275406   5.193   5.216   5.335  0.4760  0.1793 -0.1364
17972TIP3    H175407   5.273   5.193   5.289  1.3598 -0.2364  1.5774
17972TIP3    H275408   5.125   5.162   5.295  1.5415 -1.3746  0.1497
17973TIP3   OH275409   2.484   5.345   3.199  0.1314  0.3122  0.3376
17973TIP3    H175410   2.562   5.336   3.253 -0.0979 -0.5966  0.5223
17973TIP3    H275411   2.419   5.288   3.240 -0.2769  0.1860 -0.4677
17974TIP3   OH275412   2.708   2.621  15.536  0.0617  0.3222  0.2147
17974TIP3    H175413   2.743   2.584  15.617 -0.3353 -0.7846 -0.1150
17974TIP3    H275414   2.701   2.547  15.476 -0.9211  0.8898 -0.3920
17975TIP3   OH275415   6.119   5.784   5.043  0.7292  0.7725 -0.2233
17975TIP3    H175416   6.077   5.745   4.966  0.9487  0.2554 -0.0813
17975TIP3    H275417   6.080   5.738   5.117  0.6020  1.1926 -0.0283
17976TIP3   OH275418   3.534   2.243  11.805  0.2571 -0.0726 -0.4852
17976TIP3    H175419   3.576   2.158  11.820 -0.2282 -0.1098  0.7499
17976TIP3    H275420   3.449   2.222  11.767 -0.3335 -0.2186  0.8702
17977TIP3   OH275421   0.377   5.163   0.967 -0.0793  0.8525 -0.3883
17977TIP3    H175422   0.285   5.168   0.941  0.2060  0.4121 -1.4981
17977TIP3    H275423   0.375   5.169   1.062 -1.3577 -0.5132 -0.3202
17978TIP3   OH275424   6.367   0.946   2.280  0.0468  0.3485 -0.5707
17978TIP3    H175425   6.353   0.866   2.332  1.2791 -1.3943 -2.7998
17978TIP3    H275426   6.462   0.955   2.276 -0.1110  2.5921  0.5996
17979TIP3   OH275427   4.417   6.660  16.343 -0.0955  0.0199 -0.3485
17979TIP3    H175428   4.345   6.653  16.406  0.3411  1.0323  0.2933
17979TIP3    H275429   4.478   6.591  16.369  0.4697  0.9601  0.8800
17980TIP3   OH275430   1.776   0.769  15.281 -0.1510  0.5189 -0.1417
17980TIP3    H175431   1.856   0.812  15.311  0.7219 -0.9451 -0.3310
17980TIP3    H275432   1.752   0.815  15.201  2.1468 -0.9143 -1.6924
17981TIP3   OH275433   6.253   6.719   2.853 -0.1443 -0.6688  0.5368
17981TIP3    H175434   6.193   6.755   2.918  0.7388 -0.3597  1.1920
17981TIP3    H275435   6.333   6.702   2.902  1.0446  0.9791 -0.7747
17982TIP3   OH275436   6.393   4.249   4.617 -0.5182  0.2910  0.4007
17982TIP3    H175437   6.358   4.287   4.536  1.4138  0.5252 -0.3398
17982TIP3    H275438   6.395   4.323   4.678 -0.9249  0.3664  0.3292
17983TIP3   OH275439   1.517   4.275   3.229 -0.5146  0.1001  0.0031
17983TIP3    H175440   1.546   4.305   3.316  1.2624 -0.5322 -0.3480
17983TIP3    H275441   1.471   4.193   3.246  0.9538 -0.7000  0.2548
17984TIP3   OH275442   1.179   4.138  13.844  0.5816 -0.2932 -0.2269
17984TIP3    H175443   1.216   4.139  13.755  0.3097  0.7116 -0.3279
17984TIP3    H275444   1.203   4.223  13.881  1.8926 -1.2489  1.1613
17985TIP3   OH275445   3.976   3.839   5.678 -0.0778  0.1170  0.2291
17985TIP3    H175446   4.014   3.756   5.647 -1.7156 -1.0352  1.2478
17985TIP3    H275447   3.882   3.822   5.683 -0.5729  2.4298 -0.6942
17986TIP3   OH275448   3.418   1.765   3.235  0.5900 -0.1765 -0.6087
17986TIP3    H175449   3.364   1.844   3.227  0.0610 -0.3856  0.7852
17986TIP3    H275450   3.452   1.750   3.147 -2.3732 -0.5980 -1.7361
17987TIP3   OH275451   5.918   2.629   4.100  0.2366  0.1071 -0.4332
17987TIP3    H175452   5.863   2.627   4.021 -2.5685 -2.2386  1.4582
17987TIP3    H275453   5.997   2.582   4.076 -0.5447 -0.4827 -1.9036
17988TIP3   OH275454   5.628   3.466   5.712 -0.2622  0.2103  0.1673
17988TIP3    H175455   5.649   3.410   5.787  1.2384 -0.1858 -0.5323
17988TIP3    H275456   5.669   3.423   5.637 -0.0057  1.6672 -0.5584
17989TIP3   OH275457   5.040   0.984   1.508 -0.1471 -0.0594 -0.0667
17989TIP3    H175458   5.041   0.889   1.519  0.2441 -0.0819 -0.2806
17989TIP3    H275459   5.132   1.009   1.500 -0.1684  0.5031  1.3093
17990TIP3   OH275460   1.686   0.499   3.781  0.5337  0.1107  0.7044
17990TIP3    H175461   1.687   0.432   3.712  0.5374 -0.6944  1.4813
17990TIP3    H275462   1.633   0.461   3.851  0.3438  1.0213  1.0655
17991TIP3   OH275463   1.582   6.727   0.764 -0.0280 -0.2243  0.0587
17991TIP3    H175464   1.646   6.704   0.696 -0.6384 -0.5120 -0.4265
17991TIP3    H275465   1.538   6.644   0.783 -1.0939  0.2024 -0.4895
17992TIP3   OH275466   6.353   5.193  16.031 -0.6760 -0.7165 -0.3345
17992TIP3    H175467   6.388   5.122  15.978  0.2091 -0.2699 -0.3438
17992TIP3    H275468   6.413   5.200  16.105 -1.2778 -0.5920  0.1478
17993TIP3   OH275469   0.726   3.996   0.361 -0.0268  0.0217  0.1683
17993TIP3    H175470   0.665   3.927   0.386 -1.3778 -0.0176 -2.9630
17993TIP3    H275471   0.696   4.074   0.407 -2.4021 -0.0413 -1.2081
17994TIP3   OH275472   4.250   0.982  14.198  0.2656  0.0751  0.3072
17994TIP3    H175473   4.274   1.025  14.280 -0.2667  0.8740  0.0582
17994TIP3    H275474   4.162   0.948  14.213  0.3324 -0.1382  0.2142
17995TIP3   OH275475   5.885   4.993   0.726  0.3474  0.8813  0.4857
17995TIP3    H175476   5.853   4.913   0.767  0.1273  0.1217 -1.1275
17995TIP3    H275477   5.938   4.963   0.653  1.2758  2.2054  0.5880
17996TIP3   OH275478   5.888   3.497   3.658 -0.3432 -0.0631  0.2243
17996TIP3    H175479   5.978   3.484   3.630 -0.9761 -0.0176 -1.9230
17996TIP3    H275480   5.864   3.583   3.624 -1.1188  0.0449  1.0063
17997TIP3   OH275481   2.073   5.448  11.933  0.2783 -0.1446  0.3416
17997TIP3    H175482   2.128   5.414  11.862 -1.1063 -2.4957  0.3425
17997TIP3    H275483   2.024   5.519  11.893 -0.3957 -1.3751 -1.0649
17998TIP3   OH275484   4.116   2.546   4.337  0.2275  0.1966 -0.5467
17998TIP3    H175485   4.050   2.557   4.269 -0.4892  0.5570  0.2077
17998TIP3    H275486   4.188   2.604   4.311  0.3574 -0.3659 -1.4843
17999TIP3   OH275487   6.366   2.013  15.873  0.1118 -0.6590  0.1494
17999TIP3    H175488   6.324   2.033  15.957 -0.9429  0.9518 -0.7348
17999TIP3    H275489   6.447   2.064  15.875 -0.9223  1.0540 -0.6656
18000TIP3   OH275490   0.442   6.752   0.792 -0.3248 -0.4309 -0.0573
18000TIP3    H175491   0.536   6.740   0.801 -0.1147  1.2766  0.1366
18000TIP3    H275492   0.427   6.752   0.697 -0.3847 -2.4434 -0.0695
18001TIP3   OH275493   3.035   6.349   5.988 -0.3574 -0.0589 -0.1731
18001TIP3    H175494   3.023   6.444   5.988 -0.5046 -0.0742  0.5903
18001TIP3    H275495   3.063   6.328   6.077  1.3369 -0.5283 -0.7905
18002TIP3   OH275496   5.782   6.732  10.946  0.0902 -0.1413 -0.1914
18002TIP3    H175497   5.872   6.758  10.964  0.1441 -0.0285 -0.6027
18002TIP3    H275498   5.779   6.639  10.968  0.2559 -0.0984  0.0077
18003TIP3   OH275499   0.668   6.504  12.180  0.5422 -0.9960  0.3243
18003TIP3    H175500   0.743   6.448  12.162  0.1841 -1.6644  0.8980
18003TIP3    H275501   0.640   6.534  12.094  0.6632 -1.7966 -0.0025
18004TIP3   OH275502   6.453   1.808   5.002  0.0839 -0.5724 -0.5060
18004TIP3    H175503   6.468   1.856   5.083  0.5386 -3.2246  1.0241
18004TIP3    H275504   6.541   1.794   4.966 -0.0718 -0.0273 -1.1182
18005TIP3   OH275505   2.801   2.097  15.833 -0.0771 -0.7698 -0.2503
18005TIP3    H175506   2.880   2.042  15.839  0.3729  0.0392  1.4018
18005TIP3    H275507   2.820   2.173  15.888 -1.2174  0.4286 -1.4728
18006TIP3   OH275508   2.786   6.700   5.451  0.1206 -0.2743 -0.2821
18006TIP3    H175509   2.798   6.749   5.533 -0.4350 -0.3081 -0.1805
18006TIP3    H275510   2.751   6.615   5.479  1.0265 -0.7091 -0.4629
18007TIP3   OH275511   6.230   5.731  12.990 -0.2527  0.1858 -0.1999
18007TIP3    H175512   6.233   5.640  13.021  0.8949  0.9454  1.9368
18007TIP3    H275513   6.137   5.754  12.993 -0.7787 -1.4113 -2.3372
18008TIP3   OH275514   2.639   4.161  11.172 -0.3358  0.2935 -0.0194
18008TIP3    H175515   2.641   4.174  11.078 -1.5905 -1.5647 -0.3343
18008TIP3    H275516   2.693   4.083  11.187 -2.1415 -0.8964  0.4920
18009TIP3   OH275517   1.109   1.325  11.366  0.4002 -1.2154  0.3857
18009TIP3    H175518   1.093   1.248  11.312  0.4359 -1.1840  0.3292
18009TIP3    H275519   1.158   1.292  11.442  1.3790 -1.0826 -0.1691
18010TIP3   OH275520   5.277   0.381   1.411  0.2912 -0.2230 -0.0225
18010TIP3    H175521   5.368   0.380   1.440  0.1790 -0.3994  0.3371
18010TIP3    H275522   5.259   0.473   1.390  0.3367 -0.0615  0.6191
18011TIP3   OH275523   3.769   0.200   3.330 -0.4766 -0.2597  0.5817
18011TIP3    H175524   3.814   0.210   3.246 -0.7305 -2.1971  0.1817
18011TIP3    H275525   3.835   0.221   3.396 -0.0361  0.4644 -0.0825
18012TIP3   OH275526   2.688   5.244   3.693  0.3806  0.7217 -0.1028
18012TIP3    H175527   2.622   5.299   3.650  0.7294  0.9418 -0.3551
18012TIP3    H275528   2.650   5.224   3.779 -1.2421 -1.3815 -1.2553
18013TIP3   OH275529   5.987   6.254  14.025 -0.2319  0.0244 -0.0586
18013TIP3    H175530   6.045   6.182  14.047  0.4305  1.1605  2.0425
18013TIP3    H275531   5.913   6.245  14.085 -0.6391  0.4988 -0.4779
18014TIP3   OH275532   2.460   2.211   4.268  0.1365 -0.0774 -0.1230
18014TIP3    H175533   2.471   2.306   4.278 -1.1067 -0.0758  1.3640
18014TIP3    H275534   2.401   2.201   4.194 -1.2912  0.3863  0.9398
18015TIP3   OH275535   2.940   0.514  16.504  0.5207  0.3380  0.2070
18015TIP3    H175536   2.928   0.421  16.483  2.2232 -0.1546  1.3207
18015TIP3    H275537   2.905   0.560  16.428 -0.5428 -1.1985 -0.2735
18016TIP3   OH275538   4.017   6.056   3.650 -0.1311  0.0591  0.1036
18016TIP3    H175539   3.968   6.022   3.725  0.7057 -1.7303 -0.1385
18016TIP3    H275540   4.087   6.107   3.689  2.1183 -3.3379  0.6898
18017TIP3   OH275541   2.714   3.476   5.091  0.1421 -0.4035 -0.0067
18017TIP3    H175542   2.673   3.407   5.040  2.0507 -0.6062 -1.3121
18017TIP3    H275543   2.808   3.461   5.082  0.5558  0.9035  1.7112
18018TIP3   OH275544   5.155   5.877  17.267  0.5193  0.2887  0.6352
18018TIP3    H175545   5.238   5.856  17.225 -0.8412 -3.0653 -0.5644
18018TIP3    H275546   5.124   5.793  17.301 -3.6437  0.9376 -1.3096
18019TIP3   OH275547   5.200   4.018  14.270 -0.1345  0.1387  0.2813
18019TIP3    H175548   5.221   4.108  14.247 -0.6436  0.8179  2.3985
18019TIP3    H275549   5.231   4.008  14.360 -2.8810 -0.8344  1.1671
18020TIP3   OH275550   3.722   4.133  14.961  1.0354 -0.0229 -0.1259
18020TIP3    H175551   3.697   4.101  15.047  1.6805  0.5187  0.2680
18020TIP3    H275552   3.702   4.061  14.901  1.1701 -0.6286  0.5598
18021TIP3   OH275553   6.802   4.524   5.123 -0.1784  0.4458 -0.2142
18021TIP3    H175554   6.709   4.504   5.132 -0.2434  0.2190 -1.2848
18021TIP3    H275555   6.832   4.469   5.051  1.0478 -0.2870  0.8211
18022TIP3   OH275556   6.167   0.635  17.143  0.2289  0.4944 -0.5402
18022TIP3    H175557   6.246   0.665  17.189  1.7678  2.5450 -4.3209
18022TIP3    H275558   6.095   0.681  17.186  1.3335  0.6052  1.2562
18023TIP3   OH275559   3.320   3.932  13.477 -0.1296 -0.5283 -0.0145
18023TIP3    H175560   3.288   3.856  13.525  0.0338 -0.1176  0.7533
18023TIP3    H275561   3.314   4.004  13.540  0.8371 -0.1458 -0.3464
18024TIP3   OH275562   1.564   4.414   1.896 -0.3683  0.3850  0.2428
18024TIP3    H175563   1.613   4.333   1.909 -0.3093  0.6301  1.5652
18024TIP3    H275564   1.610   4.458   1.824  0.2736 -0.2309  0.2676
18025TIP3   OH275565   5.578   3.681  12.819  0.3274  0.4425  0.2899
18025TIP3    H175566   5.586   3.741  12.745 -1.7299 -0.9955 -1.1512
18025TIP3    H275567   5.485   3.680  12.840  0.1745 -2.6844 -0.1637
18026TIP3   OH275568   6.095   1.759  17.017 -0.5482  0.0588 -0.3898
18026TIP3    H175569   6.147   1.828  16.976 -1.5101 -0.2991 -2.3098
18026TIP3    H275570   6.122   1.679  16.971 -3.0976 -0.0616 -1.7412
18027TIP3   OH275571   5.192   5.914   1.242 -0.0752 -0.0686  0.0236
18027TIP3    H175572   5.280   5.930   1.277 -1.1522  2.5826  1.7031
18027TIP3    H275573   5.145   5.873   1.314 -0.8902  0.7561 -0.0335
18028TIP3   OH275574   6.660   4.398   1.192 -0.1134 -0.9811  0.7093
18028TIP3    H175575   6.614   4.447   1.260  3.5433  0.8489  1.9686
18028TIP3    H275576   6.746   4.380   1.229  1.3467 -1.5096 -2.7659
18029TIP3   OH275577   0.822   5.709   0.768 -0.1475 -0.1967 -0.2301
18029TIP3    H175578   0.901   5.673   0.808 -0.0229  0.2326 -0.0911
18029TIP3    H275579   0.846   5.721   0.676  0.5548  1.6512  0.1703
18030TIP3   OH275580   3.721   5.158  15.738 -0.1501  0.5082 -0.1851
18030TIP3    H175581   3.785   5.133  15.671 -0.1421  0.2202 -0.0710
18030TIP3    H275582   3.637   5.134  15.700 -0.1220  0.0647  0.0333
18031TIP3   OH275583   4.037   2.316   4.547 -0.4543 -0.3962  0.3720
18031TIP3    H175584   4.065   2.398   4.507 -2.4214  0.1024 -0.0298
18031TIP3    H275585   4.041   2.332   4.641 -2.1338  0.6309  0.2853
18032TIP3   OH275586   1.627   1.714   3.176 -0.2123 -0.0516 -0.2020
18032TIP3    H175587   1.558   1.648   3.181 -0.3465 -0.0193 -1.5253
18032TIP3    H275588   1.703   1.672   3.217 -1.0329 -0.0404  1.3793
18033TIP3   OH275589   6.079   3.377   4.714 -0.1167  0.0262  0.5628
18033TIP3    H175590   6.086   3.286   4.743 -2.5217  0.1334  1.6771
18033TIP3    H275591   6.044   3.372   4.625  3.3444 -0.1982 -0.8449
18034TIP3   OH275592   3.916   6.455  12.362 -0.7014  0.0477  0.4820
18034TIP3    H175593   3.852   6.513  12.322 -1.0975 -0.9106 -0.2831
18034TIP3    H275594   3.930   6.385  12.298 -0.5010 -0.8993  1.5299
18035TIP3   OH275595   5.542   0.714   0.146 -0.0522  0.2121 -0.1704
18035TIP3    H175596   5.591   0.747   0.221  0.5320  1.0328 -0.8909
18035TIP3    H275597   5.456   0.692   0.180 -0.0655  1.3978  0.5687
18036TIP3   OH275598   3.299   5.759  15.372 -0.3071 -0.1598 -0.2578
18036TIP3    H175599   3.310   5.751  15.467  0.2828  1.4474 -0.1798
18036TIP3    H275600   3.387   5.744  15.337 -0.3112  0.3283 -0.4750
18037TIP3   OH275601   5.323   2.936   3.201  0.0967 -0.7382 -0.4370
18037TIP3    H175602   5.280   2.914   3.119  1.2348 -1.1596 -0.9303
18037TIP3    H275603   5.416   2.922   3.184  0.3726 -0.5127  0.8219
18038TIP3   OH275604   5.826   1.801  17.059 -0.3237 -0.2827 -0.1693
18038TIP3    H175605   5.911   1.797  17.014 -0.8630 -1.2874 -1.1127
18038TIP3    H275606   5.794   1.889  17.040  0.9653  0.4749  1.0600
18039TIP3   OH275607   3.869   4.822   5.487  0.1656  0.1233  0.1191
18039TIP3    H175608   3.902   4.774   5.412  0.5671 -0.6512  0.7738
18039TIP3    H275609   3.912   4.907   5.483  1.6212 -0.5805  0.5068
18040TIP3   OH275610   6.211   6.597   3.734 -0.0728 -0.2842  0.5859
18040TIP3    H175611   6.227   6.578   3.826 -1.6347  0.5989  1.0594
18040TIP3    H275612   6.154   6.526   3.704  0.3363 -0.5054  0.3260
18041TIP3   OH275613   0.387   0.235   4.460  0.3767 -0.3661  0.0624
18041TIP3    H175614   0.308   0.206   4.414  0.6419 -1.3571  0.2215
18041TIP3    H275615   0.414   0.159   4.511  0.5916  0.4400  1.1740
18042TIP3   OH275616   6.286   1.636  12.979 -0.8977  0.0670 -0.2884
18042TIP3    H175617   6.254   1.710  13.031  1.7352  1.8238 -1.0515
18042TIP3    H275618   6.340   1.586  13.039 -0.5809  0.2138 -0.4513
18043TIP3   OH275619   6.096   0.604   6.862  0.2938  0.2049  0.3655
18043TIP3    H175620   6.034   0.676   6.878  0.6472  0.3675  0.9936
18043TIP3    H275621   6.040   0.530   6.838 -0.0519  0.7939 -0.6693
18044TIP3   OH275622   0.978   4.984  12.807  0.4844  0.6949 -0.4185
18044TIP3    H175623   1.029   4.905  12.786 -0.4675 -0.2265  0.6989
18044TIP3    H275624   0.978   4.988  12.902  0.3947  1.9714 -0.4708
18045TIP3   OH275625   6.420   3.823  15.225 -0.0101 -0.8007  0.3292
18045TIP3    H175626   6.513   3.817  15.205  0.1361  0.6344  0.5477
18045TIP3    H275627   6.416   3.851  15.317 -0.6232  0.8480 -0.1691
18046TIP3   OH275628   4.792   2.140   0.835  0.4219 -0.2634  0.0855
18046TIP3    H175629   4.743   2.150   0.916 -1.4964 -1.1057 -0.9247
18046TIP3    H275630   4.823   2.050   0.836 -0.1563 -0.4787 -0.3755
18047TIP3   OH275631   3.263   2.172  13.537  0.1203 -0.3695  0.1203
18047TIP3    H175632   3.193   2.234  13.559  0.6127  0.2863 -0.1234
18047TIP3    H275633   3.219   2.088  13.530 -0.3536 -0.2742  1.7202
18048TIP3   OH275634   1.795   5.466  17.115 -0.2516  0.7195  0.0742
18048TIP3    H175635   1.777   5.441  17.206  2.3725 -0.6084  0.2802
18048TIP3    H275636   1.730   5.418  17.064 -0.2108 -0.4389  1.0877
18049TIP3   OH275637   0.009   2.923   2.437 -0.4947  0.5089  0.4344
18049TIP3    H175638  -0.023   3.011   2.458 -1.0271 -0.0705  2.2018
18049TIP3    H275639  -0.068   2.867   2.442 -0.1185 -0.0985 -0.4283
18050TIP3   OH275640   6.503   0.900   3.793  0.1835  0.6681  0.3328
18050TIP3    H175641   6.472   0.863   3.876 -0.9841  0.7983 -0.0490
18050TIP3    H275642   6.435   0.961   3.766 -0.7075 -1.2552 -2.0298
18051TIP3   OH275643   3.555   0.586  16.908  0.6373  0.1066 -0.2035
18051TIP3    H175644   3.590   0.675  16.899  1.5014 -0.0131  1.6101
18051TIP3    H275645   3.613   0.545  16.973 -2.0551 -0.5320  1.8807
18052TIP3   OH275646   6.137   5.099   6.192  0.2273  0.1200 -0.1597
18052TIP3    H175647   6.212   5.098   6.252 -0.1537 -0.0726  0.3194
18052TIP3    H275648   6.118   5.006   6.176 -0.8882  0.1465  0.9592
18053TIP3   OH275649   6.602   5.569   3.024 -0.2329  0.1456  0.2075
18053TIP3    H175650   6.697   5.556   3.026 -0.1333  0.8421  0.2368
18053TIP3    H275651   6.565   5.482   3.041  0.4064  0.0625  1.2002
18054TIP3   OH275652   6.320   4.680   4.240  0.4192  0.2601 -0.1355
18054TIP3    H175653   6.340   4.623   4.314 -0.4739  0.3916  0.2199
18054TIP3    H275654   6.273   4.624   4.178  1.0141  0.1927 -0.5302
18055TIP3   OH275655   2.271   2.343  15.565  0.2320 -0.3360  0.9568
18055TIP3    H175656   2.278   2.437  15.553 -2.4673 -0.0373  1.3976
18055TIP3    H275657   2.303   2.306  15.483 -0.4615  1.0382  0.0449
18056TIP3   OH275658   0.585   2.733   0.074  0.3362 -0.1697 -0.4617
18056TIP3    H175659   0.517   2.766   0.016  0.1191  1.7376  0.8284
18056TIP3    H275660   0.573   2.638   0.074 -3.3546  0.2054  0.9271
18057TIP3   OH275661   6.616   5.207  14.603  0.7342 -0.3648 -0.3404
18057TIP3    H175662   6.642   5.131  14.654 -0.4569  0.1928  1.1403
18057TIP3    H275663   6.697   5.256  14.589  1.6919 -2.4146 -2.2131
18058TIP3   OH275664   3.658   3.114   5.685  0.2659 -0.0018  0.3950
18058TIP3    H175665   3.671   3.020   5.702  3.0854  0.2979  0.1415
18058TIP3    H275666   3.659   3.121   5.589 -2.2312  0.0256  0.3444
18059TIP3   OH275667   3.627   4.616   0.965  0.1497 -0.0018 -0.0608
18059TIP3    H175668   3.665   4.575   0.887  0.4918 -1.2396  0.7565
18059TIP3    H275669   3.672   4.700   0.971 -0.5145  0.5037 -1.7085
18060TIP3   OH275670   0.066   6.820   0.522  0.1674  0.4310 -0.1422
18060TIP3    H175671  -0.025   6.849   0.513  0.1993  0.4933 -0.2760
18060TIP3    H275672   0.065   6.730   0.489  0.0895  0.3169  0.1713
18061TIP3   OH275673   5.073   1.377   3.221 -0.6851 -0.0763 -0.1349
18061TIP3    H175674   5.104   1.392   3.132  0.9312  0.1014  0.4409
18061TIP3    H275675   5.106   1.290   3.244  2.5449  1.5763  1.7741
18062TIP3   OH275676   2.961   2.900  16.649  0.5506 -0.1845 -0.2830
18062TIP3    H175677   2.963   2.870  16.558  2.2748 -0.7371 -0.0946
18062TIP3    H275678   3.012   2.981  16.649 -0.1219  0.2423  0.0489
18063TIP3   OH275679   2.547   0.264   1.741  0.1219 -0.1201 -0.0807
18063TIP3    H175680   2.503   0.225   1.817 -3.0341 -0.2108 -1.8644
18063TIP3    H275681   2.503   0.349   1.729  2.1934  0.9376 -0.4279
18064TIP3   OH275682   4.632   6.428   0.465  0.1135  0.1181 -0.5137
18064TIP3    H175683   4.624   6.503   0.406  2.3879  0.9504  0.1360
18064TIP3    H275684   4.709   6.380   0.433 -0.6544 -1.3055 -0.2499
18065TIP3   OH275685   2.922   3.046  10.639  0.3714  0.6536  0.4442
18065TIP3    H175686   2.984   2.982  10.672  0.1358  0.2698  0.1489
18065TIP3    H275687   2.962   3.081  10.560  0.0299  0.1011  0.0199
18066TIP3   OH275688   1.458   1.655   0.199 -0.4825 -0.0161  0.4044
18066TIP3    H175689   1.408   1.678   0.121 -1.4810 -0.9113  0.7786
18066TIP3    H275690   1.437   1.563   0.216  1.6012 -0.5394  0.3242
18067TIP3   OH275691   5.958   3.865   4.497 -0.6450 -0.2022  0.2229
18067TIP3    H175692   5.931   3.779   4.465  2.2807 -1.4236  0.7852
18067TIP3    H275693   6.052   3.869   4.477 -0.4025  2.2184  1.6145
18068TIP3   OH275694   3.624   3.107   3.185 -0.8126 -0.3442 -0.2226
18068TIP3    H175695   3.712   3.119   3.149 -0.7108 -2.5744 -0.8222
18068TIP3    H275696   3.605   3.188   3.232  1.8503 -0.1217  0.5165
18069TIP3   OH275697   1.266   6.504  11.963 -0.1726 -0.4453  0.8704
18069TIP3    H175698   1.274   6.594  11.930 -0.3194  0.0783  2.1942
18069TIP3    H275699   1.344   6.491  12.016  0.6490 -1.6935 -0.6381
18070TIP3   OH275700   6.530   0.234  11.377  0.0609  0.3670  0.3241
18070TIP3    H175701   6.564   0.287  11.305  0.3720 -1.8593 -1.2453
18070TIP3    H275702   6.608   0.211  11.428  0.2496 -0.4683 -0.3240
18071TIP3   OH275703   0.697   4.987  16.301  0.0871 -0.4594  0.4993
18071TIP3    H175704   0.739   4.955  16.381 -0.3800 -1.9147  0.1703
18071TIP3    H275705   0.766   5.037  16.257  0.8346 -0.9962  1.0304
18072TIP3   OH275706   2.273   2.931   5.824  0.4951  0.1898  0.1162
18072TIP3    H175707   2.277   2.981   5.742 -0.1313 -0.7854 -0.5175
18072TIP3    H275708   2.289   2.841   5.798  3.7079  0.2953  1.5180
18073TIP3   OH275709   1.664   4.622   1.371  0.0406 -0.5752  0.3458
18073TIP3    H175710   1.702   4.708   1.352  2.7071 -2.1269 -1.6658
18073TIP3    H275711   1.614   4.600   1.292 -0.9067 -0.7440  0.9881
18074TIP3   OH275712   1.260   4.464  11.655 -0.7160  0.7942 -0.0944
18074TIP3    H175713   1.244   4.521  11.730  1.0587 -0.3599  1.2092
18074TIP3    H275714   1.355   4.457  11.650 -0.8278  0.5973 -2.2807
18075TIP3   OH275715   1.484   4.867   1.564 -0.3214 -0.8745  0.1678
18075TIP3    H175716   1.425   4.793   1.548 -0.2889 -0.6468 -1.0242
18075TIP3    H275717   1.425   4.942   1.575 -0.2420 -0.3873 -2.3947
18076TIP3   OH275718   6.506   2.008  13.534 -0.1084 -0.2002  0.5241
18076TIP3    H175719   6.567   1.987  13.604 -0.0588  0.8100  0.7911
18076TIP3    H275720   6.530   2.097  13.508 -1.0233 -0.0595  0.1670
18077TIP3   OH275721   2.701   5.704  17.191 -0.3718 -0.2422  0.3425
18077TIP3    H175722   2.628   5.666  17.142 -1.5080  0.4684  1.4479
18077TIP3    H275723   2.752   5.752  17.125 -0.3417 -1.5485 -0.6013
18078TIP3   OH275724   0.158   2.159  14.742 -0.0571 -0.4520  0.5328
18078TIP3    H175725   0.101   2.125  14.673  0.5125  0.8900 -0.6174
18078TIP3    H275726   0.213   2.224  14.698 -0.0197  0.7778  2.3411
18079TIP3   OH275727   3.863   2.499  12.657 -0.2763  0.1097 -0.0917
18079TIP3    H175728   3.950   2.537  12.670  0.0087 -0.4474 -0.3489
18079TIP3    H275729   3.860   2.425  12.719 -0.1059 -0.6094 -0.9254
18080TIP3   OH275730   0.761   2.849  11.499 -0.6204 -0.0001 -0.3958
18080TIP3    H175731   0.738   2.877  11.587 -3.2316 -1.9110 -0.3994
18080TIP3    H275732   0.760   2.930  11.447  0.0730  1.0145  1.1441
18081TIP3   OH275733   0.802   0.793  15.309  0.3311 -0.3505  0.5041
18081TIP3    H175734   0.846   0.723  15.260 -1.0974 -0.3981 -0.7570
18081TIP3    H275735   0.866   0.821  15.374  2.8303  0.5761 -2.2083
18082TIP3   OH275736   5.346   5.317   1.639  1.0678  0.0149 -0.6946
18082TIP3    H175737   5.369   5.406   1.664  0.3188 -0.5841  2.2351
18082TIP3    H275738   5.423   5.286   1.590  1.6071  2.0093 -1.1612
18083TIP3   OH275739   2.883   6.806   4.378 -0.2290 -0.2438  0.2131
18083TIP3    H175740   2.974   6.826   4.403 -0.6648  0.3654  1.3531
18083TIP3    H275741   2.874   6.712   4.393  0.0221 -0.1863  0.7246
18084TIP3   OH275742   1.865   0.191   3.827  0.3936 -0.0597 -0.0173
18084TIP3    H175743   1.897   0.270   3.869  0.2050  0.6543 -1.2045
18084TIP3    H275744   1.943   0.138   3.811  1.1039  1.8187 -3.2120
18085TIP3   OH275745   2.702   5.208  13.691 -0.4072 -0.4521 -0.4579
18085TIP3    H175746   2.658   5.203  13.776 -1.0523  1.9707 -0.6299
18085TIP3    H275747   2.794   5.222  13.713 -0.3261 -1.4576 -0.1434
18086TIP3   OH275748   6.436   4.975   5.013  0.0850  0.4356  0.1904
18086TIP3    H175749   6.443   5.069   5.030 -0.8913  0.2241  1.8785
18086TIP3    H275750   6.503   4.936   5.069  0.7628  0.1515 -0.8115
18087TIP3   OH275751   1.209   3.085  13.385  0.7451  0.5781  0.2126
18087TIP3    H175752   1.134   3.031  13.411  0.4443  0.2553 -1.2645
18087TIP3    H275753   1.193   3.170  13.426  0.2034  0.1324  0.9268
18088TIP3   OH275754   4.986   1.081   1.151  0.0825  0.1235  0.2793
18088TIP3    H175755   4.891   1.069   1.150  0.0097  0.7086 -0.1734
18088TIP3    H275756   5.001   1.160   1.203  0.5983 -2.1140  3.6367
18089TIP3   OH275757   3.416   3.922   1.606  0.2369 -0.1119 -0.4565
18089TIP3    H175758   3.326   3.892   1.613  0.0035  0.6511 -0.1921
18089TIP3    H275759   3.465   3.863   1.663  0.0450 -1.0737 -1.2639
18090TIP3   OH275760   6.585   2.277   2.127 -0.2966  0.0567 -0.0372
18090TIP3    H175761   6.567   2.184   2.137  1.2503 -0.1679  0.8457
18090TIP3    H275762   6.597   2.309   2.217  1.0036  0.7020 -0.4174
18091TIP3   OH275763   5.237   3.179   4.743  0.2175 -0.1561 -0.2100
18091TIP3    H175764   5.269   3.252   4.689 -0.2032  2.0143  2.3783
18091TIP3    H275765   5.314   3.150   4.792  0.0609 -0.4729 -0.1542
18092TIP3   OH275766   3.152   3.425   5.891  0.3898  0.3637  0.2026
18092TIP3    H175767   3.080   3.368   5.919  0.2296  0.6788  0.4252
18092TIP3    H275768   3.221   3.364   5.865 -0.4204  0.0382 -1.2483
18093TIP3   OH275769   3.913   6.276  13.739 -0.6316  0.2927 -0.4477
18093TIP3    H175770   3.978   6.207  13.726 -3.5943 -2.6128 -0.6412
18093TIP3    H275771   3.904   6.318  13.654 -0.9799 -1.1507 -1.1423
18094TIP3   OH275772   5.124   1.590  10.137 -0.0536  0.0294 -0.1883
18094TIP3    H175773   5.097   1.638  10.216 -0.0895 -0.2818 -0.0106
18094TIP3    H275774   5.146   1.503  10.169  2.1207  0.5494 -0.1914
18095TIP3   OH275775   6.129   3.187   1.190 -0.1471  0.1892 -0.4876
18095TIP3    H175776   6.089   3.114   1.237 -1.0810  0.6626 -0.5275
18095TIP3    H275777   6.064   3.211   1.124 -1.1697  2.9729  1.4482
18096TIP3   OH275778   1.912   1.862   1.070  0.3562  0.0970  0.2623
18096TIP3    H175779   1.900   1.770   1.095 -0.6125  0.0515 -0.3460
18096TIP3    H275780   1.970   1.859   0.995  1.4287  0.0797  1.0791
18097TIP3   OH275781   5.408   5.904   5.160 -0.3898  0.0947 -0.2562
18097TIP3    H175782   5.476   5.923   5.095 -0.8937  1.0171 -0.5171
18097TIP3    H275783   5.452   5.915   5.244 -0.7919  3.0310 -0.3776
18098TIP3   OH275784   3.385   3.851  15.735  0.1976 -0.2566 -0.2574
18098TIP3    H175785   3.415   3.865  15.646  2.1575  3.6724  0.9177
18098TIP3    H275786   3.290   3.859  15.730  0.0457 -2.6144 -2.3315
18099TIP3   OH275787   5.066   4.373  17.210 -0.3462 -0.4259  0.4695
18099TIP3    H175788   5.115   4.368  17.127  0.1719 -0.8599  0.7983
18099TIP3    H275789   5.002   4.302  17.204 -1.4035  0.5821 -0.2577
18100TIP3   OH275790   2.493   4.982  14.512 -0.0605 -0.0554  0.2693
18100TIP3    H175791   2.417   5.032  14.482  0.8711  1.5715  0.5400
18100TIP3    H275792   2.462   4.935  14.589 -0.9267  0.2082  0.0812
18101TIP3   OH275793   4.847   5.186   1.103  0.1590 -0.2835  0.1244
18101TIP3    H175794   4.851   5.125   1.030  1.7991 -0.0928  0.0526
18101TIP3    H275795   4.875   5.270   1.066 -3.4129  0.9172 -0.1384
18102TIP3   OH275796   2.900   6.242  11.938  0.5249  0.3478 -0.2534
18102TIP3    H175797   2.922   6.286  12.020 -1.2052  1.2344 -0.2416
18102TIP3    H275798   2.983   6.209  11.905  1.3470  0.6453  1.4795
18103TIP3   OH275799   3.859   6.262   5.154 -0.1658  0.3349  0.3927
18103TIP3    H175800   3.911   6.294   5.227 -0.8572  0.8329  0.6798
18103TIP3    H275801   3.781   6.223   5.195 -0.0377 -0.3661 -0.0273
18104TIP3   OH275802   4.335   5.626  12.555 -0.1949 -0.1739  0.2610
18104TIP3    H175803   4.364   5.571  12.483  1.6499  0.9406  0.1145
18104TIP3    H275804   4.278   5.570  12.608 -0.7416 -1.2977 -1.4925
18105TIP3   OH275805   4.192   6.696  10.941 -0.2141  0.3636 -0.0462
18105TIP3    H175806   4.269   6.642  10.960  0.8062  1.1312 -1.8770
18105TIP3    H275807   4.205   6.725  10.850 -2.5996  0.6123 -0.3274
18106TIP3   OH275808   4.745   2.495  12.532 -0.0673 -0.1675 -0.2883
18106TIP3    H175809   4.809   2.437  12.573 -0.2953 -0.3448 -0.1827
18106TIP3    H275810   4.754   2.578  12.578  1.5768  0.4598 -1.6731
18107TIP3   OH275811   5.756   4.417  12.736  0.2712 -0.8994  0.3280
18107TIP3    H175812   5.673   4.377  12.762  0.6823 -0.6391  2.1121
18107TIP3    H275813   5.770   4.486  12.801  2.1848 -1.3384  0.3992
18108TIP3   OH275814   3.901   0.846   2.818 -0.1655  0.2382  0.2486
18108TIP3    H175815   3.935   0.934   2.836  1.8458 -0.7579  1.4925
18108TIP3    H275816   3.893   0.806   2.905 -0.0106 -1.1874 -0.3904
18109TIP3   OH275817   2.888   3.368   3.792  0.1205  0.2620 -0.6358
18109TIP3    H175818   2.835   3.335   3.864  2.1071  1.1762  1.2894
18109TIP3    H275819   2.882   3.301   3.724  0.2797 -1.8336  1.3881
18110TIP3   OH275820   6.717   6.291   2.636 -0.0585 -0.1590 -0.0101
18110TIP3    H175821   6.680   6.226   2.697 -0.2135 -0.0270  0.0352
18110TIP3    H275822   6.771   6.239   2.577  0.0823 -0.2920  0.2331
18111TIP3   OH275823   5.551   4.899  12.736 -0.4647 -0.0391 -0.0008
18111TIP3    H175824   5.588   4.966  12.792  0.0185  0.3733 -0.8009
18111TIP3    H275825   5.462   4.886  12.769 -0.7214  1.3327 -0.1396
18112TIP3   OH275826   0.368   2.950  16.762 -0.3430 -0.0082 -0.2563
18112TIP3    H175827   0.447   2.970  16.713 -0.4882 -1.7679 -1.2471
18112TIP3    H275828   0.332   2.871  16.720 -1.2073 -0.7674  1.8057
18113TIP3   OH275829   5.918   1.994   1.767  0.6079  0.0511 -0.6233
18113TIP3    H175830   5.983   1.932   1.801  1.7158  0.5773 -1.7765
18113TIP3    H275831   5.950   2.018   1.680  0.6093  2.8622  0.1178
18114TIP3   OH275832   2.550   2.985   5.456 -0.2247 -0.1470  0.2680
18114TIP3    H175833   2.476   2.929   5.478  1.2637 -2.4979 -0.4791
18114TIP3    H275834   2.523   3.031   5.377 -0.5084 -1.8058 -0.6203
18115TIP3   OH275835   3.551   3.553  13.507  0.3572  0.3701  0.4314
18115TIP3    H175836   3.577   3.590  13.423  1.3059  0.6427  0.8375
18115TIP3    H275837   3.585   3.464  13.506  2.1271  1.0024  1.3126
18116TIP3   OH275838   1.747   5.140  15.325  0.2925 -0.4690 -0.5611
18116TIP3    H175839   1.661   5.100  15.335  0.6908 -1.5367 -1.2797
18116TIP3    H275840   1.764   5.137  15.231 -0.0612  2.2820 -0.7623
18117TIP3   OH275841   0.903   1.766  13.293 -0.0157 -0.1718  0.1336
18117TIP3    H175842   0.916   1.855  13.324  1.1054 -1.2378  2.8729
18117TIP3    H275843   0.955   1.761  13.212  2.0055  0.9160  1.3199
18118TIP3   OH275844   1.694   2.970   1.119  0.4998  0.0979  0.0539
18118TIP3    H175845   1.768   3.000   1.065  2.0785 -1.3834  1.3056
18118TIP3    H275846   1.716   3.000   1.207 -0.2549 -0.6036  0.4859
18119TIP3   OH275847   5.749   6.207  14.191 -0.1566 -0.1700  0.0359
18119TIP3    H175848   5.676   6.147  14.205 -0.7403  0.3419 -0.7405
18119TIP3    H275849   5.710   6.294  14.196  0.7439  0.1689  1.5143
18120TIP3   OH275850   5.866   6.694  11.845  0.1478  0.1205 -0.0956
18120TIP3    H175851   5.847   6.650  11.763  1.0009  0.3212 -0.4049
18120TIP3    H275852   5.918   6.631  11.895  0.5656  0.4179 -0.1556
18121TIP3   OH275853   4.679   2.184   4.810 -0.8440  0.6668 -0.1651
18121TIP3    H175854   4.768   2.151   4.819 -0.6543  1.2257  0.0642
18121TIP3    H275855   4.635   2.158   4.890 -1.1354 -0.3432 -0.6418
18122TIP3   OH275856   6.510   6.164  14.522 -0.1082  0.1770 -0.1600
18122TIP3    H175857   6.460   6.087  14.548  1.1687 -1.0233 -1.2005
18122TIP3    H275858   6.597   6.149  14.559 -0.0520  1.4815  0.2628
18123TIP3   OH275859   3.990   1.497  15.058 -0.0563  0.2420 -0.2567
18123TIP3    H175860   3.934   1.570  15.032 -0.1353 -0.1627 -1.2543
18123TIP3    H275861   4.042   1.531  15.130  0.9708  1.7837 -1.6735
18124TIP3   OH275862   0.088   4.742  16.085  0.0908 -0.1148  0.3139
18124TIP3    H175863   0.126   4.823  16.052  1.5267 -0.5153  0.9428
18124TIP3    H275864  -0.006   4.751  16.069  0.3563  1.2258 -0.5585
18125TIP3   OH275865   5.819   2.050   2.126 -0.2053  0.7182  0.0427
18125TIP3    H175866   5.867   2.125   2.161 -0.3515  1.1208 -0.6193
18125TIP3    H275867   5.768   2.018   2.200 -1.0874  2.0237  0.0174
18126TIP3   OH275868   0.744   3.259  13.385 -0.1619  0.2489 -0.2314
18126TIP3    H175869   0.790   3.284  13.305  1.8735 -1.2608  0.4130
18126TIP3    H275870   0.774   3.321  13.451  2.2297 -1.6493  0.5509
18127TIP3   OH275871   1.581   6.335  15.196  0.6771 -0.0097  0.9270
18127TIP3    H175872   1.584   6.323  15.101  0.0318  3.2764  0.4241
18127TIP3    H275873   1.539   6.256  15.229  2.4553 -1.9705 -1.3307
18128TIP3   OH275874   4.681   1.637  16.184 -0.4702  0.0551  0.1426
18128TIP3    H175875   4.755   1.690  16.212  0.9019 -0.7262 -1.8497
18128TIP3    H275876   4.718   1.551  16.166 -1.8136 -0.3176 -0.9958
18129TIP3   OH275877   3.460   1.340  13.178 -0.3578 -0.8397 -0.1383
18129TIP3    H175878   3.489   1.345  13.269 -0.2017  0.4438 -0.2522
18129TIP3    H275879   3.475   1.249  13.153  0.5565 -0.9570  0.8050
18130TIP3   OH275880   3.498   3.627   0.977 -0.0982 -0.1033  0.4099
18130TIP3    H175881   3.577   3.678   0.957 -0.9184  1.0451  0.0344
18130TIP3    H275882   3.519   3.582   1.059  0.4056  1.3974  1.1324
18131TIP3   OH275883   6.245   3.371   3.409 -0.7077  0.1727  0.4771
18131TIP3    H175884   6.313   3.362   3.342 -0.2181 -2.5598  1.3104
18131TIP3    H275885   6.162   3.366   3.360 -0.3374  0.8095 -0.2169
18132TIP3   OH275886   2.811   0.967   2.091  0.0877 -0.4102  0.1920
18132TIP3    H175887   2.864   0.994   2.016 -0.7573 -0.3273 -0.3750
18132TIP3    H275888   2.752   1.041   2.107 -1.0690 -1.2195 -0.2915
18133TIP3   OH275889   3.277   5.131   1.344  0.0787 -0.0446  0.2546
18133TIP3    H175890   3.306   5.221   1.328 -2.1708  0.4606 -1.2716
18133TIP3    H275891   3.301   5.084   1.264 -1.7828  0.0353 -0.3935
18134TIP3   OH275892   3.837   6.538  16.952 -0.1718  0.0240 -0.7298
18134TIP3    H175893   3.877   6.505  16.872 -0.1557 -0.1205 -0.6620
18134TIP3    H275894   3.749   6.498  16.952  0.6293 -1.8395  0.4792
18135TIP3   OH275895   5.300   1.161  14.487  0.0843  0.1207 -0.7372
18135TIP3    H175896   5.340   1.144  14.572 -0.2790 -0.4340 -0.6698
18135TIP3    H275897   5.353   1.230  14.448  2.7441 -2.3990 -1.7594
18136TIP3   OH275898   3.836   0.216  16.348 -1.0229  0.4713  0.2881
18136TIP3    H175899   3.802   0.143  16.297 -1.5295  0.5535  0.5107
18136TIP3    H275900   3.889   0.267  16.286  1.0229 -1.1886  0.6010
18137TIP3   OH275901   5.828   2.534   4.975  0.4949  0.4096 -0.0408
18137TIP3    H175902   5.761   2.599   4.997  0.9790  0.4866  1.2654
18137TIP3    H275903   5.833   2.477   5.052  1.7246  0.2245 -0.2435
18138TIP3   OH275904   5.268   4.639  13.480  0.3129 -0.1561 -0.0627
18138TIP3    H175905   5.190   4.583  13.476  1.5317 -1.8484 -0.4874
18138TIP3    H275906   5.332   4.588  13.529  2.1684 -0.0458 -2.2808
18139TIP3   OH275907   1.031   2.273   1.876 -0.4676  0.4740  0.1370
18139TIP3    H175908   1.029   2.365   1.846  1.6507  0.8940  1.1515
18139TIP3    H275909   0.975   2.271   1.953  0.1451  1.1203  0.6050
18140TIP3   OH275910   2.540   0.122  12.562 -0.3798  0.0798 -0.3601
18140TIP3    H175911   2.496   0.040  12.583  0.0710 -0.4411 -1.4347
18140TIP3    H275912   2.604   0.099  12.496  0.4520  1.1232  0.0687
18141TIP3   OH275913   2.539   2.272   1.777  0.1979  0.3833 -0.6622
18141TIP3    H175914   2.552   2.364   1.756 -2.3977  0.1948 -3.5498
18141TIP3    H275915   2.470   2.271   1.843  1.6176  0.5773  0.8347
18142TIP3   OH275916   2.416   2.218  13.650 -0.0096 -0.3352  0.3268
18142TIP3    H175917   2.410   2.188  13.559  0.2701  1.9428 -0.4719
18142TIP3    H275918   2.449   2.142  13.698 -0.8207 -1.7884 -1.3383
18143TIP3   OH275919   3.813   0.024  15.206  0.7381 -0.0065 -0.3549
18143TIP3    H175920   3.872   0.051  15.135  0.6067  3.5454  0.7932
18143TIP3    H275921   3.853   0.060  15.285 -1.5442  0.1161  0.7740
18144TIP3   OH275922   0.382   5.746  12.720 -0.1445  0.3628 -0.3093
18144TIP3    H175923   0.376   5.731  12.625 -0.5600 -2.1336  0.0734
18144TIP3    H275924   0.315   5.689  12.758  0.1083  1.2409  1.5013
18145TIP3   OH275925   2.728   4.461   6.364  0.0616 -0.1982 -0.6954
18145TIP3    H175926   2.653   4.403   6.374  0.4156 -0.7037 -0.9593
18145TIP3    H275927   2.696   4.532   6.308  0.0303 -0.8739 -1.5523
18146TIP3   OH275928   0.106   2.981  15.385 -0.1701  0.0854  0.6893
18146TIP3    H175929   0.078   2.918  15.452 -0.1767 -0.8055 -0.1385
18146TIP3    H275930   0.166   2.931  15.329  1.2082  1.3175  1.0519
18147TIP3   OH275931   2.157   0.451   1.611  0.5359 -0.4960 -0.0570
18147TIP3    H175932   2.136   0.435   1.703 -0.8206  0.2356 -0.2248
18147TIP3    H275933   2.136   0.543   1.598 -0.9357 -1.0264 -1.5355
18148TIP3   OH275934   3.709   6.277   1.111  0.8455 -0.3064  0.1529
18148TIP3    H175935   3.623   6.244   1.136 -0.1565  1.2230 -1.1761
18148TIP3    H275936   3.764   6.262   1.188 -0.8948 -0.2832  1.4331
18149TIP3   OH275937   2.655   1.119  11.562  0.2100 -0.3049  0.4892
18149TIP3    H175938   2.650   1.042  11.505 -1.4013  0.6441 -0.7055
18149TIP3    H275939   2.745   1.119  11.595  1.2710 -0.7738 -2.2384
18150TIP3   OH275940   6.358   6.606   1.945  0.8243  0.5092 -0.4415
18150TIP3    H175941   6.322   6.670   2.007 -3.8338 -1.0822 -1.2870
18150TIP3    H275942   6.384   6.659   1.869  0.4704  1.8061  0.3173
18151TIP3   OH275943   0.513   0.282   3.114 -0.7403 -0.3169 -0.4873
18151TIP3    H175944   0.457   0.206   3.096 -1.6227  0.7928 -2.5282
18151TIP3    H275945   0.452   0.354   3.130  0.0798  0.6335 -1.5377
18152TIP3   OH275946   2.428   2.949  16.383  0.4274 -0.0460  0.3380
18152TIP3    H175947   2.522   2.956  16.393  0.5181  2.3284 -1.8870
18152TIP3    H275948   2.416   2.878  16.320  0.8810  1.4866 -1.5163
18153TIP3   OH275949   6.087   2.555  12.961  0.8609  0.1209 -0.6742
18153TIP3    H175950   6.175   2.539  12.927  0.3940 -1.5581 -1.1595
18153TIP3    H275951   6.029   2.510  12.899 -0.2540  0.2862  0.2400
18154TIP3   OH275952   2.913   2.067   0.103 -0.1083  0.8053 -0.6145
18154TIP3    H175953   2.992   2.118   0.120  0.4872 -0.3744  0.1607
18154TIP3    H275954   2.945   1.980   0.079 -1.1931  0.0150  0.7664
18155TIP3   OH275955   4.571   0.379   1.711 -0.0922 -0.0387 -1.2488
18155TIP3    H175956   4.587   0.286   1.730 -0.2602 -0.2753 -2.2364
18155TIP3    H275957   4.487   0.397   1.752  1.1836  0.3975  1.2788
18156TIP3   OH275958   3.797   0.182  13.646 -0.2331 -0.3316 -0.0706
18156TIP3    H175959   3.878   0.132  13.640 -0.2305 -0.2955 -0.3283
18156TIP3    H275960   3.764   0.185  13.557  0.7262  1.7232 -0.3945
18157TIP3   OH275961   0.802   3.229   0.624 -0.0815  0.5796 -0.5195
18157TIP3    H175962   0.750   3.307   0.641 -0.5224  0.3973 -1.0127
18157TIP3    H275963   0.783   3.206   0.533  1.2378  0.7908 -0.8588
18158TIP3   OH275964   4.729   0.726  10.698 -0.3916  0.1820 -0.0675
18158TIP3    H175965   4.792   0.783  10.655 -0.9521  1.0527  0.2621
18158TIP3    H275966   4.783   0.663  10.745  0.2307  0.5104 -0.3366
18159TIP3   OH275967   5.850   2.401  15.187  0.5388  0.3068  0.0223
18159TIP3    H175968   5.936   2.435  15.164  0.0521  1.5050 -0.0843
18159TIP3    H275969   5.866   2.343  15.262  1.5469 -0.2006 -0.5771
18160TIP3   OH275970   2.479   4.561  12.789 -0.0836  0.4602 -0.2016
18160TIP3    H175971   2.571   4.570  12.813  0.3271  0.5047 -1.7188
18160TIP3    H275972   2.447   4.652  12.785 -0.6428  0.3767  1.9417
18161TIP3   OH275973   1.365   0.764   1.641 -0.1528  0.1461 -0.1806
18161TIP3    H175974   1.424   0.689   1.629 -0.6907 -0.4818  0.9339
18161TIP3    H275975   1.382   0.794   1.731 -0.4041  0.9480 -0.3987
18162TIP3   OH275976   6.222   0.842  10.932  0.3542 -0.7715 -0.2811
18162TIP3    H175977   6.315   0.831  10.952 -0.1297 -1.6629  1.5665
18162TIP3    H275978   6.216   0.930  10.895  1.9370 -0.7340 -0.4779
18163TIP3   OH275979   1.618   5.309   6.407 -0.7997 -0.4095  0.0128
18163TIP3    H175980   1.710   5.333   6.402 -0.7832  0.0342  1.8638
18163TIP3    H275981   1.602   5.297   6.501 -2.6780 -0.2696 -0.2732
18164TIP3   OH275982   0.808   6.447   5.826  0.2845  0.1810 -0.3819
18164TIP3    H175983   0.784   6.357   5.845 -0.0975  0.3446 -0.0779
18164TIP3    H275984   0.801   6.455   5.731 -2.8718  0.7834 -0.1482
18165TIP3   OH275985   6.678   5.770  11.795  0.4295 -0.7221  0.8118
18165TIP3    H175986   6.765   5.752  11.833 -0.1758 -4.0571  0.8276
18165TIP3    H275987   6.670   5.707  11.723 -1.9004 -0.3693  0.7233
18166TIP3   OH275988   2.213   4.588  14.598 -0.5221  0.1769  0.2939
18166TIP3    H175989   2.173   4.550  14.675  1.2497  0.8669  1.5919
18166TIP3    H275990   2.301   4.550  14.595 -0.2826  0.7886 -0.9019
18167TIP3   OH275991   3.417   6.291  10.757  0.4620  0.0442  0.5380
18167TIP3    H175992   3.335   6.242  10.746  1.5842 -2.1357  1.5962
18167TIP3    H275993   3.483   6.235  10.717  1.5565  1.4517  0.3574
18168TIP3   OH275994   2.220   4.761   3.741  0.4389 -0.0821 -0.0525
18168TIP3    H175995   2.199   4.668   3.751 -0.3033  0.1741  0.8443
18168TIP3    H275996   2.166   4.789   3.667 -0.5966  0.0076  0.7185
18169TIP3   OH275997   0.411   2.145  15.101 -0.0813  0.1014 -0.1725
18169TIP3    H175998   0.376   2.077  15.159  0.3400 -1.9292 -2.2209
18169TIP3    H275999   0.505   2.125  15.094  0.3495  1.8335  0.4287
18170TIP3   OH276000   5.423   2.696  15.121  0.3842  0.6794  0.0705
18170TIP3    H176001   5.500   2.666  15.170  0.9374 -0.2458 -1.3207
18170TIP3    H276002   5.356   2.711  15.188  0.6787 -1.9393  1.0259
18171TIP3   OH276003   5.574   1.339   6.045 -0.1859 -0.1713  0.2757
18171TIP3    H176004   5.511   1.377   6.107 -0.6164  0.9743 -0.8534
18171TIP3    H276005   5.657   1.379   6.070 -0.3497  0.2523  0.1567
18172TIP3   OH276006   6.149   4.832   5.910  0.3416 -0.2175  0.2576
18172TIP3    H176007   6.143   4.833   6.006  1.0393  0.0510  0.2988
18172TIP3    H276008   6.163   4.741   5.887  1.5972 -0.0929  0.5000
18173TIP3   OH276009   6.671   3.969   2.836  0.1885 -1.2458 -0.5032
18173TIP3    H176010   6.618   3.937   2.909  0.3643 -0.0706  0.1398
18173TIP3    H276011   6.607   4.001   2.772  0.1166  0.6326  0.4834
18174TIP3   OH276012   6.604   0.536   1.891 -0.0234 -0.7184  0.3556
18174TIP3    H176013   6.645   0.617   1.920 -0.3657 -0.7990  1.0752
18174TIP3    H276014   6.642   0.468   1.947 -0.1681 -0.9758  0.1430
18175TIP3   OH276015   0.830   0.058   5.277 -0.1194 -0.0981  0.6749
18175TIP3    H176016   0.813   0.039   5.185  0.4372  0.6237  0.4216
18175TIP3    H276017   0.743   0.065   5.317 -0.4488  3.0536 -0.4898
18176TIP3   OH276018   1.288   1.311  11.735  0.0510 -0.2253  0.3827
18176TIP3    H176019   1.290   1.387  11.677  0.8426 -1.3274 -1.0751
18176TIP3    H276020   1.362   1.324  11.794  0.3590  0.0060 -0.0482
18177TIP3   OH276021   2.706   1.685  11.572 -0.4840 -0.5965 -0.1412
18177TIP3    H176022   2.702   1.719  11.483  2.7173 -2.4204 -1.0985
18177TIP3    H276023   2.617   1.657  11.592 -1.9749  3.0473 -1.4103
18178TIP3   OH276024   1.700   2.937  12.491  0.4409 -0.3198 -0.3960
18178TIP3    H176025   1.636   2.866  12.485  0.2127 -0.2086  0.6416
18178TIP3    H276026   1.728   2.952  12.400 -1.7541  0.3441 -0.9832
18179TIP3   OH276027   3.267   3.394   5.037 -0.2795  0.1154 -0.0277
18179TIP3    H176028   3.316   3.407   4.956 -1.6144  1.2997 -0.6624
18179TIP3    H276029   3.256   3.299   5.043 -0.9363  0.0767 -1.7030
18180TIP3   OH276030   1.896   1.085  11.990 -0.1089  0.0545 -0.5482
18180TIP3    H176031   1.801   1.087  11.979 -0.1292  1.7595 -0.3092
18180TIP3    H276032   1.909   1.064  12.083 -0.2802  0.6117 -0.3949
18181TIP3   OH276033   1.439   5.571  13.390 -0.6653 -0.2305 -0.4588
18181TIP3    H176034   1.353   5.614  13.393 -0.3723  0.3395 -0.0836
18181TIP3    H276035   1.471   5.589  13.301 -0.3876  0.6470 -0.1881
18182TIP3   OH276036   6.092   3.276   0.329  0.1582  0.1701  0.1169
18182TIP3    H176037   6.070   3.184   0.319 -0.5001  0.2825  0.4724
18182TIP3    H276038   6.052   3.318   0.252 -0.7046  0.3422  0.6461
18183TIP3   OH276039   0.628   0.445  11.989 -0.4588  0.0772 -0.0706
18183TIP3    H176040   0.704   0.502  11.979 -0.2679 -0.3137 -0.9215
18183TIP3    H276041   0.655   0.381  12.055 -0.7100  1.0253  0.9556
18184TIP3   OH276042   2.866   0.206  17.002 -0.5747  0.4384  0.2514
18184TIP3    H176043   2.947   0.172  16.963 -0.3152 -1.0054  1.9949
18184TIP3    H276044   2.808   0.131  17.007 -2.0775  1.4954 -1.0406
18185TIP3   OH276045   3.091   0.258   0.057  0.0391  0.0713 -0.1270
18185TIP3    H176046   3.055   0.319  -0.007  2.0544  1.2832 -0.1448
18185TIP3    H276047   3.122   0.184   0.004  0.2679  0.3560 -0.3910
18186TIP3   OH276048   3.095   3.950   4.179 -0.2794  0.0737  0.5303
18186TIP3    H176049   3.055   4.023   4.131  0.0083  0.8103  1.3953
18186TIP3    H276050   3.101   3.981   4.269 -1.1131 -1.4210  1.1220
18187TIP3   OH276051   4.071   2.268   2.608  0.7268 -0.2776 -0.0871
18187TIP3    H176052   4.159   2.301   2.630  0.5490  0.7405 -0.8591
18187TIP3    H276053   4.049   2.312   2.526 -0.7162 -0.1343  0.3662
18188TIP3   OH276054   4.314   4.950   1.388  0.3396 -0.6599 -0.0899
18188TIP3    H176055   4.238   4.941   1.446 -0.3813  1.0869 -0.7274
18188TIP3    H276056   4.346   4.860   1.377 -0.6349 -1.2387  1.4903
18189TIP3   OH276057   2.026   1.892  15.631 -0.2093 -0.2052  0.0998
18189TIP3    H176058   2.096   1.833  15.603  0.1574  0.3175 -0.0853
18189TIP3    H276059   1.946   1.847  15.605  0.0737 -0.5222 -0.2325
18190TIP3   OH276060   4.833   1.995   4.276 -0.2797  0.5301 -0.1130
18190TIP3    H176061   4.878   1.934   4.218  0.2326  1.2317 -0.4623
18190TIP3    H276062   4.887   1.999   4.354 -1.2588 -0.8341  0.6377
18191TIP3   OH276063   5.014   4.130   1.269  0.5530 -0.3614  0.3410
18191TIP3    H176064   4.941   4.074   1.242 -1.8823  1.9653  1.8500
18191TIP3    H276065   5.070   4.073   1.320  0.2292 -2.3941 -1.4947
18192TIP3   OH276066   1.110   2.147  16.788  0.0484  0.2007  0.8048
18192TIP3    H176067   1.174   2.193  16.844  0.8000 -2.3478  2.1215
18192TIP3    H276068   1.039   2.123  16.848 -1.5220  1.7591 -0.3723
18193TIP3   OH276069   0.183   5.601  11.860  0.5010 -0.3048 -0.1173
18193TIP3    H176070   0.190   5.571  11.770  0.5920 -0.9919  0.1163
18193TIP3    H276071   0.092   5.582  11.884  0.6174 -0.6059  0.0992
18194TIP3   OH276072   2.032   3.776   3.397  0.2921  0.4009  0.1989
18194TIP3    H176073   1.998   3.741   3.480  0.9702 -0.2972  0.1788
18194TIP3    H276074   2.080   3.703   3.358  0.3227  0.8597 -0.6169
18195TIP3   OH276075   3.391   0.341   6.624 -0.3851 -0.1026 -0.4477
18195TIP3    H176076   3.452   0.337   6.550  1.1929  3.8438  0.4852
18195TIP3    H276077   3.408   0.262   6.675  2.5709 -0.0364 -1.2761
18196TIP3   OH276078   6.301   3.053   2.262 -0.0681 -0.0672  0.0754
18196TIP3    H176079   6.233   3.120   2.254 -0.7651 -0.8035 -0.1961
18196TIP3    H276080   6.264   2.976   2.219  1.1542 -0.3172 -0.5465
18197TIP3   OH276081   3.885   0.834  11.519  0.0946 -0.6527  0.4728
18197TIP3    H176082   3.976   0.831  11.546  0.7028  2.2882 -0.9907
18197TIP3    H276083   3.838   0.862  11.598  1.0017  1.4961  0.3004
18198TIP3   OH276084   6.105   2.109   5.717  0.5178  0.2149 -0.1478
18198TIP3    H176085   6.107   2.042   5.649  0.8890 -1.4550  1.4562
18198TIP3    H276086   6.014   2.138   5.720  0.5921  0.6276 -1.6526
18199TIP3   OH276087   3.181   3.650   3.418  0.0513 -0.3935 -0.4100
18199TIP3    H176088   3.254   3.622   3.363  0.5397 -0.5207  0.3120
18199TIP3    H276089   3.218   3.716   3.477 -0.5864  0.1146 -0.5591
18200TIP3   OH276090   6.158   6.804  16.226 -0.3357 -0.3472  0.3471
18200TIP3    H176091   6.222   6.811  16.297  0.6160 -0.6721 -0.4589
18200TIP3    H276092   6.082   6.763  16.267  0.7714 -1.9787  0.8479
18201TIP3   OH276093   6.255   2.905  12.311 -0.5462 -0.3652  0.5054
18201TIP3    H176094   6.233   2.828  12.258  0.4729  0.6012 -1.3538
18201TIP3    H276095   6.193   2.972  12.283  0.0748  0.1848  0.4464
18202TIP3   OH276096   2.404   0.963  16.964  0.2443  0.1490 -0.2867
18202TIP3    H176097   2.490   0.975  17.003  0.7721 -0.2273 -1.3384
18202TIP3    H276098   2.419   0.962  16.870 -0.9482  0.3988 -0.4944
18203TIP3   OH276099   3.602   0.071   5.842  0.3561  0.5098 -0.1193
18203TIP3    H176100   3.575   0.158   5.873 -0.5872  0.1659  0.0358
18203TIP3    H276101   3.571   0.067   5.752  1.1430  0.6545 -0.3960
18204TIP3   OH276102   5.510   3.222  14.657 -0.3790  0.3306  0.0134
18204TIP3    H176103   5.537   3.187  14.571 -0.6025 -1.0933  0.5088
18204TIP3    H276104   5.427   3.178  14.675  0.5538 -0.7567  1.7837
18205TIP3   OH276105   2.085   0.343  12.889  0.1490  0.0268 -0.2913
18205TIP3    H176106   2.063   0.250  12.884 -0.1229 -0.0296  1.5647
18205TIP3    H276107   2.178   0.347  12.866 -0.2695 -0.4772 -2.1246
18206TIP3   OH276108   5.885   3.169   2.030  0.2008  0.2088 -0.1278
18206TIP3    H176109   5.822   3.098   2.041  0.0836  0.3493  0.1432
18206TIP3    H276110   5.966   3.126   2.005  0.0570  0.0044 -0.2435
18207TIP3   OH276111   2.576   5.396   4.669  0.3046 -0.6235 -0.6628
18207TIP3    H176112   2.566   5.316   4.721  2.7381 -0.4835  0.0885
18207TIP3    H276113   2.488   5.431   4.662 -0.0954 -0.5843  3.5160
18208TIP3   OH276114   0.029   2.747  16.580  0.1111 -0.8848 -0.1646
18208TIP3    H176115   0.023   2.770  16.487  0.3968 -1.3195 -0.2944
18208TIP3    H276116  -0.059   2.718  16.604 -0.2980  0.4891  0.0446
18209TIP3   OH276117   0.193   5.005   4.404  0.2065  0.3117 -0.5996
18209TIP3    H176118   0.102   5.030   4.386  0.7862  2.3013 -0.8974
18209TIP3    H276119   0.209   5.038   4.492  1.1998  1.6029 -1.2538
18210TIP3   OH276120   1.816   1.225  11.775 -0.6011  0.5254 -0.2902
18210TIP3    H176121   1.869   1.218  11.855 -0.3490  1.7679 -0.3415
18210TIP3    H276122   1.828   1.141  11.731  1.0234  0.6561 -0.1205
18211TIP3   OH276123   6.093   0.645  12.612 -0.4753 -0.4106  0.0297
18211TIP3    H176124   6.077   0.714  12.676 -2.9752 -2.0221  1.2295
18211TIP3    H276125   6.005   0.620  12.582  0.4011 -2.8393 -0.5832
18212TIP3   OH276126   2.722   3.151  16.622 -0.0295  0.4147 -0.1469
18212TIP3    H176127   2.752   3.151  16.531 -0.0884  0.2758 -0.1683
18212TIP3    H276128   2.677   3.067  16.632 -0.2116  0.5240 -0.0519
18213TIP3   OH276129   5.735   6.743  16.183  0.4318  0.5892  0.1866
18213TIP3    H176130   5.691   6.723  16.101  2.1490  1.8919 -1.0696
18213TIP3    H276131   5.708   6.832  16.205 -0.9476 -0.1671  1.6652
18214TIP3   OH276132   3.011   4.313   2.038  0.4466 -0.0879 -0.1807
18214TIP3    H176133   2.961   4.350   1.965  0.4907 -0.5600 -0.4517
18214TIP3    H276134   3.097   4.356   2.032  0.2658  0.2893 -0.0684
18215TIP3   OH276135   0.306   5.510   1.729  0.3452  0.1904  0.1222
18215TIP3    H176136   0.293   5.512   1.823 -0.7522  0.2147 -0.0191
18215TIP3    H276137   0.283   5.599   1.700  0.7946  0.2193 -0.1497
18216TIP3   OH276138   3.359   0.106  17.269 -0.1804  0.0280 -0.0912
18216TIP3    H176139   3.451   0.127  17.257 -0.1709  0.4346  0.6710
18216TIP3    H276140   3.322   0.109  17.181  0.8197 -1.5323 -0.5719
18217TIP3   OH276141   1.872   4.545   5.062 -0.3148 -0.5439 -0.2448
18217TIP3    H176142   1.886   4.637   5.039 -0.2392 -0.2759  0.8417
18217TIP3    H276143   1.953   4.501   5.035 -0.7325 -0.4658 -1.6477
18218TIP3   OH276144   3.120   4.781   1.951 -0.2480  0.2559 -0.3008
18218TIP3    H176145   3.140   4.769   1.858  2.0673 -1.5215  0.3798
18218TIP3    H276146   3.025   4.777   1.956 -0.3306 -1.0655 -2.4166
18219TIP3   OH276147   1.810   0.633   3.528  0.1182 -0.3091 -0.0119
18219TIP3    H176148   1.736   0.671   3.481  1.1732  1.8190 -0.0255
18219TIP3    H276149   1.781   0.628   3.619  0.3575  1.7082  0.2077
18220TIP3   OH276150   2.931   3.218   4.939 -0.5827 -0.0953  0.5867
18220TIP3    H176151   2.944   3.313   4.945 -1.1425 -0.0713  1.3974
18220TIP3    H276152   2.869   3.197   5.009  0.1327 -1.1700  0.9220
18221TIP3   OH276153   4.244   1.798   5.097 -0.0211 -0.1277 -0.0559
18221TIP3    H176154   4.243   1.863   5.167 -1.3681 -0.0152 -0.1739
18221TIP3    H276155   4.177   1.827   5.036  0.2195 -0.9602 -0.7245
18222TIP3   OH276156   0.936   1.580  10.830 -0.4534  0.5746  0.0770
18222TIP3    H176157   0.850   1.621  10.835 -0.3377  1.1888 -2.4356
18222TIP3    H276158   0.924   1.506  10.770  0.6001  0.2106  0.2991
18223TIP3   OH276159   4.618   4.764  13.900 -0.8462  0.1071 -0.3077
18223TIP3    H176160   4.590   4.770  13.992 -2.4410 -1.6731 -0.6560
18223TIP3    H276161   4.663   4.679  13.894  1.1966  1.1806 -0.6859
18224TIP3   OH276162   1.523   6.005  12.593  0.1319 -0.2593 -0.7191
18224TIP3    H176163   1.454   6.048  12.542  0.7189 -0.3476 -1.5999
18224TIP3    H276164   1.523   5.915  12.562 -1.1160 -0.9275  1.1554
18225TIP3   OH276165   4.402   4.593  12.602 -0.1152  0.0268 -0.3503
18225TIP3    H176166   4.319   4.548  12.618  0.4239 -1.2533 -1.0895
18225TIP3    H276167   4.393   4.629  12.514  0.1386 -0.1578 -0.4497
18226TIP3   OH276168   3.496   4.671   2.883  0.1430 -0.0835 -0.0609
18226TIP3    H176169   3.532   4.583   2.893  0.3317  0.1580  1.4446
18226TIP3    H276170   3.412   4.658   2.840  0.4175 -0.9453 -0.3384
18227TIP3   OH276171   2.754   3.422   4.096  0.0491 -0.1666 -0.0874
18227TIP3    H176172   2.791   3.510   4.086 -0.1224  0.2884  2.7566
18227TIP3    H276173   2.660   3.434   4.092 -0.0631  0.1708  2.5819
18228TIP3   OH276174   1.581   1.322   1.458 -0.0819 -0.0885  0.9822
18228TIP3    H176175   1.616   1.349   1.374 -0.3873 -1.1966  0.4849
18228TIP3    H276176   1.518   1.253   1.436 -0.0366 -0.5013  2.1260
18229TIP3   OH276177   1.129   0.131  15.045 -0.1065  0.8706  0.6294
18229TIP3    H176178   1.143   0.194  14.974 -0.6614 -0.5831 -0.8001
18229TIP3    H276179   1.187   0.058  15.025  0.7901  1.0536  2.4644
18230TIP3   OH276180   6.498   0.498   3.324 -0.0571  0.1328 -0.3017
18230TIP3    H176181   6.409   0.521   3.296 -0.9309 -2.6297  0.0441
18230TIP3    H276182   6.485   0.433   3.393  2.2487 -0.0025  0.0420
18231TIP3   OH276183   1.054   1.263   4.075  0.0562  0.2130 -0.3848
18231TIP3    H176184   1.140   1.304   4.069  1.1606 -1.7174  1.7266
18231TIP3    H276185   1.062   1.183   4.023 -0.5590  0.1747 -0.4226
18232TIP3   OH276186   3.394   5.620   0.179  0.0391  0.0540  0.6491
18232TIP3    H176187   3.307   5.582   0.178  1.5564 -3.6646  0.8966
18232TIP3    H276188   3.388   5.695   0.120 -2.7609 -1.4859 -1.1601
18233TIP3   OH276189   1.561   6.509   1.950 -0.8857  0.5932  0.3921
18233TIP3    H176190   1.501   6.497   2.024  0.0893 -1.0960  0.9556
18233TIP3    H276191   1.645   6.475   1.983 -0.4695 -0.2648 -1.5207
18234TIP3   OH276192   0.664   5.979  16.100  0.3176  0.4250  0.2905
18234TIP3    H176193   0.580   6.007  16.137 -0.2464 -1.2420  0.3091
18234TIP3    H276194   0.641   5.917  16.031  1.3688  3.5823 -3.0295
18235TIP3   OH276195   2.817   4.344  11.314 -0.0123 -0.1236 -0.2743
18235TIP3    H176196   2.790   4.418  11.260 -1.3996 -0.7044 -0.3998
18235TIP3    H276197   2.753   4.276  11.295 -0.6172 -0.2920  2.2027
18236TIP3   OH276198   5.063   3.611  15.969  0.5461  0.0955  0.1501
18236TIP3    H176199   5.058   3.592  15.875  1.1805  2.8544 -0.4856
18236TIP3    H276200   5.010   3.690  15.980  0.8828  0.0684  2.0359
18237TIP3   OH276201   4.529   4.620   0.860  0.2627  0.0981 -0.0388
18237TIP3    H176202   4.594   4.578   0.916  0.4034  0.2682 -0.0717
18237TIP3    H276203   4.461   4.554   0.848 -0.6324  0.6695  1.7698
18238TIP3   OH276204   6.366   6.729   3.327  0.2069 -0.3661  0.2854
18238TIP3    H176205   6.348   6.661   3.393  0.8906 -0.3406  0.4970
18238TIP3    H276206   6.459   6.719   3.308  0.0109 -0.3618 -0.6710
18239TIP3   OH276207   0.703   3.136  16.779  0.2138 -0.2412  0.4248
18239TIP3    H176208   0.790   3.097  16.781  0.3068 -0.0823 -0.2467
18239TIP3    H276209   0.718   3.229  16.763 -0.1052 -0.3642 -0.6665
18240TIP3   OH276210   3.957   0.707  11.985  0.0155 -0.4705  0.0741
18240TIP3    H176211   3.980   0.800  11.974 -2.1627  0.0044 -0.7921
18240TIP3    H276212   3.937   0.698  12.078 -1.5026  0.3871 -0.1455
18241TIP3   OH276213   4.366   0.239  14.962 -0.4014 -0.0012 -0.0879
18241TIP3    H176214   4.391   0.223  14.871  1.8786 -0.8147  0.6332
18241TIP3    H276215   4.405   0.324  14.983 -1.7135  0.6174 -0.1412
18242TIP3   OH276216   2.701   3.364   5.440 -0.0644 -0.2438 -0.6040
18242TIP3    H176217   2.728   3.331   5.526  1.8545  1.5483 -0.4908
18242TIP3    H276218   2.642   3.437   5.460  1.2573  0.8861 -0.7826
18243TIP3   OH276219   3.876   4.535   1.825 -0.2715  0.3044  0.5867
18243TIP3    H176220   3.898   4.471   1.757  0.6147 -1.4927  2.5392
18243TIP3    H276221   3.785   4.517   1.847 -0.3891  0.5142  0.2682
18244TIP3   OH276222   3.660   1.709  14.208 -0.6951  0.2728 -0.0288
18244TIP3    H176223   3.638   1.633  14.155 -1.1702  0.6487 -0.3840
18244TIP3    H276224   3.585   1.719  14.267 -1.1101  1.0741 -0.6842
18245TIP3   OH276225   1.268   4.517  12.678 -0.5508  0.6694 -0.0081
18245TIP3    H176226   1.240   4.514  12.769 -1.7278 -0.2989 -0.4013
18245TIP3    H276227   1.360   4.544  12.683 -0.9938  2.0558  1.3791
18246TIP3   OH276228   2.191   5.288  11.744 -0.2728  1.0089  0.1519
18246TIP3    H176229   2.167   5.198  11.721 -0.4845  0.7681  1.2938
18246TIP3    H276230   2.159   5.341  11.670  0.7953  0.0370 -1.0186
18247TIP3   OH276231   0.340   5.439  14.384 -0.4566 -0.4400  1.0056
18247TIP3    H176232   0.341   5.437  14.479 -2.0397 -2.3924  1.0170
18247TIP3    H276233   0.249   5.461  14.362 -0.3627 -1.0569 -0.0344
18248TIP3   OH276234   4.501   1.912   5.263  0.0414  0.3443  0.4183
18248TIP3    H176235   4.584   1.931   5.219  0.3170 -0.9898  0.3251
18248TIP3    H276236   4.525   1.850   5.332 -0.8482  0.1358  0.5419
18249TIP3   OH276237   3.708   3.171   1.223 -0.3040 -0.5366  0.1716
18249TIP3    H176238   3.798   3.164   1.191 -0.5124 -2.1006 -0.1209
18249TIP3    H276239   3.711   3.128   1.309 -0.7330 -0.4245  0.2397
18250TIP3   OH276240   4.540   2.457  15.565  0.1929  0.0025 -0.2640
18250TIP3    H176241   4.611   2.394  15.572  0.2440  0.3373  3.0468
18250TIP3    H276242   4.531   2.493  15.653 -3.0263  1.1337 -0.9762
18251TIP3   OH276243   2.163   4.358   0.175 -0.3124  0.1743  0.1779
18251TIP3    H176244   2.244   4.324   0.138  0.9148  2.1693  0.9352
18251TIP3    H276245   2.147   4.303   0.252  0.3157 -0.2291  0.0201
18252TIP3   OH276246   2.055   2.561  16.217 -0.1817 -0.1108  0.2154
18252TIP3    H176247   2.055   2.523  16.130 -0.7419 -0.9707  0.5788
18252TIP3    H276248   2.140   2.605  16.225 -0.3087  0.3371 -0.9093
18253TIP3   OH276249   5.276   5.190   0.804 -0.2289 -0.1320  0.4244
18253TIP3    H176250   5.231   5.108   0.823  0.5187 -0.0965  2.5227
18253TIP3    H276251   5.315   5.216   0.888  0.0850  2.0350 -0.3580
18254TIP3   OH276252   5.130   1.688  14.524  0.2907  0.5291  0.1172
18254TIP3    H176253   5.149   1.633  14.448 -1.5505  0.9489 -0.6776
18254TIP3    H276254   5.065   1.639  14.574 -0.1940  1.2699  0.2238
18255TIP3   OH276255   0.626   2.437  13.866  0.0332  0.6340 -0.0296
18255TIP3    H176256   0.622   2.496  13.941  3.0520  0.7084  0.1319
18255TIP3    H276257   0.590   2.354  13.898 -1.2512  1.4482  0.6736
18256TIP3   OH276258   4.356   1.374  13.987 -0.1699  0.2493  0.1739
18256TIP3    H176259   4.408   1.360  14.066 -1.3679 -1.2283  0.7111
18256TIP3    H276260   4.421   1.395  13.920  1.0358 -0.5158  1.0754
18257TIP3   OH276261   0.237   2.420   4.213 -0.7085 -0.0942 -0.3575
18257TIP3    H176262   0.183   2.466   4.277 -1.6276  0.7891 -1.7449
18257TIP3    H276263   0.179   2.407   4.138 -0.0525 -2.3119 -0.5152
18258TIP3   OH276264   2.170   5.627   1.166 -0.5368  0.2276 -0.2964
18258TIP3    H176265   2.172   5.723   1.169 -0.3484  0.1798  1.1321
18258TIP3    H276266   2.213   5.605   1.083  1.8167  1.2997  0.6008
18259TIP3   OH276267   0.436   2.188   1.949  0.0593  0.0212  0.1914
18259TIP3    H176268   0.464   2.279   1.944  0.7589 -0.1821  0.3061
18259TIP3    H276269   0.358   2.190   2.003  0.7599  0.4067  1.2086
18260TIP3   OH276270   5.071   5.847   1.514 -0.2086  0.2810  0.3661
18260TIP3    H176271   5.084   5.914   1.580 -0.2563 -0.2615  0.9287
18260TIP3    H276272   4.980   5.858   1.486 -0.0735  0.7599  0.1019
18261TIP3   OH276273   2.936   3.577   3.510  0.0122  0.1444 -0.3896
18261TIP3    H176274   2.929   3.616   3.597 -2.7066  0.0512 -0.5167
18261TIP3    H276275   3.013   3.618   3.471 -0.0105  1.8124  1.2519
18262TIP3   OH276276   1.874   5.470   1.112  0.3879  0.1536  0.3158
18262TIP3    H176277   1.806   5.538   1.114  0.1235 -0.0834 -0.2934
18262TIP3    H276278   1.922   5.482   1.193 -0.3738  0.3384  0.7490
18263TIP3   OH276279   0.319   2.420  16.445  0.0228 -0.0708 -0.2285
18263TIP3    H176280   0.270   2.430  16.527 -0.6376  2.6164 -0.8869
18263TIP3    H276281   0.324   2.326  16.431 -2.9627 -0.4821  1.0646
18264TIP3   OH276282   5.989   5.879  12.944 -0.7037  0.3439  0.2347
18264TIP3    H176283   6.038   5.961  12.936 -2.9304  1.8805  1.7704
18264TIP3    H276284   5.953   5.864  12.856  0.1929  0.6714 -0.2004
18265TIP3   OH276285   6.204   3.584   4.286  0.2268 -0.8193  0.1933
18265TIP3    H176286   6.290   3.553   4.258  1.4233  0.0159  2.7799
18265TIP3    H276287   6.146   3.510   4.270  1.9218 -2.3325  0.8173
18266TIP3   OH276288   4.786   4.151   0.007 -0.0090  0.2677  0.2506
18266TIP3    H176289   4.746   4.064  -0.002 -1.0713  0.8742 -1.1742
18266TIP3    H276290   4.747   4.202  -0.065  1.0660  1.7402  0.7029
18267TIP3   OH276291   4.536   2.378  16.940 -0.1862 -0.3002 -0.4743
18267TIP3    H176292   4.493   2.390  16.855  0.0360 -1.4280 -0.7586
18267TIP3    H276293   4.484   2.311  16.984 -0.3649  0.3661  0.3360
18268TIP3   OH276294   6.635   2.277  12.570 -0.5962  0.0595  0.0197
18268TIP3    H176295   6.632   2.202  12.628 -1.0515  0.1714  0.1451
18268TIP3    H276296   6.662   2.350  12.625 -1.0992  0.1800  0.1087
18269TIP3   OH276297   3.125   4.088   1.934 -0.1748  0.1627  0.1709
18269TIP3    H176298   3.164   4.047   2.011 -0.2327  0.8455  0.5658
18269TIP3    H276299   3.062   4.151   1.969  0.7450  1.4198 -0.3942
18270TIP3   OH276300   5.922   5.528  12.616  0.2064 -0.0820  0.2477
18270TIP3    H176301   5.947   5.512  12.707  1.1538 -0.1620 -0.0227
18270TIP3    H276302   5.943   5.446  12.572  1.2763  0.5001 -0.3546
18271TIP3   OH276303   4.750   3.306  16.579 -0.1036 -0.0303 -0.1200
18271TIP3    H176304   4.770   3.220  16.616 -0.5111  0.5323  1.4452
18271TIP3    H276305   4.808   3.366  16.626 -2.1191  0.9833  1.1410
18272TIP3   OH276306   3.400   0.150  13.203 -0.1063 -0.2015  0.0530
18272TIP3    H176307   3.436   0.083  13.261 -1.1557 -0.0360  0.9331
18272TIP3    H276308   3.342   0.103  13.144 -1.1959 -0.0248  0.9676
18273TIP3   OH276309   4.771   1.115   2.098 -0.3020  0.7020  0.5151
18273TIP3    H176310   4.680   1.143   2.092 -1.0529 -1.5179  1.3210
18273TIP3    H276311   4.768   1.032   2.146  2.0069 -0.0564 -0.5836
18274TIP3   OH276312   4.433   1.571  12.803 -0.6017 -0.1473 -0.0628
18274TIP3    H176313   4.482   1.545  12.881  2.6816  0.2596 -1.9143
18274TIP3    H276314   4.491   1.551  12.730 -1.9366  3.2877 -2.1799
18275TIP3   OH276315   3.989   1.686   1.677  0.4318  0.1935 -0.6799
18275TIP3    H176316   4.020   1.617   1.619  0.8939  1.2328 -1.6735
18275TIP3    H276317   3.964   1.640   1.758  1.4006 -1.0348 -1.0759
18276TIP3   OH276318   3.279   3.397  16.887  0.3842  0.3798  0.5453
18276TIP3    H176319   3.338   3.456  16.932  0.9780 -0.2485  0.5926
18276TIP3    H276320   3.247   3.338  16.955  1.1163 -0.4313  0.1945
18277TIP3   OH276321   5.571   4.099  10.416  0.0778 -0.1617 -0.3630
18277TIP3    H176322   5.528   4.106  10.501  1.2299 -1.1053  0.3208
18277TIP3    H276323   5.580   4.190  10.386 -0.2698  0.1797  0.5488
18278TIP3   OH276324   1.776   1.260   4.373  0.4578 -0.0119  0.0728
18278TIP3    H176325   1.701   1.217   4.414 -0.2101  0.9655 -0.1185
18278TIP3    H276326   1.742   1.342   4.339  1.1760 -0.4361 -1.7418
18279TIP3   OH276327   1.536   2.817  12.215  0.2177  0.5729  0.5826
18279TIP3    H176328   1.571   2.884  12.156 -0.0993 -0.4570 -0.8033
18279TIP3    H276329   1.441   2.826  12.207  0.1735  0.3140  0.8182
18280TIP3   OH276330   3.891   0.506  14.526 -0.1568  0.2024 -0.3831
18280TIP3    H176331   3.818   0.492  14.466 -0.3930  0.4535 -0.1546
18280TIP3    H276332   3.894   0.426  14.580  0.0099  0.0082 -0.6762
18281TIP3   OH276333   2.472   4.486   1.171  0.1284  0.0942  0.3321
18281TIP3    H176334   2.507   4.497   1.259  2.0579 -1.7527 -0.1722
18281TIP3    H276335   2.531   4.423   1.129 -2.6243 -1.5312 -1.2259
18282TIP3   OH276336   2.715   6.066   4.694 -0.3827  0.4586 -0.0369
18282TIP3    H176337   2.712   5.973   4.717  0.3565  0.3812 -0.2114
18282TIP3    H276338   2.808   6.089   4.704 -0.3268  0.8305 -1.2812
18283TIP3   OH276339   2.735   1.599  13.912 -0.0498  0.5495 -0.1353
18283TIP3    H176340   2.748   1.676  13.967 -0.7304 -0.1415  1.0265
18283TIP3    H276341   2.695   1.535  13.971  1.9928 -1.2459 -0.6644
18284TIP3   OH276342   4.147   5.175   4.662  1.1248 -0.2716 -0.4429
18284TIP3    H176343   4.124   5.267   4.645 -0.5350 -0.3972  1.0859
18284TIP3    H276344   4.242   5.177   4.674  0.7561  1.7954  2.7926
18285TIP3   OH276345   1.755   0.931  13.730 -0.1388 -0.2377  0.4542
18285TIP3    H176346   1.787   0.991  13.797  1.4142 -2.9859  2.2638
18285TIP3    H276347   1.691   0.875  13.775 -0.0419 -1.2795 -0.6624
18286TIP3   OH276348   0.281   6.708  13.289 -0.2291  0.1062  0.0391
18286TIP3    H176349   0.344   6.765  13.334 -0.0142  0.6734 -0.9493
18286TIP3    H276350   0.265   6.752  13.205 -1.3974 -0.4005 -0.0203
18287TIP3   OH276351   0.594   4.494   2.604 -0.0438 -0.8008 -0.5273
18287TIP3    H176352   0.565   4.560   2.666 -0.2048  0.1155 -1.5534
18287TIP3    H276353   0.689   4.488   2.616 -0.1803 -1.2199  0.3585
18288TIP3   OH276354   6.436   2.050  14.332  0.0227 -0.7540 -0.2189
18288TIP3    H176355   6.501   2.024  14.266  0.7867 -0.2905  0.3363
18288TIP3    H276356   6.411   2.139  14.306  0.9359 -0.2529  0.5643
18289TIP3   OH276357   5.138   0.760  16.015  0.2722 -0.0732  0.4518
18289TIP3    H176358   5.048   0.746  16.044 -0.0185  0.0334 -0.3790
18289TIP3    H276359   5.143   0.716  15.930  1.5921 -1.8712  1.4190
18290TIP3   OH276360   3.362   3.066  11.672  0.2783  0.3442 -0.1666
18290TIP3    H176361   3.408   3.139  11.714  1.9093 -1.3710  1.1653
18290TIP3    H276362   3.271   3.075  11.701  0.6444  1.3161  0.7494
18291TIP3   OH276363   3.457   5.484   4.722 -0.1531  0.0489 -0.1955
18291TIP3    H176364   3.547   5.455   4.735 -0.1963 -2.0461 -3.8377
18291TIP3    H276365   3.405   5.430   4.781  0.6504 -1.3661 -0.7585
18292TIP3   OH276366   3.920   4.733   6.065 -0.3533  0.0077  0.1492
18292TIP3    H176367   3.854   4.697   6.124  0.1134 -0.5097  0.3589
18292TIP3    H276368   3.980   4.660   6.049  0.6760  0.7241  0.6874
18293TIP3   OH276369   4.336   0.057  13.284 -0.1055  0.0341  0.5975
18293TIP3    H176370   4.310  -0.033  13.302 -0.8199  0.3250  1.0563
18293TIP3    H276371   4.390   0.052  13.205 -0.2301 -0.7769  0.5653
18294TIP3   OH276372   1.644   5.212  14.081  0.0182 -0.3859 -0.2011
18294TIP3    H176373   1.634   5.239  13.990 -0.5599 -0.1008 -0.0485
18294TIP3    H276374   1.598   5.279  14.132 -0.5144 -1.0788  0.2389
18295TIP3   OH276375   0.149   3.824  12.342  0.1222 -0.4277 -0.0267
18295TIP3    H176376   0.198   3.832  12.260 -1.9672 -0.5097 -1.3182
18295TIP3    H276377   0.183   3.745  12.383  0.6280 -0.8289 -1.2006
18296TIP3   OH276378   3.604   2.883   0.198 -0.1823 -0.3032  0.1059
18296TIP3    H176379   3.515   2.916   0.209  0.1330  0.0959  1.5868
18296TIP3    H276380   3.606   2.801   0.247  0.4431  0.0420  0.6800
18297TIP3   OH276381   6.798   3.101  11.168 -0.5967  0.3741  0.3602
18297TIP3    H176382   6.835   3.117  11.081  0.5327  0.6912  0.8858
18297TIP3    H276383   6.742   3.024  11.156  2.4563 -1.8896  0.0938
18298TIP3   OH276384   3.427   1.059   4.478 -0.0163 -0.5245  0.3123
18298TIP3    H176385   3.497   1.083   4.539 -0.3827 -1.5359  1.1474
18298TIP3    H276386   3.382   1.142   4.460  0.5299 -0.0959  0.8742
18299TIP3   OH276387   2.752   6.555   1.728 -0.3043  0.1005 -0.4644
18299TIP3    H176388   2.819   6.587   1.789  0.0397 -0.5654 -0.4830
18299TIP3    H276389   2.677   6.612   1.742  0.0306  0.4149  0.0581
18300TIP3   OH276390   3.715   2.473  15.050 -0.5080 -0.2909 -0.0630
18300TIP3    H176391   3.754   2.508  15.129  0.4654  0.1167 -0.7175
18300TIP3    H276392   3.764   2.513  14.978 -2.2099  0.3499 -0.9034
18301TIP3   OH276393   4.214   0.231  12.931 -0.7575  0.3066 -0.2187
18301TIP3    H176394   4.156   0.241  13.007 -1.0299  0.4499 -0.4474
18301TIP3    H276395   4.296   0.270  12.960 -0.5906 -0.4137  0.3121
18302TIP3   OH276396   3.037   0.205   5.337  0.3358  0.0203 -0.2824
18302TIP3    H176397   3.079   0.222   5.253  0.6388 -0.0906 -0.1531
18302TIP3    H276398   2.948   0.237   5.326 -0.1179 -1.5356 -1.1918
18303TIP3   OH276399   4.371   3.062   3.219  0.0762 -0.8125  0.0244
18303TIP3    H176400   4.281   3.093   3.210 -0.1680 -0.8400  2.0339
18303TIP3    H276401   4.363   2.975   3.257  0.9792 -0.0105  2.1273
18304TIP3   OH276402   2.045   6.555   2.823 -0.6058  0.4783  0.3622
18304TIP3    H176403   2.138   6.531   2.824 -0.4369  1.1142  1.0072
18304TIP3    H276404   1.998   6.473   2.811  0.0319  0.1082  0.4009
18305TIP3   OH276405   0.007   6.761   1.108  0.5190  0.4301 -0.7183
18305TIP3    H176406  -0.048   6.749   1.185 -0.3877  1.9393 -1.1202
18305TIP3    H276407   0.094   6.781   1.143  0.3710 -0.0009 -0.1004
18306TIP3   OH276408   1.064   5.301   1.570  0.2500 -0.1502  0.2515
18306TIP3    H176409   1.117   5.282   1.647  2.4682  0.2590 -1.1346
18306TIP3    H276410   0.975   5.314   1.604  1.5715  2.1260  2.9676
18307TIP3   OH276411   6.511   4.981   5.684 -0.2250 -0.7771 -0.4681
18307TIP3    H176412   6.512   5.007   5.592 -0.8884  1.1647  0.0539
18307TIP3    H276413   6.431   5.019   5.719 -0.4959 -2.3639  0.6893
18308TIP3   OH276414   2.366   4.238   1.632 -0.1434  0.5609  0.0111
18308TIP3    H176415   2.298   4.283   1.683 -0.8234 -0.4111 -0.0228
18308TIP3    H276416   2.333   4.149   1.621  0.7515  0.3108 -0.7402
18309TIP3   OH276417   2.487   6.302  14.450 -0.8896 -0.5145  0.0744
18309TIP3    H176418   2.414   6.347  14.409 -1.8716 -1.8867  0.2913
18309TIP3    H276419   2.530   6.255  14.378 -0.5104 -0.1089  0.0325
18310TIP3   OH276420   4.880   0.706   2.450  0.0655 -0.3704 -0.4307
18310TIP3    H176421   4.970   0.679   2.431 -0.4337 -0.7309 -2.4755
18310TIP3    H276422   4.876   0.711   2.545  1.5876 -2.6566 -0.1977
18311TIP3   OH276423   3.446   5.294  14.781 -0.4193  0.3386 -0.5799
18311TIP3    H176424   3.375   5.273  14.841 -0.4595  2.6526  0.2152
18311TIP3    H276425   3.449   5.219  14.720 -2.5587 -0.4469  0.2484
18312TIP3   OH276426   0.560   3.632  12.194 -0.8372  0.5875 -0.2859
18312TIP3    H176427   0.469   3.622  12.223 -0.2047 -0.8964  1.3098
18312TIP3    H276428   0.582   3.548  12.154  0.3795  0.2967  0.9569
18313TIP3   OH276429   2.595   2.394  14.944 -0.1563 -0.2272  0.1105
18313TIP3    H176430   2.604   2.489  14.950 -1.2205 -0.0835 -0.5444
18313TIP3    H276431   2.566   2.368  15.032 -0.6301  0.1475  0.0712
18314TIP3   OH276432   6.332   5.410   3.900  0.2224 -0.1346  0.4864
18314TIP3    H176433   6.339   5.384   3.808 -2.5862  0.4753  0.0604
18314TIP3    H276434   6.252   5.369   3.931  1.3167 -0.6126  2.7951
18315TIP3   OH276435   1.865   3.948   3.816  0.8033 -0.3098 -0.5809
18315TIP3    H176436   1.802   3.876   3.811 -0.3623  0.7547 -1.5347
18315TIP3    H276437   1.950   3.904   3.820  0.0129 -1.7728  1.1118
18316TIP3   OH276438   2.595   5.674   3.202  0.5820 -0.6575  0.0048
18316TIP3    H176439   2.689   5.689   3.201  0.7662 -1.7306  0.6579
18316TIP3    H276440   2.561   5.737   3.266  1.1301 -1.7716  1.4131
18317TIP3   OH276441   6.544   5.724   1.207  0.2634  0.0465  0.4505
18317TIP3    H176442   6.485   5.694   1.138  0.7031 -0.7311  0.4106
18317TIP3    H276443   6.630   5.691   1.182  0.8588  1.7973  0.1294
18318TIP3   OH276444   0.660   2.842   1.048  0.4354  0.1794  0.5580
18318TIP3    H176445   0.745   2.823   1.009  1.5113 -0.5377  3.1397
18318TIP3    H276446   0.674   2.921   1.100 -0.3968 -0.1100  1.2369
18319TIP3   OH276447   5.352   0.797   4.713 -0.5188  0.1530 -0.6303
18319TIP3    H176448   5.399   0.774   4.792 -0.1467  0.0236 -0.8881
18319TIP3    H276449   5.344   0.893   4.716  0.7149  0.2821 -1.1166
18320TIP3   OH276450   4.293   2.993   4.159 -0.2155 -0.1613  0.3498
18320TIP3    H176451   4.201   2.976   4.139 -0.0414 -0.2147 -0.4306
18320TIP3    H276452   4.313   3.075   4.115  1.3291 -2.4084 -3.4541
18321TIP3   OH276453   1.991   0.480  14.795 -0.6018  0.1781  0.1341
18321TIP3    H176454   1.964   0.561  14.751 -0.7788 -0.5512 -1.1276
18321TIP3    H276455   2.025   0.509  14.880 -1.2548  1.5112 -0.0491
18322TIP3   OH276456   6.820   5.456   2.254 -0.4020 -0.5907 -0.2979
18322TIP3    H176457   6.758   5.391   2.287 -0.2152  0.0262  1.3131
18322TIP3    H276458   6.862   5.491   2.332 -0.9542  1.9106 -1.0854
18323TIP3   OH276459   1.173   4.106   3.141  0.1017  0.5351  0.8376
18323TIP3    H176460   1.080   4.126   3.152  0.0642  1.3267 -0.7601
18323TIP3    H276461   1.195   4.142   3.055  1.0548 -2.6795 -0.3352
18324TIP3   OH276462   1.717   3.179  11.847  0.4816  0.6889 -0.4254
18324TIP3    H176463   1.806   3.212  11.854  0.1248  1.3911  1.1231
18324TIP3    H276464   1.664   3.257  11.830 -0.0476  0.5483  0.5389
18325TIP3   OH276465   3.555   0.504  11.922 -0.2529  0.6989 -0.2522
18325TIP3    H176466   3.618   0.526  11.853 -1.1337  0.7986 -1.0275
18325TIP3    H276467   3.608   0.497  12.001  0.5793  1.9493 -0.6841
18326TIP3   OH276468   3.418   5.508  10.796 -0.0536  0.0846 -0.5378
18326TIP3    H176469   3.484   5.443  10.771  1.6190  0.4199  2.7127
18326TIP3    H276470   3.350   5.457  10.840 -0.1473  0.1740 -0.5822
18327TIP3   OH276471   3.961   5.513  11.978  0.1273 -0.5907 -0.2199
18327TIP3    H176472   4.008   5.550  11.904  0.3241 -2.0713 -0.8411
18327TIP3    H276473   3.984   5.570  12.052  1.7278 -0.4509 -0.8166
18328TIP3   OH276474   3.358   6.729  11.482 -0.3752 -0.4359 -0.5427
18328TIP3    H176475   3.332   6.684  11.402 -0.9942  0.1756 -0.6884
18328TIP3    H276476   3.306   6.809  11.483  1.2307  0.6232 -0.6364
18329TIP3   OH276477   2.757   3.749  14.019  0.2486  0.1816  0.0682
18329TIP3    H176478   2.728   3.770  13.931 -0.0990 -2.7471 -0.5739
18329TIP3    H276479   2.677   3.730  14.067  0.5645 -0.3375  0.4007
18330TIP3   OH276480   0.380   3.436   4.247 -0.2454 -0.1020 -0.4265
18330TIP3    H176481   0.449   3.437   4.181  2.0113  0.7546  1.8881
18330TIP3    H276482   0.322   3.364   4.220  1.7784 -1.1203 -2.1529
18331TIP3   OH276483   5.951   0.791   5.748 -0.2651  0.0843  0.1553
18331TIP3    H176484   5.978   0.853   5.815  0.3289 -0.2755  0.2479
18331TIP3    H276485   6.031   0.747   5.720 -0.9263 -2.2168  1.6782
18332TIP3   OH276486   0.516   0.505   3.976  0.5199  0.4694  0.3313
18332TIP3    H176487   0.576   0.448   3.928 -0.1629 -0.1982  0.2580
18332TIP3    H276488   0.572   0.554   4.036  1.2050  0.2642 -0.1382
18333TIP3   OH276489   3.105   2.668  15.296 -0.1789 -0.2549 -0.2540
18333TIP3    H176490   3.025   2.713  15.324 -0.4509 -2.4217  2.7276
18333TIP3    H276491   3.174   2.705  15.351 -0.0091 -1.7149  0.5588
18334TIP3   OH276492   2.665   1.315   3.267  0.2610 -0.1091  0.1648
18334TIP3    H176493   2.750   1.282   3.294  1.0559  1.2005 -0.6516
18334TIP3    H276494   2.626   1.244   3.216  0.5204 -1.0086  1.2085
18335TIP3   OH276495   2.824   5.226   6.017  0.2795  0.1104 -0.2974
18335TIP3    H176496   2.788   5.257   6.100  0.5345  2.6701 -1.0935
18335TIP3    H276497   2.749   5.222   5.958  0.6149  1.6355 -0.8630
18336TIP3   OH276498   1.516   0.600  11.309 -0.3711 -0.2603 -0.4342
18336TIP3    H176499   1.428   0.604  11.348 -0.2718 -0.7226 -0.1607
18336TIP3    H276500   1.501   0.605  11.215 -0.6920 -0.3892 -0.3904
18337TIP3   OH276501   1.726   6.570  16.253  0.3672 -0.3582 -0.0577
18337TIP3    H176502   1.654   6.525  16.296 -0.9416  1.4412 -0.3063
18337TIP3    H276503   1.698   6.662  16.248  1.2829 -0.1584 -2.9888
18338TIP3   OH276504   1.071   0.812   4.104  0.6013 -0.0701  0.1982
18338TIP3    H176505   0.991   0.863   4.119  0.2902 -0.4264 -0.2469
18338TIP3    H276506   1.139   0.877   4.089  0.4450  0.2415  0.8139
18339TIP3   OH276507   6.656   3.483   4.600 -0.0848 -0.4009 -1.2179
18339TIP3    H176508   6.575   3.453   4.642 -0.4623  0.4332 -1.3529
18339TIP3    H276509   6.725   3.456   4.661 -0.6123  0.5928 -0.1471
18340TIP3   OH276510   3.489   6.664  16.371 -0.2309 -0.2263 -0.0497
18340TIP3    H176511   3.545   6.707  16.306  0.5859 -0.5693  0.4239
18340TIP3    H276512   3.479   6.730  16.440 -1.7444  0.4259 -0.8833
18341TIP3   OH276513   3.925   5.895  13.665 -0.2265 -0.4097 -0.2014
18341TIP3    H176514   3.981   5.971  13.687  1.0281 -1.3281 -0.1632
18341TIP3    H276515   3.984   5.820  13.671 -2.1680 -1.8071  2.9535
18342TIP3   OH276516   2.266   6.766   1.600  0.6001  0.0934  0.5331
18342TIP3    H176517   2.259   6.698   1.533  0.2719 -0.6678  1.3250
18342TIP3    H276518   2.269   6.848   1.551 -2.6912 -0.2339 -0.3124
18343TIP3   OH276519   3.179   2.051  13.110 -0.3562 -0.3132  0.6955
18343TIP3    H176520   3.245   2.068  13.044  0.4262  2.7985  2.1436
18343TIP3    H276521   3.198   1.963  13.142  1.3151 -0.5448 -0.8500
18344TIP3   OH276522   3.481   2.690   3.539 -0.3258  0.4437 -0.4609
18344TIP3    H176523   3.552   2.691   3.604 -0.6065  1.4948 -0.1648
18344TIP3    H276524   3.415   2.750   3.575 -0.8797  0.3230 -1.2787
18345TIP3   OH276525   5.133   4.321   3.050 -0.0678 -0.2815 -0.2826
18345TIP3    H176526   5.225   4.347   3.042  0.0693 -1.1537 -1.8456
18345TIP3    H276527   5.085   4.387   3.002 -0.3737  0.7026  1.3350
18346TIP3   OH276528   6.525   2.494   0.572 -0.6609  0.0224 -0.4667
18346TIP3    H176529   6.448   2.513   0.518 -1.5156 -1.4062  0.2160
18346TIP3    H276530   6.506   2.536   0.656 -0.5030  0.0217 -0.4302
18347TIP3   OH276531   0.287   0.632  12.620 -0.1223 -0.3640 -0.3030
18347TIP3    H176532   0.359   0.603  12.675  1.3003  0.1179 -1.8849
18347TIP3    H276533   0.279   0.563  12.553 -0.8382 -0.1971 -0.3906
18348TIP3   OH276534   4.770   0.281   3.146  0.0401  0.8228  0.2957
18348TIP3    H176535   4.682   0.292   3.110  0.2020  0.8244 -0.1142
18348TIP3    H276536   4.828   0.311   3.075  0.4018 -0.1615  0.1628
18349TIP3   OH276537   1.274   1.700   3.198 -0.2790  0.2699 -0.0350
18349TIP3    H176538   1.303   1.765   3.261  1.5963 -1.4454  0.9524
18349TIP3    H276539   1.214   1.644   3.247 -1.6513  1.0511 -0.7960
18350TIP3   OH276540   6.175   0.394   5.577 -0.4362  0.0942  0.0090
18350TIP3    H176541   6.186   0.312   5.625 -0.8962  0.4713  0.7625
18350TIP3    H276542   6.118   0.372   5.504 -1.4144 -0.0302  0.8053
18351TIP3   OH276543   4.608   3.950   3.192 -0.1547  0.4461  0.0776
18351TIP3    H176544   4.658   3.893   3.134 -0.8828 -1.2614  1.0919
18351TIP3    H276545   4.574   3.891   3.260 -0.5565  2.1526  1.3917
18352TIP3   OH276546   1.397   1.577   0.904  0.4144 -0.3385 -0.1124
18352TIP3    H176547   1.442   1.594   0.821  0.2687  0.5936 -0.0084
18352TIP3    H276548   1.338   1.504   0.885  0.6507 -0.3739 -0.7310
18353TIP3   OH276549   1.679   1.539  12.125 -0.5191  0.2424  0.6577
18353TIP3    H176550   1.747   1.589  12.079  0.8496 -0.9710  1.3401
18353TIP3    H276551   1.650   1.474  12.062  0.1868 -0.3524  0.9384
18354TIP3   OH276552   0.867   3.098   1.895 -0.1984  0.1402 -0.4154
18354TIP3    H176553   0.795   3.060   1.844 -1.0189 -0.6737  1.3037
18354TIP3    H276554   0.946   3.056   1.860 -0.5551  0.8097 -2.1049
18355TIP3   OH276555   2.273   6.320  13.818 -0.1728  0.1538 -0.5486
18355TIP3    H176556   2.327   6.372  13.878  1.7675 -0.8411 -1.3721
18355TIP3    H276557   2.260   6.376  13.742  1.5350 -0.3861 -1.2482
18356TIP3   OH276558   1.844   5.640  12.191 -0.3106  0.0549 -0.4522
18356TIP3    H176559   1.937   5.619  12.183 -0.3952 -0.6179  0.2722
18356TIP3    H276560   1.800   5.555  12.185 -0.8984  0.4025 -1.0774
18357TIP3   OH276561   2.171   5.946   4.773 -0.2571  0.0324  0.3447
18357TIP3    H176562   2.237   5.902   4.720 -0.3889 -0.3141  0.4675
18357TIP3    H276563   2.193   6.039   4.767 -0.2852 -0.0048 -0.3273
18358TIP3   OH276564   5.614   2.063  10.978 -0.1700 -0.0645  0.1700
18358TIP3    H176565   5.656   2.076  11.063  0.1321  1.1719 -0.1592
18358TIP3    H276566   5.597   1.969  10.974  2.3511 -0.5555  0.4142
18359TIP3   OH276567   2.096   2.161  14.643 -0.2479 -0.3604 -0.2090
18359TIP3    H176568   2.117   2.236  14.699 -1.0093 -1.0752  1.0646
18359TIP3    H276569   2.077   2.199  14.557  0.7897  0.7642  0.0491
18360TIP3   OH276570   4.979   6.518  12.558 -0.5379  0.0999 -0.1834
18360TIP3    H176571   4.924   6.464  12.615  2.1635 -1.7421  0.8063
18360TIP3    H276572   4.982   6.470  12.475  0.2682 -0.2959  0.0638
18361TIP3   OH276573   1.125   0.164  14.261  0.4369 -0.0105 -0.2305
18361TIP3    H176574   1.191   0.105  14.299  0.5580  1.2534  1.6004
18361TIP3    H276575   1.092   0.117  14.185  0.0970 -2.7232  1.5062
18362TIP3   OH276576   5.414   2.627  13.248 -0.0261 -0.1023  0.5008
18362TIP3    H176577   5.461   2.547  13.273 -0.9571 -0.4019  1.3311
18362TIP3    H276578   5.462   2.698  13.290  1.7181 -0.0554 -1.4945
18363TIP3   OH276579   6.499   3.352   0.134  0.1868 -0.3631 -0.2481
18363TIP3    H176580   6.451   3.281   0.090 -1.1958 -1.8844  3.4721
18363TIP3    H276581   6.431   3.410   0.166  1.2631  1.7827 -1.7114
18364TIP3   OH276582   3.459   1.785   5.334 -0.0885  0.3882 -0.4077
18364TIP3    H176583   3.446   1.691   5.338  0.6320  0.2647 -0.9631
18364TIP3    H276584   3.497   1.807   5.419  1.0775 -0.0347 -0.8135
18365TIP3   OH276585   5.529   1.697   3.152 -0.2737  0.0717 -0.3987
18365TIP3    H176586   5.453   1.640   3.162  0.0698 -0.6562 -1.7793
18365TIP3    H276587   5.527   1.723   3.060  1.0342  0.2179 -0.3971
18366TIP3   OH276588   2.759   3.893   5.975  0.0674  0.0562 -0.3453
18366TIP3    H176589   2.786   3.950   5.903  0.2100 -0.7575 -0.9321
18366TIP3    H276590   2.822   3.821   5.974  0.9946  0.8258  1.5556
18367TIP3   OH276591   6.503   5.363  11.906 -0.2570  0.0007  0.3697
18367TIP3    H176592   6.445   5.380  11.832 -1.6626 -0.6930  1.2712
18367TIP3    H276593   6.557   5.289  11.878  0.2547  0.7103 -0.5152
18368TIP3   OH276594   4.854   6.612  11.251  0.4187 -0.3497 -0.5139
18368TIP3    H176595   4.943   6.581  11.237  0.0033 -1.1639 -1.4365
18368TIP3    H276596   4.811   6.598  11.167 -0.0919  1.7060 -0.6149
18369TIP3   OH276597   4.415   5.252   4.152  0.2788 -0.1238  0.2001
18369TIP3    H176598   4.428   5.292   4.237 -0.4974 -0.6139  0.5558
18369TIP3    H276599   4.493   5.199   4.137  0.8328  0.6876  0.1905
18370TIP3   OH276600   6.083   4.992   4.058  0.0894  0.2445 -0.9740
18370TIP3    H176601   6.030   4.918   4.088  0.0381  0.0239 -1.5974
18370TIP3    H276602   6.173   4.968   4.081  0.2276 -0.6084 -2.3336
18371TIP3   OH276603   1.381   3.224  11.576 -0.0026 -0.0593  0.4521
18371TIP3    H176604   1.389   3.129  11.568  0.2832 -0.0233  0.2742
18371TIP3    H276605   1.366   3.239  11.670 -1.6046 -0.3725  0.2575
18372TIP3   OH276606   6.105   5.434  14.056  0.3499  0.3659 -0.1538
18372TIP3    H176607   6.187   5.471  14.089 -0.4047  2.6273 -0.7473
18372TIP3    H276608   6.058   5.508  14.019 -1.3378 -1.1598 -1.1557
18373TIP3   OH276609   1.531   3.233  14.042  0.2534 -0.2242 -0.1519
18373TIP3    H176610   1.517   3.253  13.950 -0.8555  1.6952  0.3975
18373TIP3    H276611   1.453   3.184  14.068  0.0604  0.1711  0.0213
18374TIP3   OH276612   1.393   3.628   0.348  0.4179 -0.3415 -0.1446
18374TIP3    H176613   1.381   3.689   0.275  2.6509  0.7181  0.3151
18374TIP3    H276614   1.355   3.673   0.423  0.8207 -0.0894 -0.0850
18375TIP3   OH276615   1.267   6.812   4.664 -0.2795 -0.0686  0.0156
18375TIP3    H176616   1.319   6.883   4.627  0.6116  0.0906  1.5506
18375TIP3    H276617   1.176   6.838   4.648  0.0542 -0.9701 -3.8571
18376TIP3   OH276618   0.699   0.771  13.608 -0.0293  0.3171  0.5499
18376TIP3    H176619   0.741   0.700  13.559 -0.8012  1.1096 -1.3213
18376TIP3    H276620   0.609   0.773  13.575 -0.6401  0.7313  2.1914
18377TIP3   OH276621   3.131   1.408  14.490  0.0818 -0.1243  0.7471
18377TIP3    H176622   3.209   1.465  14.490  1.1046 -1.4877 -0.5277
18377TIP3    H276623   3.159   1.331  14.540 -0.2501 -0.8898 -0.2458
18378TIP3   OH276624   2.882   0.637  14.234  0.1250  0.4022  0.3690
18378TIP3    H176625   2.952   0.691  14.272 -0.1072  0.8937  0.1027
18378TIP3    H276626   2.817   0.700  14.204  0.4341  0.0499 -1.1090
18379TIP3   OH276627   2.692   6.765   1.503 -0.0889 -0.2612 -0.1062
18379TIP3    H176628   2.787   6.761   1.513 -0.1347  0.2267  0.5861
18379TIP3    H276629   2.676   6.855   1.473 -0.2928 -0.4891 -0.6810
18380TIP3   OH276630   2.364   6.061   1.526 -0.1271  0.0219 -0.2015
18380TIP3    H176631   2.300   6.132   1.528 -0.4466 -0.2133 -1.5793
18380TIP3    H276632   2.340   6.004   1.599 -0.1909  1.0378  0.5875
18381TIP3   OH276633   1.857   6.315  14.522  0.2482  0.1423  0.6237
18381TIP3    H176634   1.789   6.376  14.494  1.2088 -0.0998 -2.4350
18381TIP3    H276635   1.924   6.370  14.562 -0.0931  0.7851  0.3044
18382TIP3   OH276636   0.400   2.172  16.339 -0.1796 -0.1659  0.2079
18382TIP3    H176637   0.492   2.173  16.315 -0.3115 -1.5458 -0.4066
18382TIP3    H276638   0.353   2.172  16.255 -0.6948 -1.3000  0.4791
18383TIP3   OH276639   0.569   1.346   6.259 -0.5302  0.3011 -0.0207
18383TIP3    H176640   0.571   1.441   6.268  0.3439  0.2670  0.1276
18383TIP3    H276641   0.496   1.329   6.199  1.0080  1.2133 -2.1779
18384TIP3   OH276642   0.679   5.748  13.633 -0.3023  0.3655 -0.3252
18384TIP3    H176643   0.640   5.816  13.687 -1.2710  0.6392 -1.3523
18384TIP3    H276644   0.767   5.735  13.669 -1.2754 -0.1395  1.8953
18385TIP3   OH276645   3.239   2.374   6.274 -0.1271  0.4428  0.0270
18385TIP3    H176646   3.286   2.425   6.340  0.9235 -0.4518 -0.0211
18385TIP3    H276647   3.307   2.322   6.231 -0.7897  1.0385 -1.7919
18386TIP3   OH276648   2.193   1.539  16.578  0.3278  0.1668  0.5255
18386TIP3    H176649   2.202   1.472  16.511  0.7445 -0.2035  0.9485
18386TIP3    H276650   2.267   1.598  16.563 -0.2445  0.7427 -0.0781
18387TIP3   OH276651   5.064   2.485  15.973  0.2389  0.0641 -0.0952
18387TIP3    H176652   5.135   2.474  16.037  1.3119  0.2410 -1.2292
18387TIP3    H276653   5.100   2.451  15.891 -1.6006 -1.4228 -0.3202
18388TIP3   OH276654   1.770   2.017   2.018 -0.1421  0.1905  0.2881
18388TIP3    H176655   1.847   2.053   2.062 -0.6315  0.5862  0.8282
18388TIP3    H276656   1.806   1.961   1.949  0.6311 -0.2027  1.0008
18389TIP3   OH276657   2.170   3.774  13.898 -0.3715  0.2559  0.1616
18389TIP3    H176658   2.102   3.712  13.926  0.0582  0.4237  1.5991
18389TIP3    H276659   2.236   3.720  13.856  0.3006 -0.3473  1.9730
18390TIP3   OH276660   1.102   3.216  14.955 -0.2302  0.0616 -0.4518
18390TIP3    H176661   1.114   3.209  15.050  0.3462 -2.1863 -0.6681
18390TIP3    H276662   1.028   3.158  14.936  0.4523 -0.4456 -1.5467
18391TIP3   OH276663   4.879   0.643   6.053  0.2052 -0.4032 -0.0309
18391TIP3    H176664   4.965   0.674   6.083 -0.0304  1.0285 -0.8069
18391TIP3    H276665   4.878   0.550   6.076  1.9450 -0.4240  0.0167
18392TIP3   OH276666   2.053   2.900   0.014  0.2238  0.3529  0.2866
18392TIP3    H176667   2.104   2.884   0.093  0.6377 -1.0141 -0.2579
18392TIP3    H276668   1.967   2.864   0.033  0.3954 -0.1966  0.0226
18393TIP3   OH276669   4.699   0.831   1.904  0.2334 -0.1386 -0.3991
18393TIP3    H176670   4.607   0.813   1.924  0.2475  0.5441  0.3125
18393TIP3    H276671   4.699   0.923   1.875  0.6287 -0.2715 -0.8218
18394TIP3   OH276672   3.604   0.712   3.923 -0.1778  0.3272  0.6836
18394TIP3    H176673   3.604   0.807   3.910 -0.5550  0.2397  0.0313
18394TIP3    H276674   3.597   0.676   3.835  2.1087 -0.3492  0.7410
18395TIP3   OH276675   6.394   2.995   2.531 -0.1570 -0.3420  0.2728
18395TIP3    H176676   6.448   3.069   2.558 -2.0811  0.9341  0.6457
18395TIP3    H276677   6.388   3.004   2.436 -0.5558  0.0860  0.3402
18396TIP3   OH276678   5.052   6.111   5.718 -0.4331  0.3298  0.1098
18396TIP3    H176679   5.065   6.114   5.623  0.2174  1.8491  0.2342
18396TIP3    H276680   4.988   6.041   5.731  1.5034 -1.7611 -1.2226
18397TIP3   OH276681   3.884   5.005  13.315  0.5316 -0.3174 -0.1185
18397TIP3    H176682   3.941   4.947  13.364  0.0537 -0.0945  0.7093
18397TIP3    H276683   3.859   5.073  13.378  2.8613  2.0572 -1.6518
18398TIP3   OH276684   3.678   6.136   0.830 -0.1740 -0.2611 -0.0446
18398TIP3    H176685   3.715   6.211   0.877 -0.1825  0.6420 -1.4453
18398TIP3    H276686   3.609   6.103   0.888 -0.2293  0.8841  0.5558
18399TIP3   OH276687   2.776   4.497   2.967 -0.2263  0.6701 -0.1572
18399TIP3    H176688   2.763   4.434   2.896 -0.2633 -0.0205  0.4599
18399TIP3    H276689   2.865   4.480   2.999 -0.3027  0.8006  0.1301
18400TIP3   OH276690   0.400   0.320   5.081  0.5592 -0.6482 -0.2461
18400TIP3    H176691   0.372   0.252   5.142 -0.6112 -1.6071 -1.8103
18400TIP3    H276692   0.325   0.378   5.072  0.3115 -1.1674 -1.6501
18401TIP3   OH276693   0.237   3.079  11.267  0.7335 -0.4129  0.3014
18401TIP3    H176694   0.146   3.094  11.243  0.8207 -0.8789 -0.3338
18401TIP3    H276695   0.239   3.092  11.362 -0.5021 -2.8220  0.7022
18402TIP3   OH276696   3.527   4.476  11.878 -0.3878  0.6818 -0.1350
18402TIP3    H176697   3.449   4.485  11.932 -0.3820  2.1323 -0.3457
18402TIP3    H276698   3.506   4.523  11.797  0.7450  1.2040 -0.1350
18403TIP3   OH276699   1.481   0.562   4.664  0.2654  0.3371  0.1810
18403TIP3    H176700   1.543   0.601   4.602 -0.4785 -0.3771 -1.0276
18403TIP3    H276701   1.530   0.490   4.704  0.7932  0.8873  0.5533
18404TIP3   OH276702   2.520   3.940  12.422 -0.2633  0.1170  0.3082
18404TIP3    H176703   2.571   3.904  12.349 -1.8673  0.4306 -0.9758
18404TIP3    H276704   2.574   4.012  12.455  0.6463 -0.2690 -0.3104
18405TIP3   OH276705   4.971   1.774   1.084  0.0341 -0.1003  0.3580
18405TIP3    H176706   4.940   1.834   1.153 -0.2464 -0.7025  0.7564
18405TIP3    H276707   4.999   1.832   1.013  0.5903  0.5382  1.0873
18406TIP3   OH276708   6.376   1.778  16.963 -0.2626 -0.0659 -0.2045
18406TIP3    H176709   6.394   1.760  16.871 -1.4647 -0.9110 -0.2962
18406TIP3    H276710   6.333   1.863  16.963 -0.8588 -0.3631 -0.5005
18407TIP3   OH276711   4.779   0.793  11.254  0.3963 -0.2005 -0.1102
18407TIP3    H176712   4.702   0.808  11.199  0.2171 -0.2340  0.1278
18407TIP3    H276713   4.854   0.808  11.196  0.2112 -0.1158 -0.3296
18408TIP3   OH276714   4.552   2.707  14.289 -0.0305  0.2121 -0.2115
18408TIP3    H176715   4.609   2.780  14.315 -1.1405  1.0409 -0.1008
18408TIP3    H276716   4.541   2.717  14.194 -0.1879  0.1891 -0.1956
18409TIP3   OH276717   6.318   3.357  16.999 -0.3938  0.8197  0.3908
18409TIP3    H176718   6.290   3.383  16.911  1.7745 -0.8453 -0.8658
18409TIP3    H276719   6.339   3.439  17.043  0.8124  1.5725 -1.4953
18410TIP3   OH276720   5.370   5.413   5.703  0.4141  0.5075  0.0608
18410TIP3    H176721   5.405   5.396   5.790  1.2032  2.6018  0.1852
18410TIP3    H276722   5.289   5.362   5.699  0.6531 -0.0389  1.8062
18411TIP3   OH276723   4.301   3.149   3.765  0.1195  0.4196  0.5183
18411TIP3    H176724   4.219   3.178   3.724  0.0103 -0.4556  0.1209
18411TIP3    H276725   4.368   3.205   3.726 -0.0738  0.0491 -0.3484
18412TIP3   OH276726   0.482   0.253   1.301 -0.0837 -0.0276  0.1927
18412TIP3    H176727   0.499   0.159   1.314  0.9114 -0.1572 -1.7856
18412TIP3    H276728   0.434   0.256   1.218  0.6148  1.2880 -0.1621
18413TIP3   OH276729   3.845   6.269  14.019 -0.0938  0.3014 -0.4284
18413TIP3    H176730   3.790   6.343  13.991 -0.3928  0.2595  0.0412
18413TIP3    H276731   3.877   6.231  13.937 -1.4423 -0.1820 -0.7347
18414TIP3   OH276732   3.227   4.758  13.800  0.1822 -0.0589  0.3413
18414TIP3    H176733   3.197   4.670  13.777 -0.8016  0.3342  0.0928
18414TIP3    H276734   3.167   4.788  13.868 -0.1783  0.8368 -0.3482
18415TIP3   OH276735   1.714   5.522   4.555  0.6713 -0.0862 -0.1344
18415TIP3    H176736   1.700   5.616   4.560 -2.5469 -0.4673 -0.5042
18415TIP3    H276737   1.697   5.490   4.643  0.3925 -0.4643 -0.3224
18416TIP3   OH276738   6.083   4.413   2.900 -0.2696 -0.0264  0.0595
18416TIP3    H176739   6.128   4.348   2.954  0.9241 -0.6186 -1.6266
18416TIP3    H276740   6.152   4.473   2.871 -1.2057  1.4242  0.7685
18417TIP3   OH276741   3.040   4.136   1.258  0.2119 -0.2367  0.6520
18417TIP3    H176742   3.094   4.212   1.233 -0.6589  0.0533 -0.3682
18417TIP3    H276743   2.965   4.140   1.199 -0.6255 -0.9967  1.6576
18418TIP3   OH276744   2.540   0.966   2.174 -0.0447 -0.2727 -0.0112
18418TIP3    H176745   2.623   0.920   2.190  0.8036  1.5786  1.2284
18418TIP3    H276746   2.506   0.984   2.262 -1.0036  0.2838 -0.4964
18419TIP3   OH276747   4.362   4.150  11.492 -0.5285  0.0501  0.2942
18419TIP3    H176748   4.379   4.098  11.413  2.1833  0.9000  0.2686
18419TIP3    H276749   4.362   4.241  11.461  1.0559  0.4241  1.3103
18420TIP3   OH276750   6.131   0.252   0.197 -0.4630 -0.1409  0.6468
18420TIP3    H176751   6.035   0.250   0.192 -0.4873 -0.4281  1.1823
18420TIP3    H276752   6.151   0.337   0.236 -0.5432 -0.4691  1.4083
18421TIP3   OH276753   0.542   2.143  13.129  0.1974 -0.4580 -0.5562
18421TIP3    H176754   0.548   2.097  13.213 -0.3856 -1.9227 -1.2962
18421TIP3    H276755   0.476   2.095  13.080 -0.7853  1.4775 -1.1874
18422TIP3   OH276756   5.636   3.912  11.109 -0.2528 -0.0611  0.4583
18422TIP3    H176757   5.650   3.957  11.026  1.9026 -0.6630  0.4822
18422TIP3    H276758   5.647   3.980  11.176 -2.2282  0.4765  0.2712
18423TIP3   OH276759   5.166   2.637  12.761 -0.3521 -0.2539 -0.0669
18423TIP3    H176760   5.180   2.646  12.855 -1.1274 -0.2941  0.0573
18423TIP3    H276761   5.215   2.558  12.737 -0.0001 -0.1401  0.2652
18424TIP3   OH276762   3.346   4.514  15.483 -0.4485  0.1424  0.0096
18424TIP3    H176763   3.369   4.422  15.492  1.4593  0.4185 -1.7010
18424TIP3    H276764   3.276   4.528  15.546 -0.0166 -2.2210  1.0376
18425TIP3   OH276765   3.001   1.486  12.488 -0.2761  0.4379 -0.1567
18425TIP3    H176766   3.037   1.401  12.462 -0.5451 -0.2891  1.7799
18425TIP3    H276767   2.935   1.506  12.421  0.1556 -0.6226 -0.9065
18426TIP3   OH276768   1.846   1.861  17.251  0.0313 -0.4257 -0.0697
18426TIP3    H176769   1.841   1.899  17.163  2.1048  0.6936  0.2671
18426TIP3    H276770   1.768   1.895  17.296  0.0778  0.7246 -0.8368
18427TIP3   OH276771   2.768   0.784   4.552 -0.6142  0.8560  0.3092
18427TIP3    H176772   2.766   0.715   4.486 -0.4119  0.7718  0.3931
18427TIP3    H276773   2.713   0.751   4.623  1.5383 -0.3402  1.4754
18428TIP3   OH276774   3.898   5.042   0.214  0.0172 -0.2615  0.1733
18428TIP3    H176775   3.858   5.000   0.138  3.3698  1.7346 -2.8455
18428TIP3    H276776   3.965   4.980   0.244 -0.2635 -0.3734  0.5831
18429TIP3   OH276777   1.816   6.549   6.170  0.5988 -0.7041  0.3334
18429TIP3    H176778   1.786   6.600   6.245  1.3161 -0.6162  0.5701
18429TIP3    H276779   1.765   6.582   6.096  0.7194  0.0272  0.5719
18430TIP3   OH276780   6.267   6.105   5.442 -0.0913  0.0324  0.7203
18430TIP3    H176781   6.256   6.039   5.373  0.0177  0.1707  0.5695
18430TIP3    H276782   6.356   6.137   5.429  0.1112 -0.3093  1.2460
18431TIP3   OH276783   6.542   6.447  14.575 -0.5358 -0.1566  0.7735
18431TIP3    H176784   6.508   6.359  14.563 -1.0846  0.1714 -0.2116
18431TIP3    H276785   6.509   6.495  14.499 -0.4425  0.9525  1.4289
18432TIP3   OH276786   0.416   3.510   4.687 -0.4352  0.9697  0.6089
18432TIP3    H176787   0.480   3.456   4.642 -0.9778 -0.0506  1.0476
18432TIP3    H276788   0.388   3.575   4.622  0.1890  0.6989  0.0710
18433TIP3   OH276789   6.404   4.359   0.426  0.2195 -0.3261 -0.2758
18433TIP3    H176790   6.419   4.269   0.453  2.7067 -0.9327 -3.3081
18433TIP3    H276791   6.313   4.360   0.395 -0.2800 -1.4151  1.1366
18434TIP3   OH276792   4.614   3.689   3.003 -0.4894  0.2187  0.1316
18434TIP3    H176793   4.536   3.650   3.042 -1.1234  0.1805 -1.1286
18434TIP3    H276794   4.606   3.669   2.909  2.4489 -2.2428  0.3187
18435TIP3   OH276795   1.143   4.690   0.270  0.1231  0.6597  0.3894
18435TIP3    H176796   1.169   4.600   0.251  1.1070  0.3021  3.2164
18435TIP3    H276797   1.054   4.697   0.235  0.8411 -0.7082 -1.8372
18436TIP3   OH276798   6.663   0.239   1.094 -0.0326 -0.1510 -0.3500
18436TIP3    H176799   6.689   0.147   1.094 -1.2044 -0.5003 -0.6071
18436TIP3    H276800   6.607   0.248   1.171  1.6424  0.8274  0.7753
18437TIP3   OH276801   4.018   6.727   4.892  0.3411 -0.1401  0.0916
18437TIP3    H176802   4.097   6.719   4.945  0.8728 -0.5576 -0.7499
18437TIP3    H276803   3.971   6.645   4.905  1.2741 -0.9218 -1.3448
18438TIP3   OH276804   1.841   2.095   3.996  0.0310  0.2672 -0.0642
18438TIP3    H176805   1.870   2.106   3.905 -0.1500  0.0924 -0.1436
18438TIP3    H276806   1.759   2.144   4.000  0.5869  1.1973  0.2958
18439TIP3   OH276807   0.027   5.314  13.477  0.1907  0.2591 -0.1343
18439TIP3    H176808   0.081   5.385  13.510  0.3793  0.9017 -1.7705
18439TIP3    H276809   0.045   5.240  13.535  0.4780  1.3620  1.1758
18440TIP3   OH276810   1.471   5.939  14.911  0.0162 -1.1399  0.2996
18440TIP3    H176811   1.535   5.885  14.958  1.0004 -0.6617 -0.4868
18440TIP3    H276812   1.521   5.984  14.844 -1.1662 -0.8132 -0.3860
18441TIP3   OH276813   6.603   0.193  11.731 -0.5472 -0.0331 -0.0758
18441TIP3    H176814   6.578   0.122  11.673 -0.1351  0.1370 -0.4734
18441TIP3    H276815   6.606   0.154  11.818  0.1460 -0.6194 -0.3598
18442TIP3   OH276816   2.993   2.554  14.116  0.2566 -0.0165  0.0544
18442TIP3    H176817   2.944   2.613  14.059  0.8420  0.6428  0.2210
18442TIP3    H276818   3.085   2.578  14.102  0.3784  0.4231  1.5704
18443TIP3   OH276819   5.957   4.235   0.275 -0.0480  0.2592  0.1590
18443TIP3    H176820   5.903   4.311   0.297  0.2511  0.9246 -1.3641
18443TIP3    H276821   5.896   4.161   0.279 -0.8794  0.8872 -0.6632
18444TIP3   OH276822   2.016   3.023  14.644  0.1875  0.4867  0.5756
18444TIP3    H176823   2.097   2.980  14.675  0.3843  0.2367 -0.2863
18444TIP3    H276824   2.031   3.116  14.662  0.1524  0.3128  1.5675
18445TIP3   OH276825   6.193   4.925   4.819  0.7569 -0.0642  0.6547
18445TIP3    H176826   6.251   4.998   4.839  0.4297  0.6849 -1.0686
18445TIP3    H276827   6.105   4.961   4.826  0.6009 -0.1832 -0.4777
18446TIP3   OH276828   2.203   4.160   4.954  0.2346  0.3087 -0.5406
18446TIP3    H176829   2.151   4.085   4.923  0.5367 -0.4228  0.6917
18446TIP3    H276830   2.288   4.122   4.976  0.5847  1.1224 -0.4733
18447TIP3   OH276831   1.755   5.293   2.390 -0.0391 -0.0834  0.0992
18447TIP3    H176832   1.845   5.279   2.417  0.7345  1.2766 -1.6825
18447TIP3    H276833   1.761   5.329   2.302 -2.3339 -0.2804 -0.1771
18448TIP3   OH276834   2.533   2.826   4.491 -0.0465 -0.5014 -0.2355
18448TIP3    H176835   2.562   2.891   4.555 -1.0785  1.0231 -1.2677
18448TIP3    H276836   2.437   2.829   4.496 -0.1340 -0.5786 -1.6163
18449TIP3   OH276837   4.204   2.288   4.235  0.1000  0.3482  0.4208
18449TIP3    H176838   4.269   2.329   4.177  0.7027  0.5210  1.2097
18449TIP3    H276839   4.179   2.357   4.296  1.1655 -0.4488  1.7999
18450TIP3   OH276840   6.513   5.062   5.418 -0.1212 -0.0026  0.3883
18450TIP3    H176841   6.452   5.090   5.349 -1.6752 -0.8786  1.3695
18450TIP3    H276842   6.586   5.023   5.371 -1.0109 -0.2823 -0.7909
18451TIP3   OH276843   0.820   6.802  12.793  0.4960  0.1363 -0.3216
18451TIP3    H176844   0.827   6.726  12.735 -0.1273 -1.3824  1.5380
18451TIP3    H276845   0.883   6.785  12.863 -1.2168  0.2514  1.2896
18452TIP3   OH276846   0.625   6.148   1.444  0.1850  0.8700  0.2191
18452TIP3    H176847   0.719   6.138   1.458  0.0244 -1.0849  0.0254
18452TIP3    H276848   0.587   6.138   1.531 -0.1134 -2.1037 -0.2238
18453TIP3   OH276849   5.646   5.319   5.055  0.6347 -0.1985 -0.1551
18453TIP3    H176850   5.730   5.310   5.010  0.8303  0.1111  0.1408
18453TIP3    H276851   5.597   5.240   5.032  0.8908 -0.2357 -0.5743
18454TIP3   OH276852   3.157   1.825  16.094 -0.5102  0.0657  1.0849
18454TIP3    H176853   3.124   1.908  16.060 -1.8217 -0.8829  0.0049
18454TIP3    H276854   3.094   1.760  16.064  1.4860 -1.5764  0.3625
18455TIP3   OH276855   2.721   4.696   5.659 -0.2754 -0.3556 -0.0994
18455TIP3    H176856   2.713   4.635   5.733  0.2185 -0.2218  0.0625
18455TIP3    H276857   2.808   4.734   5.668 -0.5787  0.3704 -0.2077
18456TIP3   OH276858   4.155   4.908  17.262 -0.1440  0.2866 -0.0016
18456TIP3    H176859   4.126   4.868  17.180 -2.1536 -0.5821  1.0964
18456TIP3    H276860   4.188   4.835  17.314 -0.6477  0.5648  0.7034
18457TIP3   OH276861   5.815   4.560   5.891  0.6346 -0.3451  0.5563
18457TIP3    H176862   5.846   4.640   5.848 -0.2959  0.1055  0.7210
18457TIP3    H276863   5.858   4.489   5.842  0.4386  0.2056 -0.4257
18458TIP3   OH276864   2.816   3.047   4.434 -0.0839  0.2780 -0.5534
18458TIP3    H176865   2.803   2.965   4.483  0.6041  0.9559  0.7988
18458TIP3    H276866   2.853   3.108   4.499 -0.9946  1.7930 -1.4291
18459TIP3   OH276867   0.643   5.072   0.325 -0.3577 -0.6983 -0.2355
18459TIP3    H176868   0.646   5.167   0.337 -0.5032 -0.7172 -0.0614
18459TIP3    H276869   0.734   5.044   0.333 -0.1388 -0.4164 -1.5395
18460TIP3   OH276870   5.473   0.731  13.869 -0.4017  0.0565  0.4569
18460TIP3    H176871   5.429   0.803  13.825 -0.2794  0.1808  0.5374
18460TIP3    H276872   5.553   0.770  13.904 -0.6426  0.0306  1.0475
18461TIP3   OH276873   0.118   0.258  15.050  0.3657  0.5884  0.5629
18461TIP3    H176874   0.111   0.293  14.961  0.4117  2.2202  1.1863
18461TIP3    H276875   0.112   0.163  15.039  1.8226  0.6848 -1.3272
18462TIP3   OH276876   0.825   2.085  14.611 -0.1940 -0.7742 -0.0996
18462TIP3    H176877   0.912   2.049  14.594 -0.4981 -0.9464 -1.3206
18462TIP3    H276878   0.794   2.038  14.689  1.4246  0.3764  1.2988
18463TIP3   OH276879   2.284   5.933   0.582  0.0931 -0.3692 -0.0145
18463TIP3    H176880   2.272   6.012   0.634 -0.1837 -0.3680 -0.0785
18463TIP3    H276881   2.364   5.893   0.617 -0.1181 -0.3929  0.4468
18464TIP3   OH276882   1.862   2.971   1.330 -0.0459 -0.0186  0.0727
18464TIP3    H176883   1.917   2.952   1.406  0.6886 -0.4381 -0.5601
18464TIP3    H276884   1.911   2.936   1.256 -1.0820 -0.2240 -0.5174
18465TIP3   OH276885   0.922   4.524   5.916  0.0305 -0.3977  0.1067
18465TIP3    H176886   0.985   4.595   5.929 -1.0517  0.6409 -0.2594
18465TIP3    H276887   0.874   4.549   5.838  0.5559 -2.2261 -0.8274
18466TIP3   OH276888   6.080   5.869  12.433  0.1734  0.4801  0.5789
18466TIP3    H176889   6.066   5.962  12.449  1.1578  0.8382 -0.5612
18466TIP3    H276890   6.022   5.848  12.361  0.2776  0.3171  0.5419
18467TIP3   OH276891   3.888   5.671   5.302  0.1166 -0.6140  0.3164
18467TIP3    H176892   3.799   5.670   5.266  0.4352  3.5300 -0.8560
18467TIP3    H276893   3.876   5.682   5.396 -0.6284 -1.1211  0.2805
18468TIP3   OH276894   3.873   2.475  11.081  0.6454  0.2573 -0.5932
18468TIP3    H176895   3.830   2.390  11.065 -0.3719  1.0695 -2.2319
18468TIP3    H276896   3.951   2.473  11.027  1.3146 -0.1304  0.3594
18469TIP3   OH276897   5.657   5.259  16.298  0.2727  0.5685  0.8899
18469TIP3    H176898   5.706   5.214  16.228 -1.6947 -1.1132  0.5644
18469TIP3    H276899   5.704   5.236  16.378 -1.0591 -2.6229  0.7995
18470TIP3   OH276900   2.694   3.781   1.941  0.0629 -0.7893  0.4435
18470TIP3    H176901   2.605   3.807   1.914  0.2190 -0.3690  0.3293
18470TIP3    H276902   2.727   3.858   1.988  0.6511 -0.6625 -0.1777
18471TIP3   OH276903   5.944   1.296  16.168 -0.4153  0.5954  0.2618
18471TIP3    H176904   5.868   1.313  16.112 -0.8873 -1.4892  0.2427
18471TIP3    H276905   6.015   1.274  16.108 -0.2874  0.7257  0.3651
18472TIP3   OH276906   6.384   0.595  15.882  0.0026  0.6251  0.3124
18472TIP3    H176907   6.454   0.651  15.917 -0.7501  3.1669 -2.1289
18472TIP3    H276908   6.319   0.592  15.952  0.2737  2.4383  0.6664
18473TIP3   OH276909   1.263   0.608  14.265 -0.0638 -0.5441 -0.4370
18473TIP3    H176910   1.178   0.571  14.241 -1.6175  1.6071  1.4972
18473TIP3    H276911   1.278   0.578  14.355  0.3035  0.5718 -0.1069
18474TIP3   OH276912   0.552   3.160  13.707  0.0760  0.4487  0.2613
18474TIP3    H176913   0.487   3.216  13.666  1.1484  2.2585  0.9637
18474TIP3    H276914   0.590   3.214  13.777  1.8235 -0.7992  0.3206
18475TIP3   OH276915   6.305   5.632  12.033  0.4994 -0.4267  0.0979
18475TIP3    H176916   6.382   5.684  12.058  0.5867 -1.1398  1.3557
18475TIP3    H276917   6.252   5.629  12.113 -0.8639  0.0935 -0.7807
18476TIP3   OH276918   0.238   2.987   1.346 -0.4240 -0.3892  0.4555
18476TIP3    H176919   0.180   2.920   1.381  0.9030 -1.8491 -0.0908
18476TIP3    H276920   0.246   3.051   1.417 -0.9051 -1.3024  1.3415
18477TIP3   OH276921   3.106   3.121   4.020  0.1349 -0.4438  0.2111
18477TIP3    H176922   3.139   3.031   4.032 -1.0436 -0.7395  1.2908
18477TIP3    H276923   3.014   3.110   3.996 -0.2452  0.4949  1.2008
18478TIP3   OH276924   3.935   0.707  12.352  0.1279 -0.0190 -0.1661
18478TIP3    H176925   4.022   0.693  12.316 -0.7859  0.6826 -2.7270
18478TIP3    H276926   3.922   0.802  12.349 -0.3629 -0.0270  1.1301
18479TIP3   OH276927   2.393   4.855   4.410  0.2730  0.3173  0.0718
18479TIP3    H176928   2.344   4.934   4.429 -2.5871 -0.5028 -3.4190
18479TIP3    H276929   2.455   4.880   4.341 -0.2216 -0.3227 -0.6167
18480TIP3   OH276930   2.512   5.806  16.726  0.5452  0.0061 -0.4801
18480TIP3    H176931   2.515   5.879  16.663  2.0658  1.3919  1.1565
18480TIP3    H276932   2.598   5.807  16.767 -0.5343 -0.6728  1.8541
18481TIP3   OH276933   5.483   5.595   5.461 -0.3352  0.0812  0.3010
18481TIP3    H176934   5.516   5.590   5.371 -0.0173  2.6633  0.2389
18481TIP3    H276935   5.452   5.506   5.480 -0.3985 -0.5152 -2.3438
18482TIP3   OH276936   4.951   5.178   3.435  0.8264  0.3194 -0.2641
18482TIP3    H176937   4.887   5.108   3.446  1.8305 -0.2816  2.0439
18482TIP3    H276938   4.967   5.210   3.524  0.8976  3.0332 -1.1932
18483TIP3   OH276939   1.268   6.469  16.786  0.4952  0.0225  0.4687
18483TIP3    H176940   1.186   6.434  16.822  0.8983 -1.3171  0.1359
18483TIP3    H276941   1.316   6.391  16.756  1.8777  0.7920  0.6353
18484TIP3   OH276942   5.082   3.170   3.290 -0.4990 -0.5572 -0.2539
18484TIP3    H176943   5.139   3.246   3.292 -0.4312 -0.6374  2.4078
18484TIP3    H276944   5.141   3.095   3.288 -0.5344 -0.5976  0.1812
18485TIP3   OH276945   3.143   1.496   5.308  0.2433 -0.0261  0.7134
18485TIP3    H176946   3.222   1.482   5.255 -0.5673 -0.9819 -0.2385
18485TIP3    H276947   3.097   1.567   5.264 -0.2650 -0.5982  0.3230
18486TIP3   OH276948   4.076   0.562  15.592 -0.0485  0.2769  0.4307
18486TIP3    H176949   4.161   0.535  15.626  1.8943  2.4325 -2.4650
18486TIP3    H276950   4.096   0.611  15.512 -3.8172  3.2323  1.1089
18487TIP3   OH276951   3.591   1.255  13.686 -0.6193  0.1185 -0.1870
18487TIP3    H176952   3.531   1.321  13.720  0.8355  1.7192 -0.6822
18487TIP3    H276953   3.639   1.223  13.762 -1.1691 -0.2233  0.0184
18488TIP3   OH276954   2.707   3.973   0.200 -0.0656  0.2418 -0.6111
18488TIP3    H176955   2.785   3.926   0.228 -1.0213 -4.1213 -4.5720
18488TIP3    H276956   2.727   4.003   0.111 -2.1812  0.7498 -0.9504
18489TIP3   OH276957   5.220   0.787  11.231  0.2571  0.1266  0.8227
18489TIP3    H176958   5.196   0.879  11.221  0.9029  0.1754 -0.3662
18489TIP3    H276959   5.252   0.761  11.145  3.1509 -0.2903  1.9726
18490TIP3   OH276960   1.026   4.350  11.697  0.4264 -0.2847  0.4002
18490TIP3    H176961   0.956   4.379  11.639 -0.6033 -1.8135  0.8327
18490TIP3    H276962   1.105   4.389  11.661 -0.8826  3.0819  1.0088
18491TIP3   OH276963   5.402   6.728  13.323  0.3396  0.3417 -0.2932
18491TIP3    H176964   5.319   6.697  13.287  1.1481 -0.2777 -1.6497
18491TIP3    H276965   5.434   6.654  13.375 -0.0861  0.6875  0.4747
18492TIP3   OH276966   4.735   4.780  15.371  0.0643  0.7421 -0.3909
18492TIP3    H176967   4.792   4.818  15.303  0.4189 -0.7296 -0.9312
18492TIP3    H276968   4.766   4.690  15.381 -0.1285  0.8721  1.5855
18493TIP3   OH276969   5.239   6.081   6.081  0.0458  1.0712  0.3364
18493TIP3    H176970   5.291   6.020   6.028 -0.5457  2.1128 -1.5210
18493TIP3    H276971   5.268   6.066   6.171  2.0672  0.1847 -0.4249
18494TIP3   OH276972   3.079   0.584   4.444  0.0198  0.1404  0.1378
18494TIP3    H176973   3.058   0.520   4.512  0.6763 -0.1872  0.0398
18494TIP3    H276974   3.046   0.667   4.478  2.3503  0.3948  1.8994
18495TIP3   OH276975   6.291   3.871   5.447 -0.0210  0.4268  0.0741
18495TIP3    H176976   6.372   3.922   5.447  0.8947 -0.9929  1.0165
18495TIP3    H276977   6.292   3.825   5.530 -0.1640 -2.1379 -1.2879
18496TIP3   OH276978   1.088   3.431  14.612 -0.0458  0.0177  0.1721
18496TIP3    H176979   1.124   3.494  14.674  1.2257 -1.3189  0.8242
18496TIP3    H276980   1.012   3.393  14.657  0.4958 -0.4907  0.6662
18497TIP3   OH276981   1.491   3.636   4.944  0.0089  0.3054  0.8059
18497TIP3    H176982   1.494   3.709   4.882 -0.1674 -0.2452  0.1388
18497TIP3    H276983   1.399   3.629   4.968  0.2043  1.0994  1.8476
18498TIP3   OH276984   1.793   0.733   4.948  0.2353 -0.2644  0.1685
18498TIP3    H176985   1.873   0.750   4.898  0.0234 -1.9571 -0.7873
18498TIP3    H276986   1.823   0.692   5.029  0.4308  0.4400  0.4529
18499TIP3   OH276987   4.425   4.951   6.203 -0.2482 -0.3088 -0.0034
18499TIP3    H176988   4.488   4.963   6.274 -0.4755 -1.6171  0.4324
18499TIP3    H276989   4.477   4.960   6.123  0.2384 -0.0699  0.3359
18500TIP3   OH276990   3.924   5.126  15.554  0.5973  0.4058  0.1808
18500TIP3    H176991   3.933   5.205  15.500 -0.9641  1.0557  0.8507
18500TIP3    H276992   3.921   5.054  15.490 -2.1545  1.2398 -0.7228
18501TIP3   OH276993   2.140   1.582  14.510 -0.3105 -0.1881 -0.1813
18501TIP3    H176994   2.174   1.569  14.598  0.8361  0.1788 -0.5617
18501TIP3    H276995   2.183   1.515  14.457 -0.5340 -0.0242 -0.5730
18502TIP3   OH276996   4.694   6.076   0.649  0.0468  0.1186  0.6840
18502TIP3    H176997   4.728   5.988   0.664  2.0172  0.8903  0.8509
18502TIP3    H276998   4.743   6.108   0.573 -0.7591  1.0300  0.5334
18503TIP3   OH276999   2.211   2.245   2.210  0.0648 -0.6037  0.0048
18503TIP3    H177000   2.224   2.243   2.305  0.8424  0.2433 -0.0777
18503TIP3    H277001   2.182   2.334   2.191 -0.0502 -0.7571 -0.5593
18504TIP3   OH277002   4.229   5.123  17.087 -0.2550 -0.1834 -0.1754
18504TIP3    H177003   4.188   5.204  17.118  0.1042  0.2628 -0.8633
18504TIP3    H277004   4.213   5.060  17.158 -0.1056  0.6163  0.5796
18505TIP3   OH277005   1.546   2.764   1.261  0.3649  0.0812 -0.0440
18505TIP3    H177006   1.595   2.830   1.212  1.1608  0.0934  0.7428
18505TIP3    H277007   1.594   2.756   1.344 -0.5747 -0.4127  0.4598
18506TIP3   OH277008   5.535   6.404   5.658  0.6348 -0.0758  0.1291
18506TIP3    H177009   5.478   6.381   5.732  0.3858  1.7782  0.5400
18506TIP3    H277010   5.616   6.356   5.675  0.2769 -0.3426  1.1619
18507TIP3   OH277011   6.339   3.771   3.358  0.6109  0.4400 -0.2677
18507TIP3    H177012   6.405   3.839   3.371 -0.0126  1.1920 -1.0033
18507TIP3    H277013   6.258   3.819   3.341  0.1917 -0.4822 -0.9144
18508TIP3   OH277014   5.732   5.569  11.217 -0.2913  0.8245 -0.6591
18508TIP3    H177015   5.732   5.653  11.262  0.7457  0.1913  0.5493
18508TIP3    H277016   5.723   5.591  11.124 -1.5111  2.1792 -0.2266
18509TIP3   OH277017   3.407   1.059   0.016  0.3626 -0.0473 -0.6752
18509TIP3    H177018   3.336   1.116  -0.013  0.5496  0.0853 -0.8718
18509TIP3    H277019   3.440   1.018  -0.064 -1.1928 -2.1012 -0.3116
18510TIP3   OH277020   3.972   0.700   2.614 -0.5430  0.2551  0.2568
18510TIP3    H177021   3.936   0.768   2.672 -1.7581  1.1615 -1.5026
18510TIP3    H277022   3.895   0.665   2.568  0.0964 -2.2296  1.0317
18511TIP3   OH277023   1.197   2.382  16.091  0.0392  0.3388 -0.0792
18511TIP3    H177024   1.170   2.291  16.103 -0.9110  0.6724  0.3838
18511TIP3    H277025   1.120   2.425  16.053  0.7799  0.7625 -1.1201
18512TIP3   OH277026   1.880   6.621   5.324  0.3094 -0.0300 -0.2134
18512TIP3    H177027   1.963   6.589   5.288 -0.6846 -2.0833 -0.7546
18512TIP3    H277028   1.824   6.544   5.328 -1.5891  1.3253  0.1582
18513TIP3   OH277029   0.253   6.065   3.246  0.4956  0.1202 -0.0401
18513TIP3    H177030   0.233   5.972   3.244  2.8821 -0.4291 -0.3419
18513TIP3    H277031   0.342   6.071   3.211  0.7831  2.3860  0.9975
18514TIP3   OH277032   2.486   5.427   5.492 -0.4259 -0.0309 -0.3863
18514TIP3    H177033   2.571   5.439   5.451 -0.2604 -3.4603 -1.2587
18514TIP3    H277034   2.430   5.493   5.452  1.4745  1.3894 -0.7794
18515TIP3   OH277035   1.145   2.859   5.461 -0.0311 -0.5654 -0.1240
18515TIP3    H177036   1.094   2.929   5.421  0.0271  0.3542  1.3579
18515TIP3    H277037   1.236   2.885   5.446 -0.0105 -0.3623  0.3185
18516TIP3   OH277038   6.193   0.759  16.881  0.1378 -0.0697  0.2224
18516TIP3    H177039   6.265   0.770  16.819 -2.5078  2.9341 -2.4782
18516TIP3    H277040   6.141   0.686  16.847 -0.8652  1.0541 -0.6927
18517TIP3   OH277041   4.907   3.676   0.374 -0.5873  0.0855  0.2072
18517TIP3    H177042   4.867   3.742   0.430  0.0540  0.4277  0.2627
18517TIP3    H277043   4.840   3.608   0.365 -0.3867 -0.4052  2.1292
18518TIP3   OH277044   3.394   6.732  16.094  0.1452  0.0507  0.5360
18518TIP3    H177045   3.309   6.691  16.113 -0.2491  0.4350 -0.3432
18518TIP3    H277046   3.378   6.826  16.108 -0.0581  0.3013 -1.2947
18519TIP3   OH277047   0.635   5.782  11.569  0.0797 -0.0742  0.4636
18519TIP3    H177048   0.544   5.810  11.563  0.0521 -0.4148 -0.7853
18519TIP3    H277049   0.636   5.714  11.636 -0.8841 -1.2361 -0.6699
18520TIP3   OH277050   1.200   5.626   3.526 -0.2233 -0.7875 -0.2449
18520TIP3    H177051   1.267   5.694   3.528 -2.4082  1.4187  0.1636
18520TIP3    H277052   1.177   5.611   3.618  0.4506 -2.2943 -0.3137
18521TIP3   OH277053   5.123   1.398   6.051 -0.0042 -0.2247  0.5289
18521TIP3    H177054   5.093   1.308   6.067 -3.0256  0.6636  0.1598
18521TIP3    H277055   5.135   1.435   6.138  1.4895 -1.0250  0.6856
18522TIP3   OH277056   6.459   4.931  13.173  0.3123  0.0611  0.9172
18522TIP3    H177057   6.393   4.892  13.231  1.3070 -0.6112  1.6057
18522TIP3    H277058   6.540   4.929  13.223  1.9471 -3.6387 -1.6749
18523TIP3   OH277059   4.940   4.946   0.711 -0.0815  0.5000  0.6673
18523TIP3    H177060   4.911   4.857   0.729 -2.5143  1.0912 -0.1183
18523TIP3    H277061   4.925   4.994   0.792  0.7794  0.3110  0.9414
18524TIP3   OH277062   3.818   6.344   0.670  0.2454 -0.2848 -0.1577
18524TIP3    H177063   3.886   6.311   0.612 -0.0519 -2.3942  0.6472
18524TIP3    H277064   3.859   6.347   0.756 -1.0409 -2.8341  0.5733
18525TIP3   OH277065   2.406   3.861  16.303  0.4461 -0.6305 -0.1690
18525TIP3    H177066   2.378   3.905  16.223  0.2876 -1.0063 -0.3235
18525TIP3    H277067   2.499   3.842  16.288  0.8168  0.6690  0.3659
18526TIP3   OH277068   4.292   2.274  13.878 -0.7086  0.0670  0.2831
18526TIP3    H177069   4.371   2.310  13.918 -0.8150  0.8204 -0.1837
18526TIP3    H277070   4.276   2.192  13.925  1.9571 -1.5310 -1.4241
18527TIP3   OH277071   1.388   0.948   1.461 -0.3724  0.0891 -0.2397
18527TIP3    H177072   1.482   0.963   1.452 -0.3406 -0.4505 -0.7744
18527TIP3    H277073   1.381   0.881   1.529 -0.3687  0.0616 -0.2665
18528TIP3   OH277074   2.707   4.821  12.597 -0.3918  0.2480  0.1138
18528TIP3    H177075   2.681   4.798  12.686 -0.4691 -0.0139  0.0244
18528TIP3    H277076   2.736   4.912  12.603 -0.6233  0.3062  0.3594
18529TIP3   OH277077   5.476   3.116   3.993  0.2991 -0.1059  0.2733
18529TIP3    H177078   5.507   3.041   4.045  2.5100 -0.6241 -1.6967
18529TIP3    H277079   5.531   3.115   3.915 -0.1692  3.1483 -0.1516
18530TIP3   OH277080   3.418   3.214  12.374 -0.0838 -0.1189  0.5634
18530TIP3    H177081   3.331   3.216  12.334  0.2912 -0.9195 -0.3129
18530TIP3    H277082   3.411   3.273  12.450 -0.4637  2.4842 -1.3964
18531TIP3   OH277083   4.510   3.365  15.177  0.5066 -0.3719 -0.0186
18531TIP3    H177084   4.417   3.344  15.184  0.1886 -0.1737 -3.0308
18531TIP3    H277085   4.552   3.313  15.246 -1.7829 -0.6894  1.1716
18532TIP3   OH277086   3.437   2.750  15.006  0.8602  0.1889  0.1617
18532TIP3    H177087   3.500   2.776  15.073 -0.0965 -0.4297  1.3267
18532TIP3    H277088   3.447   2.655  15.001  0.2940  0.1334  0.0852
18533TIP3   OH277089   0.386   0.951  13.181 -0.3775 -1.0183 -0.3090
18533TIP3    H177090   0.385   0.870  13.130  4.2374 -1.1289 -0.4641
18533TIP3    H277091   0.442   0.931  13.256 -0.3110  1.5906  0.3869
18534TIP3   OH277092   0.202   1.639  14.581  0.3257 -0.1945  0.4959
18534TIP3    H177093   0.185   1.726  14.544  0.6003 -0.1716  0.4212
18534TIP3    H277094   0.169   1.578  14.515  0.3729 -0.1496  0.4310
18535TIP3   OH277095   6.371   6.228   1.791 -0.9346  0.9381  0.1141
18535TIP3    H177096   6.363   6.136   1.765  1.5536  1.0091 -1.0131
18535TIP3    H277097   6.413   6.226   1.876 -0.8333  1.0401  0.0666
18536TIP3   OH277098   5.454   3.367   3.112 -0.1809 -0.9049 -0.3554
18536TIP3    H177099   5.536   3.385   3.158  0.5323 -1.5407 -1.3356
18536TIP3    H277100   5.478   3.301   3.047 -0.9517  0.6214 -2.2438
18537TIP3   OH277101   3.606   2.129   4.127 -0.1148 -0.0278 -1.5134
18537TIP3    H177102   3.533   2.075   4.098 -0.8621  0.6505 -0.9055
18537TIP3    H277103   3.590   2.215   4.087 -0.5216  0.5777 -0.0662
18538TIP3   OH277104   2.005   6.256   1.653  0.4999 -0.3255  0.1153
18538TIP3    H177105   2.095   6.285   1.641  0.3521  1.0790  2.0815
18538TIP3    H277106   1.989   6.269   1.747 -1.9180 -0.0648 -0.3155
18539TIP3   OH277107   2.934   2.828  15.424 -0.6182 -0.2600  0.4970
18539TIP3    H177108   2.919   2.917  15.454 -0.2526 -0.0074 -0.0600
18539TIP3    H277109   2.928   2.774  15.503 -1.6385  0.1621  0.7054
18540TIP3   OH277110   0.253   2.849   5.995  0.3061  0.1284  0.2056
18540TIP3    H177111   0.219   2.843   6.085  0.0896 -1.3272  0.0323
18540TIP3    H277112   0.178   2.878   5.943  0.2777  0.3956  0.3924
18541TIP3   OH277113   6.559   4.158   2.446  0.3659  0.4448  0.4037
18541TIP3    H177114   6.514   4.096   2.503  1.1791 -0.3474  0.1891
18541TIP3    H277115   6.582   4.232   2.503  1.5702 -0.5384  1.1987
18542TIP3   OH277116   0.143   0.785  14.217 -0.4298 -0.9321 -0.0134
18542TIP3    H177117   0.129   0.753  14.128  3.2071  0.0962 -1.0020
18542TIP3    H277118   0.147   0.705  14.270 -1.1247 -1.6094 -0.9516
18543TIP3   OH277119   1.320   6.133   0.338  0.1511  0.5968 -0.7962
18543TIP3    H177120   1.309   6.204   0.401  0.6342  0.8290 -0.9660
18543TIP3    H277121   1.232   6.115   0.305 -0.3606 -0.6289  1.1409
18544TIP3   OH277122   4.582   5.093   5.588 -0.3447 -0.0305  0.5927
18544TIP3    H177123   4.574   5.175   5.538  0.0790  0.1695  0.8545
18544TIP3    H277124   4.641   5.115   5.660 -0.4818 -0.4856  0.8383
18545TIP3   OH277125   5.729   5.667   1.959  0.4783  0.4641  0.4361
18545TIP3    H177126   5.767   5.749   1.991  1.8836  0.1935 -0.4770
18545TIP3    H277127   5.680   5.692   1.881 -1.0457  0.7699  1.4590
18546TIP3   OH277128   2.489   4.813  15.216 -0.0805 -0.4837  0.8213
18546TIP3    H177129   2.410   4.859  15.246  0.0825 -0.3929  1.1150
18546TIP3    H277130   2.545   4.882  15.180 -0.3108 -0.6040  0.2309
18547TIP3   OH277131   2.028   3.016  12.093 -0.0860  0.6963  0.7242
18547TIP3    H177132   2.019   2.928  12.055  0.7311 -0.0253  2.1775
18547TIP3    H277133   2.095   3.058  12.039 -0.6241  0.5108 -0.1021
18548TIP3   OH277134   5.647   4.132  10.835  0.1556 -0.0398 -0.4204
18548TIP3    H177135   5.580   4.194  10.808 -0.8768 -0.3125  1.4484
18548TIP3    H277136   5.697   4.178  10.903  2.0660  0.2677 -1.9948
18549TIP3   OH277137   2.776   1.159  14.224 -0.2422 -0.5569  0.2674
18549TIP3    H177138   2.754   1.077  14.269  1.7315 -1.5790 -0.5249
18549TIP3    H277139   2.827   1.209  14.288 -1.1758 -0.0802  0.6422
18550TIP3   OH277140   0.658   5.240   5.839  0.2669 -0.1918 -0.1248
18550TIP3    H177141   0.650   5.210   5.929  0.9463 -1.1869 -0.3800
18550TIP3    H277142   0.633   5.332   5.841 -0.9354 -0.5408  0.8525
18551TIP3   OH277143   4.605   0.760  15.806 -0.5039 -0.1970  0.1270
18551TIP3    H177144   4.556   0.774  15.725  0.3643 -0.6984 -0.4922
18551TIP3    H277145   4.544   0.712  15.863 -0.5153 -1.3837 -0.8653
18552TIP3   OH277146   3.761   0.567   4.081 -0.3668  0.3975  0.1982
18552TIP3    H177147   3.808   0.621   4.145  1.9999 -0.3561 -0.8464
18552TIP3    H277148   3.710   0.630   4.029 -0.2016  1.2832  1.0959
18553TIP3   OH277149   3.322   4.952  11.081  0.1288  0.2694  0.2660
18553TIP3    H177150   3.302   4.962  10.988 -2.3312  1.4330  0.8870
18553TIP3    H277151   3.257   4.890  11.114 -0.7565  1.9301  1.7543
18554TIP3   OH277152   5.678   2.766   4.749  0.5882  0.0739  0.1880
18554TIP3    H177153   5.694   2.696   4.686  0.3397  0.4194 -0.2699
18554TIP3    H277154   5.582   2.775   4.751  0.6872  2.3371 -1.9504
18555TIP3   OH277155   0.444   1.461  10.863  0.6855  0.5590 -0.0482
18555TIP3    H177156   0.397   1.534  10.902 -0.3515 -0.3291  0.3658
18555TIP3    H277157   0.475   1.410  10.937  3.3236  1.7485 -0.2734
18556TIP3   OH277158   0.296   5.815   4.925  0.3323 -0.3229  0.4064
18556TIP3    H177159   0.386   5.822   4.958  0.0267 -0.6659  1.3222
18556TIP3    H277160   0.302   5.756   4.850  1.1535  1.0330 -0.6323
18557TIP3   OH277161   3.094   1.185   1.955  0.0702 -0.4352 -0.2714
18557TIP3    H177162   3.175   1.218   1.915  0.7403 -2.7531 -0.8891
18557TIP3    H277163   3.120   1.159   2.044  0.1444 -1.6673 -0.6423
18558TIP3   OH277164   1.881   0.788   2.419 -0.2364  0.8389  0.0101
18558TIP3    H177165   1.871   0.738   2.338 -0.3011  1.2277 -0.2234
18558TIP3    H277166   1.840   0.734   2.486 -0.1543  0.4992 -0.2114
18559TIP3   OH277167   2.907   3.852   0.340  0.0861 -0.2876 -0.6288
18559TIP3    H177168   2.970   3.913   0.302 -0.9537  0.3901 -1.2995
18559TIP3    H277169   2.951   3.817   0.417  2.2712 -1.7506 -2.4895
18560TIP3   OH277170   6.102   5.284   4.605 -0.0912  0.0673 -0.3438
18560TIP3    H177171   6.099   5.295   4.510 -1.1718 -0.5660 -0.3876
18560TIP3    H277172   6.013   5.302   4.634  0.3382  0.6755  0.5988
18561TIP3   OH277173   4.094   6.611   4.643 -0.0910  0.0384 -0.2449
18561TIP3    H177174   4.061   6.682   4.589  1.7931  1.2314  0.1402
18561TIP3    H277175   4.092   6.645   4.732 -0.8303 -1.0328  0.1686
18562TIP3   OH277176   5.170   6.047   0.585  0.4307 -0.0486 -0.6435
18562TIP3    H177177   5.159   6.137   0.616 -1.3667 -0.1082 -1.0694
18562TIP3    H277178   5.100   6.035   0.521 -1.1471 -2.6483  1.4517
18563TIP3   OH277179   2.972   4.239   2.595 -0.4244  0.3945  0.1534
18563TIP3    H177180   3.058   4.247   2.552  0.0699 -0.0004  1.0494
18563TIP3    H277181   2.929   4.322   2.579 -0.5120  0.0069 -1.6812
18564TIP3   OH277182   0.201   5.938  12.295  0.1875  0.1082 -0.0757
18564TIP3    H177183   0.202   5.957  12.389  0.1442  1.9639 -0.4350
18564TIP3    H277184   0.108   5.923  12.275  0.1073  0.4779  0.0225
18565TIP3   OH277185   2.950   0.664   0.427  0.0642 -0.1765 -0.6074
18565TIP3    H177186   2.855   0.661   0.418 -0.0187  1.3792 -0.4959
18565TIP3    H277187   2.972   0.757   0.418  1.6598 -0.6128 -1.4355
18566TIP3   OH277188   2.582   6.749   2.241  0.3653 -0.3617  0.6543
18566TIP3    H177189   2.543   6.788   2.319  1.7137 -1.1559  1.7490
18566TIP3    H277190   2.597   6.657   2.266  0.6403 -0.6643 -0.6070
18567TIP3   OH277191   3.578   2.403   3.708 -0.3421  0.1466  0.4282
18567TIP3    H177192   3.483   2.413   3.718 -0.4301 -0.9213  0.6987
18567TIP3    H277193   3.599   2.325   3.758  0.7394  0.5830  0.6590
18568TIP3   OH277194   5.883   0.795   1.434  0.1773 -0.0059  0.4329
18568TIP3    H177195   5.878   0.711   1.389 -1.3712  0.5413 -0.5006
18568TIP3    H277196   5.896   0.773   1.526 -0.0181 -1.2526  0.1714
18569TIP3   OH277197   1.657   4.595   4.283 -0.2466  0.0355 -0.3309
18569TIP3    H177198   1.703   4.656   4.225  0.8465 -0.6951 -0.2439
18569TIP3    H277199   1.694   4.509   4.261  0.4275 -0.2045  1.6731
18570TIP3   OH277200   0.095   2.427   4.739 -0.5909 -1.0524  0.4662
18570TIP3    H177201   0.066   2.510   4.702 -0.4050 -1.2863 -0.2123
18570TIP3    H277202   0.124   2.448   4.827  2.1378  0.1186 -0.6450
18571TIP3   OH277203   3.435   1.069  13.098  0.0398 -0.5574  0.5356
18571TIP3    H177204   3.452   1.024  13.016 -0.0696 -0.0280  0.2193
18571TIP3    H277205   3.457   1.006  13.166 -1.6513 -1.6622  0.0905
18572TIP3   OH277206   3.313   2.768  15.459 -0.0656 -0.1398  0.0965
18572TIP3    H177207   3.370   2.786  15.385  0.4563 -0.1665  0.4877
18572TIP3    H277208   3.277   2.854  15.483  0.1259 -0.0623  0.1052
18573TIP3   OH277209   2.792   1.186   2.338  0.3378  0.1578  0.3736
18573TIP3    H177210   2.745   1.185   2.255  0.7558  1.2323  0.1160
18573TIP3    H277211   2.849   1.263   2.333 -0.8342  1.1840  2.3026
18574TIP3   OH277212   0.335   1.835  16.646 -0.4784 -0.2485 -0.6564
18574TIP3    H177213   0.293   1.750  16.659  0.9890 -0.7222  1.1644
18574TIP3    H277214   0.426   1.821  16.673 -0.1934  1.8842 -0.4521
18575TIP3   OH277215   5.699   1.032   6.743 -0.5263  0.2842  0.3273
18575TIP3    H177216   5.637   1.049   6.672  1.3003 -0.4008 -1.4964
18575TIP3    H277217   5.648   0.984   6.808 -2.2511  0.9422 -0.4890
18576TIP3   OH277218   0.049   0.009  10.836  0.2844  0.4667  0.3304
18576TIP3    H177219  -0.034   0.055  10.824  0.1006  0.2427  0.7268
18576TIP3    H277220   0.025  -0.072  10.881  0.5810 -0.1353 -0.6053
18577TIP3   OH277221   5.419   1.429   6.284  0.7621 -0.3321  0.3204
18577TIP3    H177222   5.436   1.356   6.343  0.4170  1.5873  2.8982
18577TIP3    H277223   5.505   1.472   6.274  0.4356  0.5352  1.1283
18578TIP3   OH277224   5.505   5.347   4.470  0.1892  0.3784  0.9103
18578TIP3    H177225   5.515   5.330   4.564 -0.2288  0.6940  1.0126
18578TIP3    H277226   5.566   5.418   4.452  0.0992  0.4761  0.9900
18579TIP3   OH277227   4.968   5.026  14.233  0.1148 -0.0670  0.2067
18579TIP3    H177228   4.932   5.093  14.292 -1.4271 -0.0739 -0.7018
18579TIP3    H277229   4.996   5.076  14.156 -0.9997 -0.4389 -0.4549
18580TIP3   OH277230   5.403   4.385  16.296  0.2965 -0.1552 -0.1377
18580TIP3    H177231   5.371   4.399  16.385  0.0455 -0.5056 -0.1725
18580TIP3    H277232   5.465   4.456  16.281  0.4675 -0.1988  0.3792
18581TIP3   OH277233   3.707   2.490  11.414  0.2739 -0.6491  0.2143
18581TIP3    H177234   3.703   2.585  11.402 -1.2267 -0.7974 -0.6554
18581TIP3    H277235   3.756   2.478  11.495  0.9974  0.8480  0.0087
18582TIP3   OH277236   3.401   4.022  16.453  0.2166 -0.6866  0.4816
18582TIP3    H177237   3.410   4.117  16.463 -0.8229 -0.6895  1.5401
18582TIP3    H277238   3.488   3.988  16.473  0.4344  0.0022  0.7461
18583TIP3   OH277239   1.626   1.164   3.478  0.3106  0.4196 -0.4775
18583TIP3    H177240   1.608   1.247   3.523 -0.6264  0.4826 -0.9616
18583TIP3    H277241   1.705   1.130   3.521  0.8875  1.7112 -0.4898
18584TIP3   OH277242   0.558   4.319  13.217 -0.3193  0.5681  0.1380
18584TIP3    H177243   0.633   4.364  13.179 -0.4201 -0.1655 -0.9565
18584TIP3    H277244   0.592   4.232  13.241 -0.8735  0.1335 -0.6195
18585TIP3   OH277245   0.147   4.861  13.857 -0.2652  0.0724 -0.7888
18585TIP3    H177246   0.107   4.793  13.802 -1.3132 -0.5516  0.7259
18585TIP3    H277247   0.129   4.943  13.810 -2.4593 -0.3022 -0.6653
18586TIP3   OH277248   3.174   2.213   4.752  0.2665 -0.0384 -0.2244
18586TIP3    H177249   3.232   2.192   4.825  1.0035 -0.6948 -0.9842
18586TIP3    H277250   3.119   2.135   4.741 -1.8338  1.1757  1.4869
18587TIP3   OH277251   4.039   6.049  13.130 -0.4468 -0.0634  0.3409
18587TIP3    H177252   3.984   5.971  13.126 -1.2914  0.4343  1.7471
18587TIP3    H277253   3.987   6.117  13.087 -0.2289  0.0067  0.1887
18588TIP3   OH277254   0.005   3.364   6.470 -0.3421  0.0035  0.3381
18588TIP3    H177255   0.048   3.315   6.540 -1.1223 -0.8307  0.2462
18588TIP3    H277256  -0.051   3.299   6.426  1.2019  0.1564 -1.9654
18589TIP3   OH277257   3.080   4.735   4.652 -0.7343  0.7870 -0.3873
18589TIP3    H177258   3.069   4.764   4.742 -0.9409  2.1725 -0.8393
18589TIP3    H277259   3.175   4.729   4.640 -0.7267 -0.2929  0.1899
18590TIP3   OH277260   6.476   0.718   5.708  0.6179 -0.3071  0.4429
18590TIP3    H177261   6.427   0.698   5.788  1.2018 -1.6738  0.4668
18590TIP3    H277262   6.503   0.633   5.674  0.4911  0.2734 -1.1519
18591TIP3   OH277263   2.373   2.188   3.324  0.7611  0.3410 -0.0612
18591TIP3    H177264   2.326   2.141   3.393  0.3469 -1.5567 -1.5754
18591TIP3    H277265   2.465   2.165   3.338  0.5903 -0.7551 -0.6204
18592TIP3   OH277266   5.686   5.924  16.588  0.3835 -0.0259 -0.0120
18592TIP3    H177267   5.762   5.894  16.539 -1.6476 -2.1194 -2.0563
18592TIP3    H277268   5.617   5.935  16.521 -1.1688  1.6280  1.7786
18593TIP3   OH277269   6.176   0.071  14.146  0.2329  0.3079 -0.8876
18593TIP3    H177270   6.129   0.100  14.225  2.0921 -0.6323  0.6059
18593TIP3    H277271   6.237   0.142  14.127 -0.3168  0.5958 -1.5612
18594TIP3   OH277272   0.829   3.291  16.152  0.4120  0.5647 -0.3933
18594TIP3    H177273   0.820   3.316  16.244 -0.8130  0.2909 -0.4299
18594TIP3    H277274   0.749   3.241  16.133  0.8378  0.2974 -1.4953
18595TIP3   OH277275   4.617   3.864  14.840  0.4220 -0.7646 -0.0082
18595TIP3    H177276   4.665   3.781  14.841  1.2620 -0.2741  1.3211
18595TIP3    H277277   4.526   3.839  14.855  0.7988 -1.3729  1.3225
18596TIP3   OH277278   6.428   3.656   0.157 -1.2936 -0.0742 -0.3881
18596TIP3    H177279   6.493   3.692   0.096 -0.4187 -1.5689 -0.3538
18596TIP3    H277280   6.478   3.636   0.236 -2.0188 -0.1997  0.0362
18597TIP3   OH277281   3.891   2.713   4.219 -0.2785  0.0935  0.0637
18597TIP3    H177282   3.966   2.760   4.256  0.1580 -1.6965  1.5375
18597TIP3    H277283   3.911   2.705   4.126  2.5323 -2.4260  0.8285
18598TIP3   OH277284   2.662   1.889   2.757  0.1924 -0.2405  1.0011
18598TIP3    H177285   2.597   1.900   2.687 -0.0876 -1.2820  1.0910
18598TIP3    H277286   2.745   1.881   2.711 -0.1655 -2.4730  0.6716
18599TIP3   OH277287   3.583   2.674   0.362  0.4252 -0.4570  0.2867
18599TIP3    H177288   3.531   2.696   0.439 -1.4400 -2.0939 -0.4668
18599TIP3    H277289   3.577   2.579   0.355  1.2570 -0.4081 -1.4002
18600TIP3   OH277290   0.423   1.045   3.264  0.3591 -0.0644  0.0404
18600TIP3    H177291   0.345   1.080   3.221 -0.0721  1.3758  1.9691
18600TIP3    H277292   0.425   0.953   3.238 -1.8334 -0.0540 -0.2556
18601TIP3   OH277293   4.053   2.775   5.895  0.1028 -0.2257  0.1111
18601TIP3    H177294   4.008   2.735   5.969  1.0058 -2.4948 -0.4936
18601TIP3    H277295   4.081   2.860   5.927 -0.7734 -0.5757  1.9035
18602TIP3   OH277296   5.201   2.342  14.125  0.0912  0.6433 -0.0079
18602TIP3    H177297   5.295   2.330  14.122  0.2011  0.2184  3.1355
18602TIP3    H277298   5.189   2.435  14.145 -0.1193  0.5055  0.5224
18603TIP3   OH277299   6.236   0.396  12.644 -0.1784 -0.5498  0.1304
18603TIP3    H177300   6.190   0.477  12.667  0.0328  0.2526 -2.2066
18603TIP3    H277301   6.176   0.326  12.671 -1.0701  0.4002  0.6457
18604TIP3   OH277302   3.804   2.708   2.320 -0.0439  0.0876 -0.0488
18604TIP3    H177303   3.785   2.622   2.357 -0.4632  0.6664  1.1128
18604TIP3    H277304   3.866   2.747   2.381 -0.9841  1.1797  0.2333
18605TIP3   OH277305   2.178   1.488  13.052 -0.3338  0.2842 -0.2142
18605TIP3    H177306   2.256   1.433  13.054 -1.7928 -1.8820 -0.1718
18605TIP3    H277307   2.211   1.577  13.051  2.1281 -0.5757  0.1890
18606TIP3   OH277308   5.008   2.817  14.142  0.2823 -0.5933 -0.6980
18606TIP3    H177309   5.029   2.898  14.096 -0.9030 -0.2271 -0.6219
18606TIP3    H277310   4.961   2.846  14.220 -0.5734 -1.3632 -0.9164
18607TIP3   OH277311   1.729   2.790  13.795 -0.1722  0.0986 -0.1743
18607TIP3    H177312   1.667   2.801  13.723  1.3469  2.3124 -1.1995
18607TIP3    H277313   1.815   2.802  13.754  1.1617 -4.7178  0.8196
18608TIP3   OH277314   0.338   1.904  13.085 -0.0384  0.2037  0.5158
18608TIP3    H177315   0.275   1.848  13.039 -1.1704  1.2509  0.7573
18608TIP3    H277316   0.416   1.850  13.094 -0.7353 -0.9515 -0.2327
18609TIP3   OH277317   1.685   1.920  13.926  0.3012  0.1265 -0.5832
18609TIP3    H177318   1.616   1.981  13.952  0.1427  0.4162 -1.6723
18609TIP3    H277319   1.638   1.841  13.900  0.4902 -0.3593  0.5353
18610TIP3   OH277320   5.480   6.074  11.065 -0.0058  0.2358 -0.9962
18610TIP3    H177321   5.484   6.168  11.087  1.2582  0.1991 -1.0064
18610TIP3    H277322   5.396   6.063  11.021  0.1617  1.5230 -1.6618
18611TIP3   OH277323   4.723   6.653   1.585  0.5978 -0.1430 -0.0765
18611TIP3    H177324   4.755   6.578   1.535 -0.4500 -0.0847 -0.8584
18611TIP3    H277325   4.730   6.727   1.525 -0.8838 -0.1163 -0.2304
18612TIP3   OH277326   2.517   5.765  12.711 -0.7393 -0.4950  0.4628
18612TIP3    H177327   2.608   5.736  12.722 -0.6356 -0.5452 -0.4875
18612TIP3    H277328   2.521   5.861  12.720 -0.4152 -0.3930 -0.6113
18613TIP3   OH277329   0.313   0.508  12.890 -0.3265  0.8564 -0.4622
18613TIP3    H177330   0.388   0.449  12.890 -0.0207  1.1656  2.3566
18613TIP3    H277331   0.239   0.453  12.863 -0.1515 -0.9984  2.6143
18614TIP3   OH277332   2.959   1.870  12.736  0.3732  0.1532  0.1806
18614TIP3    H177333   2.933   1.821  12.658  1.1644 -0.8686  0.5534
18614TIP3    H277334   2.935   1.813  12.810 -0.1548  1.0124  0.6807
18615TIP3   OH277335   2.455   2.150   6.202  0.1744 -0.3691 -0.3062
18615TIP3    H177336   2.451   2.102   6.285  0.8821 -0.1154 -0.1184
18615TIP3    H277337   2.449   2.242   6.228 -1.3918 -0.3499 -0.6807
18616TIP3   OH277338   2.948   0.943   5.346  0.1231  0.4759  0.0206
18616TIP3    H177339   3.024   0.886   5.362  0.9637  1.4996 -0.2179
18616TIP3    H277340   2.987   1.029   5.327 -1.1338  1.2142  0.7312
18617TIP3   OH277341   5.254   4.387   0.778  0.0273  0.0465 -0.3245
18617TIP3    H177342   5.314   4.439   0.832 -0.3185  0.2413 -0.1326
18617TIP3    H277343   5.172   4.435   0.780 -0.1377 -0.2260 -0.5905
18618TIP3   OH277344   3.855   4.130  14.232  0.0136 -0.9998 -0.0332
18618TIP3    H177345   3.937   4.178  14.217  0.1572 -0.9292  0.9609
18618TIP3    H277346   3.837   4.142  14.325 -0.8626 -1.4415 -0.1440
18619TIP3   OH277347   3.902   4.115   0.421  0.0151  0.3795  0.1050
18619TIP3    H177348   3.915   4.076   0.508  1.2590 -0.7504 -0.5648
18619TIP3    H277349   3.990   4.120   0.385 -0.3869  1.8237 -0.6886
18620TIP3   OH277350   4.120   5.232  16.203  0.0722 -1.1116 -0.1787
18620TIP3    H177351   4.029   5.226  16.231  0.0318  1.4022  0.4086
18620TIP3    H277352   4.128   5.170  16.130 -2.1238 -1.2462 -0.3309
18621TIP3   OH277353   0.395   5.417  11.423  0.3668  0.0791  0.7808
18621TIP3    H177354   0.450   5.445  11.350 -0.2796 -3.3200 -1.0900
18621TIP3    H277355   0.448   5.352  11.470 -0.2569  0.2577  1.7434
18622TIP3   OH277356   3.774   1.674   6.316 -0.1398  0.0260 -0.3576
18622TIP3    H177357   3.823   1.603   6.357 -1.8595 -0.0726  1.5664
18622TIP3    H277358   3.688   1.637   6.296 -0.0799  0.7270 -2.0585
18623TIP3   OH277359   5.156   1.256   4.777  0.9485  0.6662 -0.3996
18623TIP3    H177360   5.186   1.233   4.688  0.5039 -1.0029 -0.1325
18623TIP3    H277361   5.178   1.179   4.830 -2.2022  0.1061  0.1676
18624TIP3   OH277362   3.213   0.388   1.107  0.1547 -0.1504 -0.0678
18624TIP3    H177363   3.280   0.324   1.084 -0.4353 -0.4206 -1.0513
18624TIP3    H277364   3.200   0.440   1.028  1.3514  1.8679  1.0086
18625TIP3   OH277365   0.747   3.969   3.985 -0.0613  0.5204  0.0268
18625TIP3    H177366   0.670   4.025   3.982 -0.8101 -0.5164 -0.5315
18625TIP3    H277367   0.809   4.015   4.041  0.3319  3.1341 -2.4275
18626TIP3   OH277368   1.030   3.912   6.626  0.5967 -0.2553  0.3836
18626TIP3    H177369   1.013   3.823   6.656  0.7232 -0.4957 -0.2504
18626TIP3    H277370   0.952   3.962   6.652  1.8721  0.1865  3.6334
18627TIP3   OH277371   2.324   1.405  12.767  0.7530 -0.1973 -0.4967
18627TIP3    H177372   2.359   1.465  12.833  0.1534 -0.6712  0.2647
18627TIP3    H277373   2.384   1.330  12.770 -0.4522 -1.1436  1.0255
18628TIP3   OH277374   5.575   5.399   3.256  0.2495  0.3911  0.2060
18628TIP3    H177375   5.655   5.449   3.241 -1.1167  3.1390  1.7603
18628TIP3    H277376   5.575   5.381   3.350  0.3502 -1.9669 -0.2139
18629TIP3   OH277377   4.495   3.595   5.057 -0.7565 -0.2555  0.2280
18629TIP3    H177378   4.471   3.621   5.146 -0.3570 -0.3656  0.3698
18629TIP3    H277379   4.583   3.557   5.066 -0.5677  0.0641 -0.2708
18630TIP3   OH277380   2.797   0.046   5.667  0.7517 -0.1614 -0.1245
18630TIP3    H177381   2.752  -0.009   5.732  0.2202  2.2444  1.6113
18630TIP3    H277382   2.728   0.103   5.633  1.8644  1.3874  0.2028
18631TIP3   OH277383   1.866   0.188  15.601  0.0155 -0.2183 -0.0111
18631TIP3    H177384   1.797   0.251  15.623 -0.3693 -0.7257  0.2621
18631TIP3    H277385   1.930   0.238  15.551 -1.0452  0.0423 -1.1317
18632TIP3   OH277386   1.956   5.166   5.365  0.2778  0.3872 -0.1725
18632TIP3    H177387   2.018   5.117   5.419  0.5371  0.5833 -0.2922
18632TIP3    H277388   1.946   5.250   5.411  0.6136  0.6112 -0.5044
18633TIP3   OH277389   2.100   2.530  15.286 -0.2306  0.1478  0.1230
18633TIP3    H177390   2.019   2.557  15.329 -0.8281  0.7261 -1.3421
18633TIP3    H277391   2.084   2.440  15.256  0.1533 -0.2217  1.0062
18634TIP3   OH277392   6.331   5.859   1.986  0.3774  0.7040 -0.2057
18634TIP3    H177393   6.391   5.865   2.060 -1.4548  0.5118  1.3480
18634TIP3    H277394   6.251   5.901   2.017 -1.1952 -1.4198 -1.2184
18635TIP3   OH277395   0.626   3.262  15.358 -0.2627  0.0434 -0.0961
18635TIP3    H177396   0.634   3.168  15.344 -0.0167 -0.1044  0.9816
18635TIP3    H277397   0.701   3.300  15.311  0.0150 -0.3590  0.0192
18636TIP3   OH277398   5.777   5.481  13.691  0.2150  0.5223  0.1369
18636TIP3    H177399   5.869   5.467  13.714  0.4543  1.1445 -0.4127
18636TIP3    H277400   5.769   5.576  13.682 -0.0953  0.3522 -1.4365
18637TIP3   OH277401   5.085   3.632   5.045  0.5685 -0.2766 -0.0186
18637TIP3    H177402   5.042   3.713   5.018 -0.4148 -0.4312  1.0063
18637TIP3    H277403   5.036   3.563   5.000  0.0608 -0.4177  0.7252
18638TIP3   OH277404   0.675   0.880  11.592 -0.4295 -0.2137 -0.0803
18638TIP3    H177405   0.767   0.857  11.594 -0.5943 -0.8049  1.0763
18638TIP3    H277406   0.674   0.976  11.589  0.2236 -0.1635  0.9949
18639TIP3   OH277407   1.230   1.816   4.274 -0.0263  0.3235  0.5015
18639TIP3    H177408   1.141   1.851   4.266  0.1503  1.2486  2.4852
18639TIP3    H277409   1.255   1.833   4.364  2.2761  0.2830 -0.1018
18640TIP3   OH277410   5.825   2.171   3.176  0.4717  0.1272 -0.5025
18640TIP3    H177411   5.756   2.130   3.229 -0.2822  1.9159 -0.0582
18640TIP3    H277412   5.783   2.186   3.091  0.2068  1.4482 -0.1542
18641TIP3   OH277413   1.217   5.764   6.695  0.8218  0.4500 -0.3872
18641TIP3    H177414   1.148   5.812   6.741  0.7157  0.3659 -0.4590
18641TIP3    H277415   1.202   5.672   6.718  0.5893  0.3782 -0.8249
18642TIP3   OH277416   5.413   6.160   3.005  0.3317  0.1265  0.1856
18642TIP3    H177417   5.375   6.088   3.055 -1.8789  0.7807 -0.5135
18642TIP3    H277418   5.345   6.187   2.944  1.1601  2.7059  0.3206
18643TIP3   OH277419   1.338   2.910   2.276  0.4249  0.1324 -0.1533
18643TIP3    H177420   1.385   2.994   2.278 -0.2620  0.5280 -0.4229
18643TIP3    H277421   1.278   2.916   2.350  0.3218 -0.0936 -0.2221
18644TIP3   OH277422   2.018   4.214   1.437 -0.4425 -0.2348  0.2794
18644TIP3    H177423   1.996   4.195   1.345  3.5770 -1.4360 -0.5331
18644TIP3    H277424   2.002   4.132   1.483 -0.5420 -0.2334  0.2476
18645TIP3   OH277425   1.681   4.055  12.023 -0.2733 -0.1625 -0.6463
18645TIP3    H177426   1.744   4.056  12.096 -2.3177 -0.7725  1.1978
18645TIP3    H277427   1.721   3.998  11.958  1.1296 -0.4770  0.4449
18646TIP3   OH277428   6.123   2.815  13.022  0.1651  0.2176 -0.2192
18646TIP3    H177429   6.167   2.730  13.023 -0.0643  0.0917 -0.5854
18646TIP3    H277430   6.168   2.864  12.953  1.9305  1.2764  1.6580
18647TIP3   OH277431   3.619   5.456  11.787  0.0414  0.3617 -0.5531
18647TIP3    H177432   3.672   5.451  11.867 -0.5256  0.4862 -0.1689
18647TIP3    H277433   3.551   5.390  11.799  0.2177  0.0763 -1.1275
18648TIP3   OH277434   0.663   4.901  12.128 -0.6226 -0.4080  0.0080
18648TIP3    H177435   0.719   4.917  12.053  1.8124  0.4119  1.9117
18648TIP3    H277436   0.584   4.860  12.092 -0.0778  1.1597 -3.0890
18649TIP3   OH277437   4.773   4.489  11.040  0.6002  0.2803 -0.4721
18649TIP3    H177438   4.731   4.562  11.085 -1.3053 -0.8637 -0.3356
18649TIP3    H277439   4.805   4.433  11.111 -1.4535 -0.9814 -0.5010
18650TIP3   OH277440   0.392   4.235   4.715 -0.4916  0.0229  0.1121
18650TIP3    H177441   0.455   4.307   4.717  0.9479 -1.0353 -2.7387
18650TIP3    H277442   0.308   4.277   4.697  0.2774  1.0354 -1.2078
18651TIP3   OH277443   6.706   6.248  13.318 -0.3189  0.0188 -0.4833
18651TIP3    H177444   6.720   6.331  13.273  0.2862  0.4788  0.5302
18651TIP3    H277445   6.787   6.233  13.367 -2.2652  1.4017  3.4049
18652TIP3   OH277446   3.825   5.279   3.258  0.2379  0.4464  0.1955
18652TIP3    H177447   3.838   5.230   3.177  1.7048  0.1263  0.6099
18652TIP3    H277448   3.745   5.331   3.243 -0.3694 -0.7761 -0.8710
18653TIP3   OH277449   1.631   2.637  16.255  0.1313 -0.6578  0.6722
18653TIP3    H177450   1.656   2.642  16.163  0.4221 -0.0873  0.7788
18653TIP3    H277451   1.680   2.562  16.288  0.3865 -0.5803  0.4734
18654TIP3   OH277452   5.761   0.589  15.204 -0.0322  0.0568  0.2927
18654TIP3    H177453   5.812   0.522  15.158 -1.1768  0.5667 -1.7828
18654TIP3    H277454   5.719   0.543  15.276 -3.6291 -2.2984 -3.1210
18655TIP3   OH277455   5.920   3.199  14.317  0.2616  0.6052  0.3640
18655TIP3    H177456   5.850   3.210  14.381  0.6387  0.7737  0.7436
18655TIP3    H277457   5.998   3.234  14.359  0.2930  1.7496 -0.5994
18656TIP3   OH277458   1.007   2.167  17.262  0.4487 -0.0511 -0.1102
18656TIP3    H177459   0.935   2.186  17.323 -0.5639 -2.9148 -0.3404
18656TIP3    H277460   1.084   2.162  17.318 -0.0890 -0.3380  0.6193
18657TIP3   OH277461   0.050   6.552   0.412 -0.1675  0.3933  0.6048
18657TIP3    H177462  -0.031   6.515   0.375 -1.1671  1.4925  1.6303
18657TIP3    H277463   0.102   6.576   0.336 -0.2010 -1.6019 -0.0758
18658TIP3   OH277464   1.698   5.980   4.820 -0.0594 -0.3225  0.7147
18658TIP3    H177465   1.781   6.014   4.852 -0.0783  0.6374 -0.2266
18658TIP3    H277466   1.672   6.041   4.751 -1.1205 -1.0932  0.4184
18659TIP3   OH277467   2.294   1.408   1.030 -0.1425 -0.9302 -0.6204
18659TIP3    H177468   2.290   1.331   0.973  2.6516 -1.3403 -0.3271
18659TIP3    H277469   2.228   1.391   1.097 -1.3323 -1.8681 -1.9944
18660TIP3   OH277470   4.343   0.086  16.706 -0.3625 -0.0851  0.5955
18660TIP3    H177471   4.404   0.144  16.660 -0.3093 -0.0304  0.7363
18660TIP3    H277472   4.265   0.140  16.721 -1.0321 -0.5978 -0.9279
18661TIP3   OH277473   5.098   1.117   3.791  0.2701  0.7121 -0.5730
18661TIP3    H177474   5.124   1.038   3.838  0.8651  1.6813  0.7400
18661TIP3    H277475   5.166   1.181   3.811 -0.5495  1.7658 -1.1022
18662TIP3   OH277476   2.776   4.714   0.467  0.0614 -0.2225  0.0887
18662TIP3    H177477   2.773   4.702   0.372 -0.7119 -1.2287  0.2312
18662TIP3    H277478   2.740   4.633   0.503 -0.7484  0.6058  1.2116
18663TIP3   OH277479   0.407   3.002  16.074  0.6684  0.5267 -0.3697
18663TIP3    H177480   0.416   2.966  16.163  0.9239  0.3286 -0.4768
18663TIP3    H277481   0.491   2.983  16.032  0.6620  0.9065 -0.5500
18664TIP3   OH277482   5.411   5.398  14.053 -0.3606 -0.2702 -0.1540
18664TIP3    H177483   5.349   5.414  14.124  1.5727  0.7809  1.3398
18664TIP3    H277484   5.415   5.302  14.046  0.7193 -0.4514  2.3542
18665TIP3   OH277485   1.426   0.639  13.127 -0.7410  0.3234  0.5463
18665TIP3    H177486   1.454   0.715  13.178 -0.9255  1.1176 -0.5064
18665TIP3    H277487   1.506   0.609  13.083 -0.9409  0.7696 -0.1303
18666TIP3   OH277488   6.331   1.571  10.697  0.3020 -0.4851 -0.5540
18666TIP3    H177489   6.298   1.658  10.674 -1.3774 -1.2119 -0.9086
18666TIP3    H277490   6.281   1.511  10.643  0.9766 -1.7377  0.1901
18667TIP3   OH277491   4.004   0.278  11.263  0.2697 -0.4874  0.0683
18667TIP3    H177492   3.980   0.334  11.189  0.5995  0.8270  0.9303
18667TIP3    H277493   4.032   0.196  11.224 -1.0917 -0.3792 -1.1915
18668TIP3   OH277494   0.478   3.955  13.463 -0.1095  0.0389 -0.4206
18668TIP3    H177495   0.503   3.874  13.419  0.2780 -0.2968  0.4005
18668TIP3    H277496   0.486   3.935  13.556  1.2243  1.3908 -0.2189
18669TIP3   OH277497   6.047   6.283  13.058  0.0123  0.4225  0.3423
18669TIP3    H177498   6.041   6.341  12.983 -1.3334 -0.5046 -0.2781
18669TIP3    H277499   6.130   6.237  13.047 -0.0187  0.5464 -0.3844
18670TIP3   OH277500   3.448   0.396  10.703 -0.3156  0.5752  0.4336
18670TIP3    H177501   3.468   0.446  10.624 -0.8440  1.0585  0.5930
18670TIP3    H277502   3.352   0.403  10.712 -0.6622 -2.2519 -0.7027
18671TIP3   OH277503   6.562   5.204   3.300 -0.7270 -0.1445 -0.0116
18671TIP3    H177504   6.554   5.291   3.340 -0.5464 -0.7556  1.3656
18671TIP3    H277505   6.500   5.149   3.347 -0.2248 -0.9687 -0.2899
18672TIP3   OH277506   6.784   4.869   4.662  0.1832 -0.7492 -0.0931
18672TIP3    H177507   6.806   4.832   4.576 -0.2232  0.4461 -0.7085
18672TIP3    H277508   6.692   4.845   4.675 -0.2696  0.5440 -0.7734
18673TIP3   OH277509   0.174   2.607  12.532 -0.3515  0.1423 -1.0972
18673TIP3    H177510   0.159   2.590  12.439 -0.2338  0.5618 -1.1922
18673TIP3    H277511   0.138   2.694  12.547 -2.2895 -0.7611 -0.2902
18674TIP3   OH277512   0.482   1.636  13.732  0.6215 -0.6575  0.2884
18674TIP3    H177513   0.526   1.720  13.749  1.1549 -0.5847 -1.3920
18674TIP3    H277514   0.553   1.572  13.728  0.4544 -0.7837 -0.9061
18675TIP3   OH277515   4.441   2.596   3.247 -0.0894  0.4223 -0.0096
18675TIP3    H177516   4.487   2.628   3.169  0.4187  0.3782  0.2659
18675TIP3    H277517   4.427   2.503   3.230  0.3976  0.3211  0.1270
18676TIP3   OH277518   3.783   4.350   0.477  0.0956 -0.0149 -0.1599
18676TIP3    H177519   3.825   4.267   0.453  1.4801 -0.1589  2.5150
18676TIP3    H277520   3.694   4.326   0.502  0.1520 -0.5380 -0.4637
18677TIP3   OH277521   0.181   3.376  10.573 -0.5348 -0.4541  0.5160
18677TIP3    H177522   0.189   3.283  10.597 -1.0283 -1.0641 -1.5917
18677TIP3    H277523   0.133   3.376  10.490 -1.9927  1.7988  1.3148
18678TIP3   OH277524   2.001   1.858  12.903  0.0759 -0.0433  0.1391
18678TIP3    H177525   2.010   1.930  12.966 -0.2151  1.6270 -1.6625
18678TIP3    H277526   1.964   1.786  12.953 -0.4318  1.3449  1.7985
18679TIP3   OH277527   5.484   4.821   1.930  0.0624  0.1362  0.3127
18679TIP3    H177528   5.470   4.909   1.897 -1.1481 -0.2452 -0.2283
18679TIP3    H277529   5.407   4.802   1.983 -0.3113 -1.0644 -0.6217
18680TIP3   OH277530   6.212   3.358   5.993 -0.1555  0.1549 -0.1091
18680TIP3    H177531   6.223   3.311   6.076 -1.5180 -0.8991 -0.5103
18680TIP3    H277532   6.175   3.293   5.933 -0.0745  1.1694 -1.2862
18681TIP3   OH277533   1.466   2.393  15.437 -0.0791  0.3268  0.3558
18681TIP3    H177534   1.525   2.468  15.448 -1.3913  1.3890  0.3147
18681TIP3    H277535   1.459   2.381  15.342 -0.2463  0.4574  0.3528
18682TIP3   OH277536   5.286   2.990  11.590 -1.0089  0.0071 -0.0162
18682TIP3    H177537   5.340   3.039  11.528 -0.0039 -1.5826 -0.4160
18682TIP3    H277538   5.293   3.039  11.672 -0.2335  0.6712 -0.4671
18683TIP3   OH277539   3.492   3.404  14.704  0.2487  0.7540  0.3457
18683TIP3    H177540   3.525   3.445  14.784  0.0334  1.7779 -0.0790
18683TIP3    H277541   3.533   3.454  14.633  0.4803 -0.1787 -0.1935
18684TIP3   OH277542   1.843   4.094  16.051  0.2258 -0.2000 -0.1480
18684TIP3    H177543   1.839   4.066  15.960 -1.8323 -0.1927 -0.0897
18684TIP3    H277544   1.902   4.169  16.050  0.9649 -0.7733 -1.3085
18685TIP3   OH277545   4.810   6.574   3.211 -0.3115 -0.5670  0.6642
18685TIP3    H177546   4.871   6.510   3.250  0.4313 -0.5312 -0.4215
18685TIP3    H277547   4.818   6.560   3.117 -2.0270 -0.5751  0.5149
18686TIP3   OH277548   3.873   1.906   0.505  0.4103  0.0008 -0.2498
18686TIP3    H177549   3.900   1.992   0.536  0.4736  0.1729 -0.7709
18686TIP3    H277550   3.889   1.848   0.579  1.3883  0.2560 -0.2565
18687TIP3   OH277551   2.278   4.030  12.740  0.0122 -0.5637  0.2131
18687TIP3    H177552   2.339   3.987  12.799 -0.2996 -1.3208 -0.0052
18687TIP3    H277553   2.304   4.122  12.741 -0.1709 -0.5194  1.7303
18688TIP3   OH277554   3.181   2.278   5.562  0.4246 -0.8669  0.7892
18688TIP3    H177555   3.136   2.309   5.641  1.7494  1.2987  0.7298
18688TIP3    H277556   3.160   2.342   5.495  0.5364 -1.8897 -0.2309
18689TIP3   OH277557   2.251   1.290  16.830  0.3944  0.5016 -0.1883
18689TIP3    H177558   2.207   1.220  16.782 -1.3554  0.1730  1.8415
18689TIP3    H277559   2.229   1.275  16.922  1.2500  2.8149  0.4502
18690TIP3   OH277560   5.270   6.076   3.593  0.5926 -0.4433 -0.5895
18690TIP3    H177561   5.275   6.098   3.686  0.4344  1.2136 -0.9517
18690TIP3    H277562   5.355   6.101   3.557  0.4093 -0.4338 -1.0235
18691TIP3   OH277563   1.929   5.200  14.640  0.7289 -0.4580 -0.0154
18691TIP3    H177564   1.927   5.277  14.697  1.6911  0.0846 -0.7141
18691TIP3    H277565   1.902   5.128  14.697 -1.5384  0.5999  0.3000
18692TIP3   OH277566   1.852   4.126  15.097 -0.1355 -0.1145 -0.9261
18692TIP3    H177567   1.798   4.199  15.129  0.9487 -0.0778  0.8931
18692TIP3    H277568   1.791   4.053  15.091 -0.4606 -0.0362  0.9834
18693TIP3   OH277569   3.339   3.264   5.758  0.4642 -0.3022 -0.0218
18693TIP3    H177570   3.433   3.282   5.763  0.1436  2.2006 -2.0177
18693TIP3    H277571   3.323   3.247   5.665 -1.4740  1.9254 -0.1248
18694TIP3   OH277572   5.282   6.374  17.287 -0.0720  0.8631 -0.1743
18694TIP3    H177573   5.211   6.327  17.331 -0.2869  1.6551  0.3529
18694TIP3    H277574   5.337   6.306  17.249 -0.0132  0.1621  1.1481
18695TIP3   OH277575   4.582   1.682  11.720  0.3582 -0.5658 -0.0610
18695TIP3    H177576   4.607   1.634  11.799 -0.5664 -0.8533  0.0651
18695TIP3    H277577   4.633   1.763  11.724  1.5097 -1.2829  0.0100
18696TIP3   OH277578   6.352   3.957  16.714 -0.5740  0.8461 -0.3461
18696TIP3    H177579   6.346   3.880  16.658 -0.8481 -1.6620  2.9382
18696TIP3    H277580   6.444   3.983  16.710 -0.3468 -0.0236 -1.0073
18697TIP3   OH277581   2.760   0.407   5.082  0.1399  0.1030 -0.5281
18697TIP3    H177582   2.738   0.350   5.155 -0.5757 -0.4066 -1.1298
18697TIP3    H277583   2.724   0.493   5.106 -2.6515 -0.7299 -1.5327
18698TIP3   OH277584   2.907   0.667   3.474 -0.3306 -0.0853 -0.0199
18698TIP3    H177585   2.828   0.634   3.432  0.6142 -1.0397 -1.0821
18698TIP3    H277586   2.948   0.589   3.512 -0.2758  0.5138  1.1722
18699TIP3   OH277587   6.759   0.357   5.298 -0.1140  0.4899 -0.0625
18699TIP3    H177588   6.813   0.313   5.364 -2.1544 -0.5041  0.9830
18699TIP3    H277589   6.701   0.414   5.348 -1.4979 -0.0695 -1.0063
18700TIP3   OH277590   1.688   0.884   2.777 -0.1975  0.3675  0.7298
18700TIP3    H177591   1.726   0.971   2.767  0.6192 -0.0635 -0.0100
18700TIP3    H277592   1.598   0.900   2.804 -0.1555  1.4442  0.2603
18701TIP3   OH277593   1.375   5.276   5.794 -0.0641  0.0399  0.2435
18701TIP3    H177594   1.406   5.186   5.781 -0.2346  0.0149  0.0085
18701TIP3    H277595   1.311   5.269   5.865 -1.9886 -0.4396 -1.4875
18702TIP3   OH277596   6.726   6.100  14.101  0.1206  0.8534 -0.2485
18702TIP3    H177597   6.647   6.125  14.149  1.2064  1.6328  1.1680
18702TIP3    H277598   6.755   6.019  14.144  0.4532  0.9340 -0.3215
18703TIP3   OH277599   2.772   6.328  16.138  0.3809 -0.5866  0.2984
18703TIP3    H177600   2.774   6.286  16.224  1.0999 -0.2909  0.4262
18703TIP3    H277601   2.848   6.292  16.092 -0.6616 -1.6302 -0.6355
18704TIP3   OH277602   1.498   2.392  16.086  0.3092 -0.0878  0.1624
18704TIP3    H177603   1.405   2.387  16.064  0.8297 -0.2753 -2.1993
18704TIP3    H277604   1.528   2.301  16.084  0.6140  0.0060  0.5337
18705TIP3   OH277605   2.980   2.222  14.639 -0.0318  0.7595  0.0050
18705TIP3    H177606   2.905   2.185  14.684 -0.1192  1.2440  0.2639
18705TIP3    H277607   2.943   2.293  14.585 -0.0706 -0.4394 -1.5806
18706TIP3   OH277608   3.325   6.280   1.003  0.3682  0.4826  0.2053
18706TIP3    H177609   3.351   6.229   0.926  1.1976 -0.1125  0.8675
18706TIP3    H277610   3.243   6.240   1.032 -0.4066  1.2678 -0.8808
18707TIP3   OH277611   2.466   2.982   0.594  0.6252 -0.1048  0.0030
18707TIP3    H177612   2.554   2.954   0.619  0.4849  0.1513  0.7962
18707TIP3    H277613   2.449   3.060   0.648  0.6154  0.9093 -1.4411
18708TIP3   OH277614   4.543   6.160   2.489 -0.3142  0.0656 -0.2216
18708TIP3    H177615   4.624   6.166   2.437  0.3543  0.0678  0.8134
18708TIP3    H277616   4.571   6.127   2.574 -1.3529  0.4460  0.2775
18709TIP3   OH277617   4.405   0.181  14.443 -0.1551 -0.0499  0.3909
18709TIP3    H177618   4.361   0.237  14.379 -1.0180 -0.4042  0.6661
18709TIP3    H277619   4.485   0.153  14.399 -0.8906 -0.5351 -0.6506
18710TIP3   OH277620   4.806   5.657  12.578 -0.0198  0.2889 -0.1891
18710TIP3    H177621   4.836   5.580  12.529 -2.0141 -0.1285 -0.8175
18710TIP3    H277622   4.737   5.624  12.635  0.0624  1.3638  0.5418
18711TIP3   OH277623   1.128   5.207  16.100 -0.0800  0.1988  0.2587
18711TIP3    H177624   1.126   5.257  16.182  1.6408  0.8280 -0.0649
18711TIP3    H277625   1.211   5.231  16.060 -1.1178  0.2436 -1.9056
18712TIP3   OH277626   2.172   1.775   6.206  0.2006 -0.8993  0.1317
18712TIP3    H177627   2.192   1.686   6.179  1.1083 -0.3862 -0.9659
18712TIP3    H277628   2.212   1.785   6.292 -0.3863 -1.7163  0.4999
18713TIP3   OH277629   2.340   0.191  11.943 -0.2049  0.5403 -0.1630
18713TIP3    H177630   2.397   0.205  11.868  0.4420  1.3567  0.4763
18713TIP3    H277631   2.399   0.176  12.016 -0.8343 -0.6532  0.1258
18714TIP3   OH277632   3.469   1.223   1.231 -0.0140  0.0523 -0.2760
18714TIP3    H177633   3.534   1.242   1.163  0.9348 -0.6936  0.4143
18714TIP3    H277634   3.412   1.300   1.231  0.7249  0.6114 -1.0523
18715TIP3   OH277635   1.919   1.013   5.540 -0.3398 -0.4811 -0.0946
18715TIP3    H177636   1.885   0.924   5.531 -2.4114  0.1449  1.1618
18715TIP3    H277637   1.845   1.063   5.574  1.1126  1.5061  0.2084
18716TIP3   OH277638   0.710   1.535   4.592 -0.1284 -0.3309 -0.1050
18716TIP3    H177639   0.725   1.607   4.653  2.3123 -1.8021  1.0993
18716TIP3    H277640   0.795   1.491   4.584 -0.9406 -1.5008 -2.8644
18717TIP3   OH277641   6.006   3.728  14.353 -0.3889  0.3894  0.9492
18717TIP3    H177642   5.979   3.796  14.291 -1.0604 -0.7440 -0.0324
18717TIP3    H277643   6.033   3.654  14.298 -0.0837 -0.2916  1.9936
18718TIP3   OH277644   5.051   0.678  13.352  0.3829 -0.2898 -0.0632
18718TIP3    H177645   5.028   0.745  13.288  1.1734 -0.3743 -0.4368
18718TIP3    H277646   4.973   0.669  13.406  0.5414  1.5192  0.5122
18719TIP3   OH277647   2.448   1.046   4.930  0.0838  0.4393  0.5132
18719TIP3    H177648   2.449   0.958   4.968 -0.2396  0.5172  0.7122
18719TIP3    H277649   2.455   1.032   4.836 -0.5297  0.1709  0.5038
18720TIP3   OH277650   1.514   5.919  11.082 -0.1832 -0.1017  0.4543
18720TIP3    H177651   1.477   5.971  11.011 -0.5900 -1.1082 -0.0820
18720TIP3    H277652   1.583   5.974  11.119 -1.6993  1.5042  0.9817
18721TIP3   OH277653   5.793   0.288   6.574 -0.1503 -0.5397 -0.4969
18721TIP3    H177654   5.742   0.341   6.513 -0.7392 -0.1107  0.3591
18721TIP3    H277655   5.730   0.260   6.640  0.4380 -1.1647 -0.1893
18722TIP3   OH277656   3.170   2.939   2.859  0.2306 -0.0144  0.0236
18722TIP3    H177657   3.182   2.887   2.938  0.7314  1.1138  0.6984
18722TIP3    H277658   3.247   2.996   2.855  0.5524 -0.5175 -1.6376
18723TIP3   OH277659   4.074   2.204   5.519 -0.1764 -0.3003  0.0336
18723TIP3    H177660   4.117   2.188   5.603  0.9025 -0.2500 -0.4971
18723TIP3    H277661   4.092   2.296   5.500  0.3261 -0.5435 -0.6667
18724TIP3   OH277662   1.059   1.762  15.951  0.3791 -0.1260  0.2663
18724TIP3    H177663   1.003   1.685  15.948 -0.6469  0.5073  2.1303
18724TIP3    H277664   1.145   1.731  15.923 -0.2632 -1.7041  0.0083
18725TIP3   OH277665   5.233   0.361   5.805  0.0112  0.0390  0.1823
18725TIP3    H177666   5.184   0.401   5.877  0.6625 -0.2530  0.8066
18725TIP3    H277667   5.166   0.324   5.748 -0.4740 -1.5584  1.7291
18726TIP3   OH277668   2.896   0.811   4.178  0.2359 -0.6161 -0.2744
18726TIP3    H177669   2.979   0.765   4.164 -0.9407 -2.7828 -0.3536
18726TIP3    H277670   2.904   0.851   4.264  1.9335  0.4618 -0.9197
18727TIP3   OH277671   4.429   2.198  10.719  0.0606 -0.0551  0.3941
18727TIP3    H177672   4.471   2.122  10.759 -0.1754 -0.2113  0.3449
18727TIP3    H277673   4.433   2.181  10.625  1.1989  0.6122  0.3049
18728TIP3   OH277674   5.761   6.018  14.633 -0.0507  0.1950 -0.5669
18728TIP3    H177675   5.763   6.076  14.556  0.5244  0.0327 -0.6786
18728TIP3    H277676   5.841   5.965  14.625  0.2234  0.4551  0.3578
18729TIP3   OH277677   5.616   6.443  13.415 -1.1609 -0.0933  0.2875
18729TIP3    H177678   5.646   6.503  13.483 -1.3232  0.3190 -0.0045
18729TIP3    H277679   5.697   6.405  13.379 -1.0437  0.2005  0.2431
18730TIP3   OH277680   5.825   6.132   4.786  0.0735  0.0713  0.1552
18730TIP3    H177681   5.797   6.073   4.716  0.5084 -0.1533  0.1720
18730TIP3    H277682   5.917   6.110   4.801 -0.3526 -0.7449  1.6684
18731TIP3   OH277683   2.110   2.403  14.807 -0.2513  0.1580 -0.3977
18731TIP3    H177684   2.199   2.424  14.780 -0.7010 -0.7108 -2.6364
18731TIP3    H277685   2.060   2.483  14.789  0.2259  0.9984  1.8026
18732TIP3   OH277686   4.253   1.265   1.612 -0.6940  0.0257  0.2251
18732TIP3    H177687   4.330   1.208   1.606 -0.7875 -0.0310 -0.5223
18732TIP3    H277688   4.186   1.219   1.562 -1.3847 -0.1897  1.3164
18733TIP3   OH277689   6.673   5.301   5.451 -0.2546  0.5467 -0.1477
18733TIP3    H177690   6.608   5.231   5.457  1.8313 -1.5331 -0.8618
18733TIP3    H277691   6.678   5.321   5.357  2.3088 -1.5075 -0.5101
18734TIP3   OH277692   5.066   3.008   1.337 -0.0373 -0.5726 -0.3414
18734TIP3    H177693   5.116   2.936   1.297  0.5157 -0.5955  0.3895
18734TIP3    H277694   5.128   3.051   1.394 -0.9761 -0.8765  0.9308
18735TIP3   OH277695   2.073   1.468  11.401  0.2503 -0.5857 -0.1215
18735TIP3    H177696   2.113   1.415  11.332 -1.1592  0.1996 -1.5757
18735TIP3    H277697   2.006   1.519  11.356 -0.4933  0.1651  1.7892
18736TIP3   OH277698   3.788   2.565  11.665  0.1410  0.3565  0.0646
18736TIP3    H177699   3.744   2.521  11.738 -1.4369  0.9726 -0.5077
18736TIP3    H277700   3.797   2.656  11.693  1.8668  0.0449  0.5481
18737TIP3   OH277701   2.093   1.098  16.717 -0.2676 -0.6650 -0.1642
18737TIP3    H177702   2.048   1.042  16.654 -1.0371 -0.0785 -0.1430
18737TIP3    H277703   2.030   1.109  16.789 -0.3064  0.5780 -0.3671
18738TIP3   OH277704   2.726   3.330  13.735 -0.3415  0.2287  0.4130
18738TIP3    H177705   2.808   3.350  13.781 -0.9282  1.5701  0.8823
18738TIP3    H277706   2.663   3.394  13.769 -1.7740 -1.2483  0.5793
18739TIP3   OH277707   2.867   0.536  13.717 -0.1466  0.5567 -0.1205
18739TIP3    H177708   2.914   0.454  13.706 -1.9608 -0.4441 -0.6410
18739TIP3    H277709   2.899   0.592  13.646  1.1051  0.3148  0.2464
18740TIP3   OH277710   4.754   4.966  13.229  0.3567 -0.0993 -0.5300
18740TIP3    H177711   4.752   4.945  13.322  0.3226  0.4206 -0.4112
18740TIP3    H277712   4.693   4.903  13.189 -1.2014  0.9759  0.0733
18741TIP3   OH277713   3.153   0.061  15.656 -1.1111  0.1860  0.1961
18741TIP3    H177714   3.143  -0.023  15.610 -1.1955  0.9189 -1.1375
18741TIP3    H277715   3.134   0.127  15.590 -0.9025  1.2735  1.2075
18742TIP3   OH277716   4.876   1.327  17.149 -0.1717 -0.4444  0.4459
18742TIP3    H177717   4.970   1.309  17.154 -0.1172 -0.4699 -0.6012
18742TIP3    H277718   4.869   1.421  17.164  0.1805 -0.1525 -1.1401
18743TIP3   OH277719   6.283   6.717   4.504 -0.7256  0.4171 -0.2153
18743TIP3    H177720   6.194   6.732   4.472 -1.9049 -1.7337  1.8811
18743TIP3    H277721   6.284   6.754   4.592 -0.1515 -1.2168  0.4935
18744TIP3   OH277722   1.615   5.529   5.228 -0.4255 -0.4644 -0.9619
18744TIP3    H177723   1.646   5.450   5.185  1.1530 -0.3331 -0.0969
18744TIP3    H277724   1.671   5.599   5.193 -1.4258  0.1891 -1.2841
18745TIP3   OH277725   2.882   6.159  12.985 -0.1670 -0.1185  0.0714
18745TIP3    H177726   2.977   6.153  12.976 -0.0881 -0.2794  0.9591
18745TIP3    H277727   2.852   6.192  12.901  0.6232 -0.6497 -0.4213
18746TIP3   OH277728   0.144   5.636  11.049  0.0819 -0.3561  0.1049
18746TIP3    H177729   0.107   5.633  10.961  1.0363  0.0382 -0.3045
18746TIP3    H277730   0.222   5.690  11.042 -1.2072  1.8192  1.7113
18747TIP3   OH277731   0.775   0.064   1.880 -1.2410  0.0500  0.2619
18747TIP3    H177732   0.841   0.111   1.931  0.5942 -1.5182 -0.6310
18747TIP3    H277733   0.692   0.092   1.918 -0.0051  0.6329  2.6382
18748TIP3   OH277734   0.890   1.799   5.500 -0.1825 -0.4969  0.3588
18748TIP3    H177735   0.920   1.729   5.558 -0.3348 -1.0888 -0.2718
18748TIP3    H277736   0.960   1.864   5.503 -0.4803 -0.2369  1.6928
18749TIP3   OH277737   1.632   6.451   3.111 -0.0005 -0.1768 -0.3860
18749TIP3    H177738   1.700   6.404   3.064  1.9687  2.2304 -0.0293
18749TIP3    H277739   1.606   6.522   3.052 -0.3509  0.4757  0.5384
18750TIP3   OH277740   2.061   5.916  12.855 -0.0688  0.0559 -0.3484
18750TIP3    H177741   1.978   5.925  12.902  0.0863 -2.2380  0.4017
18750TIP3    H277742   2.128   5.932  12.921  0.1238  1.5042 -0.8669
18751TIP3   OH277743   0.780   4.094  12.724 -0.3440 -0.1292 -0.3005
18751TIP3    H177744   0.820   4.181  12.724  2.3162 -1.3084 -0.4384
18751TIP3    H277745   0.767   4.073  12.632 -2.6669  0.8232 -0.2265
18752TIP3   OH277746   5.906   5.832  15.647 -0.1915  0.5615  0.2662
18752TIP3    H177747   5.928   5.870  15.562  0.0800 -1.0227 -0.3989
18752TIP3    H277748   5.812   5.814  15.641 -0.1010  0.1061  0.1405
18753TIP3   OH277749   0.262   3.433  15.498 -0.1047  0.2297  0.6956
18753TIP3    H177750   0.270   3.338  15.508 -1.0582  0.2968  2.1553
18753TIP3    H277751   0.304   3.452  15.414 -2.0806 -1.8084 -0.8056
18754TIP3   OH277752   0.812   3.302  15.141  0.1344  0.6100 -0.9548
18754TIP3    H177753   0.892   3.252  15.155 -0.6410 -0.6160 -0.8372
18754TIP3    H277754   0.753   3.241  15.095 -0.7134  1.5036 -1.0712
18755TIP3   OH277755   3.634   2.769  11.990  0.0383 -0.3744 -0.6192
18755TIP3    H177756   3.639   2.745  12.083  1.4295 -0.0013 -0.6002
18755TIP3    H277757   3.573   2.843  11.988 -1.8711 -1.8770 -0.3132
18756TIP3   OH277758   1.388   4.373  14.269  0.3820  0.0426  0.1373
18756TIP3    H177759   1.299   4.392  14.299  0.9338 -1.2365  2.6976
18756TIP3    H277760   1.427   4.459  14.252 -1.5232  0.5929 -1.6910
18757TIP3   OH277761   3.603   4.518   5.557 -0.3773 -0.2254 -0.6401
18757TIP3    H177762   3.585   4.433   5.598  1.3978 -0.5010 -0.4097
18757TIP3    H277763   3.577   4.506   5.466 -1.6082 -0.5159 -0.2629
18758TIP3   OH277764   2.123   6.006  16.813 -0.1352  0.2155 -0.0528
18758TIP3    H177765   2.149   6.060  16.888  0.5747  3.4056 -2.5220
18758TIP3    H277766   2.199   6.006  16.755 -0.6624 -2.2540 -0.7899
18759TIP3   OH277767   1.673   5.461  13.512 -0.1184 -0.4286 -0.1075
18759TIP3    H177768   1.730   5.482  13.438  0.5442  0.8722  0.7583
18759TIP3    H277769   1.604   5.527  13.510  1.2831  1.1537  1.8813
18760TIP3   OH277770   5.152   5.922   1.906 -0.5080  0.5419 -0.0044
18760TIP3    H177771   5.180   5.830   1.912 -1.9773  0.0511 -0.4975
18760TIP3    H277772   5.198   5.965   1.978  0.2235 -0.5709  0.2232
18761TIP3   OH277773   3.885   1.627   3.568  0.6027  0.3381  0.5321
18761TIP3    H177774   3.899   1.716   3.536 -0.5155  0.6005  0.7559
18761TIP3    H277775   3.828   1.637   3.644  1.4156 -0.4759  1.2565
18762TIP3   OH277776   3.661   3.869  16.934 -0.1900  0.3844 -0.2953
18762TIP3    H177777   3.750   3.856  16.968  0.3050 -0.4029 -1.8504
18762TIP3    H277778   3.604   3.850  17.009  0.9741  2.1553  1.0650
18763TIP3   OH277779   5.909   4.379   4.992 -0.3363  0.2384  0.3443
18763TIP3    H177780   5.981   4.380   4.930  0.6642 -1.6966  1.4493
18763TIP3    H277781   5.922   4.458   5.045  0.4830  0.3380 -0.0046
18764TIP3   OH277782   6.720   5.690  16.940  0.4141  0.0677  0.6287
18764TIP3    H177783   6.786   5.621  16.946 -0.3423 -0.6908  0.2099
18764TIP3    H277784   6.731   5.727  16.853  1.1082  0.7830  1.0064
18765TIP3   OH277785   3.881   4.841   2.788  0.1245 -0.4735 -0.8201
18765TIP3    H177786   3.901   4.848   2.881 -0.9452  0.9409 -0.6839
18765TIP3    H277787   3.966   4.849   2.744  0.4527  0.3938 -0.0328
18766TIP3   OH277788   5.093   1.707  12.361 -0.5400 -0.3753  0.1770
18766TIP3    H177789   5.087   1.623  12.316 -0.4500 -0.2989  0.0228
18766TIP3    H277790   5.009   1.750  12.343 -0.2013 -0.0102 -0.5889
18767TIP3   OH277791   0.868   4.814  13.331  0.2703  0.2114  0.1646
18767TIP3    H177792   0.807   4.877  13.293  0.3422 -0.6313 -1.4093
18767TIP3    H277793   0.950   4.830  13.286  0.5336 -0.3906  0.4174
18768TIP3   OH277794   3.218   4.490  10.969 -0.0896 -0.3031  0.9355
18768TIP3    H177795   3.179   4.440  11.041 -0.2943  0.1986  1.1769
18768TIP3    H277796   3.307   4.455  10.961  0.3052  0.3808  2.1611
18769TIP3   OH277797   3.260   4.774  11.546 -0.7596  0.4505 -0.2347
18769TIP3    H177798   3.175   4.731  11.537  0.1199 -1.4940  0.3677
18769TIP3    H277799   3.276   4.776  11.640  1.3237 -2.2434 -0.4768
18770TIP3   OH277800   6.601   0.470   2.487  0.0262 -0.1716  0.3614
18770TIP3    H177801   6.632   0.415   2.416  1.0702  2.0196 -0.9065
18770TIP3    H277802   6.678   0.487   2.541 -0.2199  0.3449  0.5598
18771TIP3   OH277803   0.440   5.069   0.661  0.4723 -0.4051  0.1060
18771TIP3    H177804   0.493   5.132   0.711 -1.8511 -0.3076  2.5904
18771TIP3    H277805   0.386   5.124   0.604 -1.4038 -0.0567  2.1232
18772TIP3   OH277806   3.787   2.397   1.540  0.3430 -0.0525 -0.2593
18772TIP3    H177807   3.834   2.450   1.604  0.1309  0.7728 -0.7770
18772TIP3    H277808   3.770   2.314   1.585 -0.2610  0.7058  0.9155
18773TIP3   OH277809   4.446   3.545  15.908 -0.1334  0.2986 -0.6114
18773TIP3    H177810   4.474   3.471  15.854 -1.0300 -0.6298  0.1730
18773TIP3    H277811   4.430   3.615  15.846  0.0664 -0.3732 -1.4323
18774TIP3   OH277812   0.192   3.854   3.447 -0.0701  0.3463 -0.3652
18774TIP3    H177813   0.196   3.791   3.375 -0.3446  2.5329 -2.3858
18774TIP3    H277814   0.099   3.875   3.455 -0.0582  0.0014  0.7578
18775TIP3   OH277815   6.426   2.859   6.066  0.2659 -0.0776  0.0667
18775TIP3    H177816   6.446   2.951   6.086  0.5152 -0.1532  0.1740
18775TIP3    H277817   6.432   2.815   6.151 -0.4669 -0.0845  0.1157
18776TIP3   OH277818   3.254   6.328  13.146  0.0860  0.1495 -0.1351
18776TIP3    H177819   3.216   6.289  13.068 -2.2758  0.6195  0.7606
18776TIP3    H277820   3.281   6.253  13.199 -0.6144 -0.1967 -0.2675
18777TIP3   OH277821   1.661   6.079   0.484  0.5341 -0.2663  0.1553
18777TIP3    H177822   1.592   6.014   0.476  0.6166 -0.5576  1.7562
18777TIP3    H277823   1.619   6.155   0.524  0.8234  0.0743 -0.1784
18778TIP3   OH277824   0.942   4.292  13.903  0.3637  0.8393  0.1115
18778TIP3    H177825   0.920   4.207  13.864  0.7654  1.1085 -0.7118
18778TIP3    H277826   1.010   4.272  13.967  1.3785  0.7061 -0.9916
18779TIP3   OH277827   5.418   1.420  11.113  0.7909 -0.0202 -0.2493
18779TIP3    H177828   5.418   1.352  11.180 -0.3464 -0.7160 -0.9470
18779TIP3    H277829   5.376   1.495  11.155 -0.2187 -0.5643 -0.2795
18780TIP3   OH277830   5.689   5.373  11.632  0.3824 -0.5362 -0.0916
18780TIP3    H177831   5.640   5.354  11.712 -0.4110  1.6717 -0.0071
18780TIP3    H277832   5.663   5.305  11.570 -0.4181 -1.1766  0.9403
18781TIP3   OH277833   6.275   2.511  10.702 -0.0725  0.1146  0.1033
18781TIP3    H177834   6.234   2.596  10.686  0.6614  0.2630 -1.0092
18781TIP3    H277835   6.210   2.463  10.754 -1.6017  0.4208 -1.4688
18782TIP3   OH277836   4.624   0.494   4.760  0.3363  0.3705 -0.1079
18782TIP3    H177837   4.691   0.453   4.705  0.7921 -1.7452  1.9522
18782TIP3    H277838   4.673   0.530   4.834 -0.5960  0.2929  0.5553
18783TIP3   OH277839   4.667   3.302  11.487  0.1289 -0.2485  0.0568
18783TIP3    H177840   4.728   3.360  11.441  0.2490 -2.1879 -2.3192
18783TIP3    H277841   4.583   3.317  11.442 -0.4083 -0.0526  1.1185
18784TIP3   OH277842   3.688   3.704  12.680 -0.3641  0.0959  0.0033
18784TIP3    H177843   3.773   3.660  12.686 -0.4030  0.0766  0.3726
18784TIP3    H277844   3.700   3.788  12.723  0.1895  1.1853 -2.1782
18785TIP3   OH277845   3.375   1.810  15.436 -0.4783 -0.3549  0.2076
18785TIP3    H177846   3.393   1.889  15.385  0.6211 -0.1947  0.8298
18785TIP3    H277847   3.424   1.741  15.391 -1.6508 -0.7390 -0.4874
18786TIP3   OH277848   4.763   0.837  15.446  0.0538  0.5580  0.2788
18786TIP3    H177849   4.821   0.873  15.513  1.6024  0.3719 -0.9275
18786TIP3    H277850   4.756   0.907  15.381 -1.4441  0.7394  0.6068
18787TIP3   OH277851   0.167   4.621   3.863  0.5137  0.4096  0.4237
18787TIP3    H177852   0.197   4.534   3.837  0.2505  0.5869 -0.4969
18787TIP3    H277853   0.129   4.658   3.783  0.0613  1.1274  0.9653
18788TIP3   OH277854   5.014   0.305   1.051 -0.0482 -0.0830 -0.1717
18788TIP3    H177855   4.987   0.234   0.992 -1.8387  0.3625  0.0706
18788TIP3    H277856   4.943   0.370   1.044 -0.6681 -0.3318  2.9624
18789TIP3   OH277857   5.983   3.493  14.573 -0.0141  0.1617  0.3229
18789TIP3    H177858   5.984   3.556  14.645  0.3160  1.3578 -0.7376
18789TIP3    H277859   5.915   3.524  14.514  0.1204 -0.4975 -0.1865
18790TIP3   OH277860   3.216   5.276  14.219  0.3714 -0.1497  0.0901
18790TIP3    H177861   3.228   5.199  14.273 -0.6510 -0.4475 -0.1015
18790TIP3    H277862   3.257   5.347  14.268  1.4442 -0.8413  0.1893
18791TIP3   OH277863   2.514   6.104   5.232 -0.1249 -0.3571 -0.3185
18791TIP3    H177864   2.603   6.109   5.195 -0.0771 -0.9524 -0.2921
18791TIP3    H277865   2.476   6.026   5.192  0.2015 -1.4637  1.4647
18792TIP3   OH277866   6.285   6.107  11.717 -0.5418  0.2269 -0.4305
18792TIP3    H177867   6.253   6.193  11.744  0.6906  0.8318 -0.8688
18792TIP3    H277868   6.369   6.124  11.676 -0.9937 -1.0299 -1.9375
18793TIP3   OH277869   5.037   0.995  16.358 -0.3350 -0.2095 -0.9503
18793TIP3    H177870   5.030   1.010  16.452  0.8401  1.4319 -1.1036
18793TIP3    H277871   4.960   1.036  16.321  0.1625  0.7942 -0.8733
18794TIP3   OH277872   0.673   0.965  13.292 -0.4317 -0.4586  0.5100
18794TIP3    H177873   0.615   0.927  13.358  1.0999 -0.6722  1.7726
18794TIP3    H277874   0.731   1.022  13.342 -0.3183  0.6662 -0.8934
18795TIP3   OH277875   1.313   3.588   3.032  0.0498  0.4150 -0.4217
18795TIP3    H177876   1.231   3.546   3.057  0.7993 -0.6863  0.2243
18795TIP3    H277877   1.381   3.525   3.055  1.5166  3.3311  3.8429
18796TIP3   OH277878   5.906   1.652   5.397 -0.4705 -0.3210  0.3091
18796TIP3    H177879   5.909   1.747   5.404  0.0962 -0.3633  0.6886
18796TIP3    H277880   5.998   1.625   5.397 -0.6509 -0.9629  1.5535
18797TIP3   OH277881   0.284   6.182   0.755  0.1431  0.2833  0.8309
18797TIP3    H177882   0.327   6.096   0.752 -1.9322 -0.7909  1.1542
18797TIP3    H277883   0.261   6.200   0.664  2.7306  1.6462  0.4065
18798TIP3   OH277884   2.834   6.393  15.717 -0.0878 -0.3639  0.0715
18798TIP3    H177885   2.836   6.297  15.711  1.8753 -0.2990 -0.7091
18798TIP3    H277886   2.754   6.412  15.765 -2.3676 -2.2510 -2.7706
18799TIP3   OH277887   1.325   5.136   0.348  0.3130  0.4527 -0.1427
18799TIP3    H177888   1.389   5.100   0.409  0.0141  0.5623  0.2357
18799TIP3    H277889   1.298   5.061   0.294  0.4233  0.3157 -0.0074
18800TIP3   OH277890   0.766   1.480   1.696  0.0057  0.1225 -0.2753
18800TIP3    H177891   0.689   1.470   1.639 -0.5116 -0.6411  0.5504
18800TIP3    H277892   0.841   1.477   1.636 -0.6437  1.8763 -1.1935
18801TIP3   OH277893   2.472   4.637  15.435  0.0342  0.6831 -0.6170
18801TIP3    H177894   2.470   4.709  15.373 -0.5942  0.4964 -0.8164
18801TIP3    H277895   2.428   4.564  15.391 -0.1848  0.4682 -0.0635
18802TIP3   OH277896   0.754   2.027   5.689 -0.0494 -0.2596 -0.7850
18802TIP3    H177897   0.779   2.020   5.597  0.3313  1.7218 -0.8547
18802TIP3    H277898   0.666   2.064   5.687  0.9917  2.3217 -0.3108
18803TIP3   OH277899   2.464   2.404   3.856  0.1917  0.0855  0.0165
18803TIP3    H177900   2.544   2.423   3.905  0.6911 -0.1228 -0.7066
18803TIP3    H277901   2.447   2.484   3.806  1.5553 -0.8543 -2.0177
18804TIP3   OH277902   3.626   6.786  11.551  0.4581 -0.1997 -0.4453
18804TIP3    H177903   3.644   6.706  11.500 -0.9919 -0.5529 -0.4158
18804TIP3    H277904   3.531   6.797  11.546  0.4782  0.6467  0.8774
18805TIP3   OH277905   2.306   0.700  10.164 -0.2513 -0.4204  0.3610
18805TIP3    H177906   2.335   0.615  10.130 -0.1050 -0.4589  0.5845
18805TIP3    H277907   2.213   0.687  10.185 -0.4598 -0.2735 -0.4267
18806TIP3   OH277908   0.174   0.705  14.616  0.2488  0.2226 -0.1124
18806TIP3    H177909   0.149   0.795  14.594 -0.7166  0.6944  2.7852
18806TIP3    H277910   0.116   0.651  14.562 -1.2648  1.3382  0.3574
18807TIP3   OH277911   4.164   1.029   3.256  0.1797  0.1058 -0.1616
18807TIP3    H177912   4.138   1.009   3.346  1.2517  0.3300  0.2103
18807TIP3    H277913   4.122   0.962   3.203  0.4777 -0.7225  0.6344
18808TIP3   OH277914   5.047   1.295  16.071 -0.1612 -0.1840  0.3154
18808TIP3    H177915   5.126   1.244  16.048  0.1222 -0.5454  1.9956
18808TIP3    H277916   5.074   1.386  16.063 -0.2115 -0.2875 -1.2015
18809TIP3   OH277917   1.099   6.049  13.616 -0.1427  0.0747 -0.2393
18809TIP3    H177918   1.178   6.044  13.561 -1.1314 -0.4855 -1.6436
18809TIP3    H277919   1.038   6.103  13.565 -0.9985 -0.2760  0.4085
18810TIP3   OH277920   2.356   6.733  16.743  0.2149 -0.2540  0.1054
18810TIP3    H177921   2.302   6.734  16.665 -0.8310 -0.1843  0.8213
18810TIP3    H277922   2.439   6.774  16.716 -1.1952  2.5022 -0.2136
18811TIP3   OH277923   5.415   6.158   0.810 -0.3822 -0.1850  0.2912
18811TIP3    H177924   5.441   6.131   0.898  0.8083 -0.8991 -0.2643
18811TIP3    H277925   5.380   6.078   0.769 -1.8646  0.3677  0.4357
18812TIP3   OH277926   0.832   4.243  14.237  0.8062 -0.2379 -0.0980
18812TIP3    H177927   0.774   4.233  14.161 -0.0278  0.0848  0.4850
18812TIP3    H277928   0.916   4.268  14.200  1.8018 -4.8880 -1.2864
18813TIP3   OH277929   1.620   6.044   6.138  0.2289 -0.0761  1.0974
18813TIP3    H177930   1.700   6.082   6.174 -0.8602  0.7476  2.6818
18813TIP3    H277931   1.579   5.998   6.211 -0.5956 -0.7724  0.2214
18814TIP3   OH277932   4.918   2.057  13.665 -0.3510 -0.0248 -0.1015
18814TIP3    H177933   4.867   2.081  13.742  0.8608 -0.0440  0.7240
18814TIP3    H277934   5.008   2.081  13.687  0.2055 -1.1690 -1.0161
18815TIP3   OH277935   4.091   2.625   2.674  0.3382  0.6477  0.1117
18815TIP3    H177936   4.138   2.548   2.642  0.3174 -0.0803  1.7980
18815TIP3    H277937   4.004   2.593   2.698  0.6390  0.9939  1.7164
18816TIP3   OH277938   5.434   5.501   4.842 -0.5541 -0.0393  0.0320
18816TIP3    H177939   5.368   5.489   4.910 -0.8894 -0.3876 -0.3506
18816TIP3    H277940   5.397   5.570   4.786 -0.2029  0.3645  0.2952
18817TIP3   OH277941   0.115   1.002   4.704 -0.1163  0.1586  0.6683
18817TIP3    H177942   0.205   1.033   4.697  0.1943 -0.9740 -0.5474
18817TIP3    H277943   0.079   1.013   4.617 -0.3080 -1.8956  0.4506
18818TIP3   OH277944   1.146   6.706   4.935 -0.1321  0.0496  0.2229
18818TIP3    H177945   1.118   6.634   4.992 -0.2164  1.8134  2.4730
18818TIP3    H277946   1.241   6.704   4.938 -0.1470  0.7909  1.2751
18819TIP3   OH277947   5.142   0.664   4.883 -0.1030  0.2806 -0.1315
18819TIP3    H177948   5.079   0.635   4.817  0.6969 -1.5052 -0.1320
18819TIP3    H277949   5.220   0.690   4.833 -0.6332  2.0262 -0.0965
18820TIP3   OH277950   3.154   6.147  12.927 -0.3032  0.0322 -0.3193
18820TIP3    H177951   3.227   6.166  12.868 -0.1033  0.8125  0.1672
18820TIP3    H277952   3.130   6.056  12.907  0.4666 -0.0634 -0.8398
18821TIP3   OH277953   1.847   0.386   5.360 -0.7661 -0.3750 -0.1790
18821TIP3    H177954   1.898   0.363   5.437  0.1532  1.0602 -0.3478
18821TIP3    H277955   1.759   0.404   5.394 -0.2182  0.8485  0.6224
18822TIP3   OH277956   2.221   2.308   3.951 -0.6733 -0.1123 -0.2716
18822TIP3    H177957   2.299   2.323   3.899 -0.7718  0.2467 -0.3158
18822TIP3    H277958   2.160   2.376   3.923 -0.8247 -0.0875  0.1167
18823TIP3   OH277959   5.195   3.242   6.015 -0.0460  0.0787 -0.2633
18823TIP3    H177960   5.128   3.178   6.038 -2.4565  2.2029 -1.1364
18823TIP3    H277961   5.230   3.272   6.099 -0.2967 -0.9420  0.2085
18824TIP3   OH277962   4.727   4.296   5.991 -0.4290 -0.3687 -1.6513
18824TIP3    H177963   4.650   4.338   6.030 -0.3513 -0.0577 -1.8285
18824TIP3    H277964   4.749   4.351   5.915 -0.1610 -0.5751 -1.7264
18825TIP3   OH277965   0.698   4.468  11.524 -0.4553 -0.8381  0.6662
18825TIP3    H177966   0.617   4.495  11.480 -0.5209  0.6573  1.6918
18825TIP3    H277967   0.759   4.451  11.452 -0.6603  1.2758 -0.0408
18826TIP3   OH277968   1.583   0.798   3.413 -0.0356  0.0184 -0.1444
18826TIP3    H177969   1.492   0.769   3.406 -0.6147  2.0950 -2.0901
18826TIP3    H277970   1.584   0.855   3.490 -0.8290  1.3560 -1.0900
18827TIP3   OH277971   6.052   5.686  11.972  0.6111 -0.7254  0.4703
18827TIP3    H177972   6.068   5.772  11.935  0.0851 -1.5329 -1.7331
18827TIP3    H277973   6.138   5.645  11.977  0.4962 -1.4291 -2.0995
18828TIP3   OH277974   2.486   3.423   4.140  0.3667 -0.0825  0.3512
18828TIP3    H177975   2.458   3.414   4.232  0.5592 -1.3882  0.2953
18828TIP3    H277976   2.457   3.510   4.115  0.0354  0.1749  1.5702
18829TIP3   OH277977   6.571   1.153   6.944 -0.1613 -0.2273  0.6807
18829TIP3    H177978   6.522   1.229   6.976 -0.6544 -0.6653  0.9654
18829TIP3    H277979   6.531   1.078   6.988  0.3375 -0.6530  0.4142
18830TIP3   OH277980   1.920   0.862  14.430  0.1463 -0.2282 -0.4866
18830TIP3    H177981   1.837   0.845  14.387 -0.3143  0.9923 -0.0870
18830TIP3    H277982   1.941   0.953  14.409  1.1649 -0.3887 -0.2183
18831TIP3   OH277983   2.448   5.386   1.987 -0.1277  0.3092 -0.2885
18831TIP3    H177984   2.490   5.372   2.071  0.2408 -0.7794 -0.6455
18831TIP3    H277985   2.520   5.389   1.924 -0.5182 -0.9595 -0.8251
18832TIP3   OH277986   2.386   0.919   0.973  0.5038 -0.3388 -0.4921
18832TIP3    H177987   2.436   1.000   0.985 -0.1452  0.0209 -0.2014
18832TIP3    H277988   2.445   0.849   1.002  0.7989  0.0910 -0.0717
18833TIP3   OH277989   2.540   1.244  17.245  0.1950  0.1042 -0.6781
18833TIP3    H177990   2.549   1.156  17.280  0.9902  0.2246 -0.5881
18833TIP3    H277991   2.507   1.296  17.319 -0.2207 -0.0995 -0.7165
18834TIP3   OH277992   6.670   5.118  15.038  0.2929 -0.2998  0.1330
18834TIP3    H177993   6.607   5.106  15.109 -0.9579  0.5616 -0.7814
18834TIP3    H277994   6.616   5.111  14.958  1.1557  1.5073 -0.6412
18835TIP3   OH277995   6.715   6.322   0.656 -0.4269 -0.4999 -0.0324
18835TIP3    H177996   6.693   6.414   0.640 -0.7969 -0.8143 -1.3159
18835TIP3    H277997   6.716   6.281   0.570 -0.8601 -1.8454  0.5818
18836TIP3   OH277998   3.078   1.736   2.652  0.1341  0.0768  0.0917
18836TIP3    H177999   3.136   1.777   2.589 -1.0967  0.3629 -0.8709
18836TIP3    H278000   3.068   1.646   2.621  1.0166 -0.3138  0.9282
18837TIP3   OH278001   4.805   2.491  15.780  0.1294  0.5713 -0.0099
18837TIP3    H178002   4.838   2.568  15.735  1.2719 -0.2897 -0.6586
18837TIP3    H278003   4.879   2.430  15.780  0.0279  0.3947  2.6427
18838TIP3   OH278004   0.446   5.177   6.292  0.4383 -0.0243 -0.0454
18838TIP3    H178005   0.385   5.227   6.238  0.0785  0.9948  1.2942
18838TIP3    H278006   0.404   5.091   6.301 -1.0097  0.7869  1.1808
18839TIP3   OH278007   0.999   4.606  17.233 -0.4231 -0.1182 -0.2039
18839TIP3    H178008   1.037   4.675  17.177  0.4131 -0.6194 -0.2596
18839TIP3    H278009   0.947   4.654  17.297  1.0122  0.6410  0.4163
18840TIP3   OH278010   5.001   2.935  16.514  0.8132 -0.2551 -0.1455
18840TIP3    H178011   5.033   2.844  16.515 -0.0900 -0.5801 -0.7865
18840TIP3    H278012   5.080   2.987  16.496  1.6252 -0.7832  1.7772
18841TIP3   OH278013   5.243   1.211   5.333 -0.1144  0.0094 -0.3240
18841TIP3    H178014   5.197   1.180   5.255 -0.2093  0.1585 -0.3261
18841TIP3    H278015   5.184   1.275   5.372 -1.0789 -1.7590  1.1542
18842TIP3   OH278016   0.266   4.594  14.058 -0.3331  0.2030  0.6492
18842TIP3    H178017   0.288   4.638  13.976 -1.4059  0.2315  0.3638
18842TIP3    H278018   0.309   4.509  14.052  1.1822  0.9378  0.9073
18843TIP3   OH278019   1.774   0.089   5.936 -0.2921  0.1764  0.4650
18843TIP3    H178020   1.868   0.102   5.918 -0.5833 -0.5792 -1.8567
18843TIP3    H278021   1.755   0.149   6.008  1.8237  0.8680  0.5040
18844TIP3   OH278022   4.209   2.029  11.512  0.5514 -0.4874  0.3797
18844TIP3    H178023   4.201   1.953  11.570 -2.7795 -1.6940 -1.5002
18844TIP3    H278024   4.128   2.078  11.526  2.0208  1.9622  0.4833
18845TIP3   OH278025   3.665   0.779  12.759 -0.2763  0.0073 -0.4510
18845TIP3    H178026   3.724   0.754  12.689 -0.9490 -0.4431 -0.8629
18845TIP3    H278027   3.664   0.703  12.817  1.5932  1.0032  0.9621
18846TIP3   OH278028   3.441   0.632  13.223 -0.1607  0.2347  0.0260
18846TIP3    H178029   3.360   0.636  13.173 -0.8710 -0.6633  1.0721
18846TIP3    H278030   3.426   0.563  13.288  0.3649  2.0205  2.1060
18847TIP3   OH278031   6.591   2.443   1.572 -0.1637  0.6974 -0.4620
18847TIP3    H178032   6.607   2.367   1.515  1.2148  2.0399 -1.9039
18847TIP3    H278033   6.556   2.405   1.653  0.4136 -1.4740 -1.1991
18848TIP3   OH278034   0.173   4.287   4.171 -0.0613  0.2385 -0.4359
18848TIP3    H178035   0.159   4.197   4.201  0.5786  0.4527  0.5308
18848TIP3    H278036   0.154   4.284   4.077 -2.6718 -0.3115  0.0603
18849TIP3   OH278037   1.508   0.511   2.774  0.7866 -0.0650  0.5244
18849TIP3    H178038   1.523   0.563   2.696  2.6751  0.0450  0.9397
18849TIP3    H278039   1.503   0.575   2.845 -1.1786 -0.1419  0.4831
18850TIP3   OH278040   1.541   1.752  16.019 -0.0440 -0.3859 -0.5522
18850TIP3    H178041   1.582   1.672  16.051 -2.3567 -1.0164  0.9134
18850TIP3    H278042   1.594   1.823  16.057  1.0519 -1.1847 -0.5622
18851TIP3   OH278043   6.795   6.373  11.706 -0.2083  0.0332 -0.7684
18851TIP3    H178044   6.710   6.408  11.679  0.1499  0.0618 -1.8817
18851TIP3    H278045   6.779   6.335  11.792 -1.5797 -0.8298 -1.3835
18852TIP3   OH278046   0.566   2.490   5.883 -0.1000  0.3905 -0.1324
18852TIP3    H178047   0.564   2.397   5.906  0.2484  0.1982 -0.8726
18852TIP3    H278048   0.628   2.529   5.945  0.5418 -0.0536 -0.4988
18853TIP3   OH278049   5.044   6.675   2.273  0.4301 -0.4763 -0.0681
18853TIP3    H178050   5.138   6.683   2.289 -0.0032 -1.2278  3.1348
18853TIP3    H278051   5.016   6.764   2.252  1.5229  0.0935  0.8630
18854TIP3   OH278052   3.821   5.782  11.969 -0.3145  0.4977 -0.0103
18854TIP3    H178053   3.849   5.699  12.006  0.1629  1.5732  2.0852
18854TIP3    H278054   3.872   5.790  11.888  1.5751 -0.0315  1.0937
18855TIP3   OH278055   4.004   6.777  16.936  0.4436  0.0708  0.3456
18855TIP3    H178056   4.090   6.736  16.948  0.3329  0.0003  0.9403
18855TIP3    H278057   3.943   6.703  16.934  0.4006  0.1199 -0.0942
18856TIP3   OH278058   1.740   5.794  13.438  0.5115  0.7423  0.7925
18856TIP3    H178059   1.778   5.823  13.355 -0.2094  0.3651  0.3254
18856TIP3    H278060   1.678   5.726  13.414 -0.8311  1.6978  1.5024
18857TIP3   OH278061   5.863   5.013   3.886  0.0677  0.2290  0.2099
18857TIP3    H178062   5.798   5.052   3.944  0.7958 -1.1153  2.0013
18857TIP3    H278063   5.941   5.005   3.940  1.2163  0.3133 -1.4237
18858TIP3   OH278064   4.206   2.048  12.181  0.3085 -0.5635 -0.5784
18858TIP3    H178065   4.227   2.126  12.232  2.2224 -1.2428 -0.3171
18858TIP3    H278066   4.269   2.047  12.110  1.8855 -3.1362  0.7599
18859TIP3   OH278067   5.969   2.716   4.793 -0.1435  0.3983 -0.0894
18859TIP3    H178068   5.919   2.654   4.846 -0.0961 -0.9188 -1.5575
18859TIP3    H278069   5.903   2.774   4.756 -0.3233  0.3845  0.2095
18860TIP3   OH278070   3.740   5.296  11.550  0.0096  0.0026  0.5274
18860TIP3    H178071   3.685   5.332  11.619 -1.2712  0.5498 -0.7498
18860TIP3    H278072   3.679   5.265  11.483  1.1808 -2.0278  0.3593
18861TIP3   OH278073   0.617   1.888   3.307 -0.1633  0.6638  0.2372
18861TIP3    H178074   0.623   1.879   3.402 -0.0683  2.1438  0.3876
18861TIP3    H278075   0.703   1.921   3.280 -0.0063 -0.2775 -0.4347
18862TIP3   OH278076   2.533   1.105   3.633  0.1827 -0.2581  0.3092
18862TIP3    H178077   2.477   1.028   3.642  1.9747 -1.6825 -0.3346
18862TIP3    H278078   2.520   1.155   3.714 -2.7940 -0.0025 -0.2941
18863TIP3   OH278079   1.425   2.246   2.159 -0.3758  0.2411 -0.2235
18863TIP3    H178080   1.340   2.203   2.151  0.2268 -0.8788 -0.7987
18863TIP3    H278081   1.466   2.203   2.234 -0.0829  0.3587 -0.3173
18864TIP3   OH278082   4.059   4.507  15.285 -0.4086  0.3724 -0.4482
18864TIP3    H178083   4.118   4.553  15.225 -1.6630  1.8599 -0.5767
18864TIP3    H278084   4.055   4.564  15.362 -0.6956 -0.3416  0.0637
18865TIP3   OH278085   5.683   1.778   0.029 -0.8321  0.0954 -0.3207
18865TIP3    H178086   5.748   1.778  -0.041  0.9523  0.1089  1.3070
18865TIP3    H278087   5.715   1.843   0.091 -2.5613  0.3095  0.3890
18866TIP3   OH278088   0.737   0.713  11.892 -0.2392 -0.7040  0.4425
18866TIP3    H178089   0.695   0.740  11.810 -2.7223  0.5882  2.0559
18866TIP3    H278090   0.777   0.793  11.926  0.2388 -1.0950  0.8160
18867TIP3   OH278091   2.074   6.633   6.158  0.2818  0.3465  0.0819
18867TIP3    H178092   2.044   6.722   6.175 -1.1230 -0.3636  1.4026
18867TIP3    H278093   2.004   6.576   6.190  1.8773 -1.2859  0.8339
18868TIP3   OH278094   5.979   4.766  12.173 -0.3331 -0.4767 -0.0555
18868TIP3    H178095   5.935   4.713  12.240  0.5449  0.3035  1.1629
18868TIP3    H278096   5.918   4.769  12.100 -1.8033 -0.3626  1.1659
18869TIP3   OH278097   3.031   1.029  11.864 -0.5144  0.0686 -0.4664
18869TIP3    H178098   3.097   1.089  11.897  0.1675 -0.5860 -0.6280
18869TIP3    H278099   2.949   1.060  11.904  0.0535  0.2051  0.6348
18870TIP3   OH278100   5.274   6.569   5.426  0.2187 -0.3342  0.4192
18870TIP3    H178101   5.184   6.602   5.416 -0.0261  0.0014  3.4240
18870TIP3    H278102   5.263   6.477   5.452  0.7906 -0.5691 -0.1375
18871TIP3   OH278103   2.629   2.996   6.054  0.1716  0.0044 -1.0634
18871TIP3    H178104   2.553   3.013   6.109 -0.4874  0.6502 -2.1327
18871TIP3    H278105   2.657   3.082   6.024  1.0939 -0.2597 -0.9966
18872TIP3   OH278106   4.210   2.994   6.428 -0.1595  0.0094 -0.2988
18872TIP3    H178107   4.284   2.937   6.407 -0.9661 -1.3851  0.5739
18872TIP3    H278108   4.133   2.945   6.401 -0.8242  1.1523 -0.5355
18873TIP3   OH278109   1.024   0.323  16.267  0.4006 -0.7167 -0.3925
18873TIP3    H178110   1.102   0.359  16.225  0.1712  4.9831  3.5183
18873TIP3    H278111   1.054   0.295  16.353 -1.3817 -0.7820  0.2274
18874TIP3   OH278112   6.654   0.435   4.634  0.1619  0.3354 -0.0799
18874TIP3    H178113   6.741   0.475   4.637  0.5522 -0.6012  1.5585
18874TIP3    H278114   6.665   0.360   4.575  1.6108 -2.3222  3.3795
18875TIP3   OH278115   4.429   2.033  13.160 -0.0961 -0.2583 -0.0154
18875TIP3    H178116   4.507   2.017  13.213  0.6139 -0.0954 -1.0066
18875TIP3    H278117   4.365   1.970  13.192  0.4750 -0.4742  0.7194
18876TIP3   OH278118   5.492   5.661   0.609 -0.1411  0.4712 -0.0455
18876TIP3    H178119   5.510   5.655   0.515 -0.8545 -1.0551 -0.1124
18876TIP3    H278120   5.397   5.661   0.615 -0.1047 -0.7412  0.7225
18877TIP3   OH278121   5.497   5.744   2.496  0.0774  0.0761 -0.2585
18877TIP3    H178122   5.431   5.750   2.565 -0.7134  1.2210 -1.0946
18877TIP3    H278123   5.567   5.804   2.524 -0.0190  0.1691 -0.2192
18878TIP3   OH278124   0.872   4.777   4.348  0.4849 -0.2468 -0.2378
18878TIP3    H178125   0.846   4.761   4.439  0.8884 -0.6649 -0.1881
18878TIP3    H278126   0.791   4.771   4.298  0.6373 -2.8007 -0.2503
18879TIP3   OH278127   5.789   4.741   3.235 -0.3748 -0.1289 -0.1706
18879TIP3    H178128   5.804   4.827   3.194 -0.6283 -0.1567 -0.3170
18879TIP3    H278129   5.842   4.745   3.316 -1.8395  0.8711  0.7670
18880TIP3   OH278130   3.071   0.910  16.719  0.2818 -0.5557  0.1293
18880TIP3    H178131   3.056   1.004  16.731 -0.6560 -0.7935  0.9035
18880TIP3    H278132   3.075   0.898  16.624 -1.1298  0.0505 -0.0292
18881TIP3   OH278133   5.099   4.826  15.256 -0.2576  0.0028  0.4929
18881TIP3    H178134   5.090   4.803  15.164  1.4885  1.9459 -0.2077
18881TIP3    H278135   5.025   4.884  15.274  0.5253  1.2897 -0.2960
18882TIP3   OH278136   5.930   2.032  15.611  0.0011 -0.7483  0.5728
18882TIP3    H178137   5.882   2.055  15.690  0.7395 -1.0134  1.1072
18882TIP3    H278138   5.979   1.953  15.634  1.2565 -0.0852  0.2883
18883TIP3   OH278139   0.295   5.963   0.496 -0.3953 -0.1845  0.3015
18883TIP3    H178140   0.256   5.951   0.410 -1.7481  2.2621  0.5196
18883TIP3    H278141   0.228   5.931   0.557 -0.0115 -0.5909  0.5192
18884TIP3   OH278142   4.406   1.027  14.721 -0.3159 -0.3241  0.0559
18884TIP3    H178143   4.382   1.041  14.630  0.9227  2.9726  0.1587
18884TIP3    H278144   4.338   1.072  14.771  0.9997  1.0479  0.6285
18885TIP3   OH278145   3.147   3.972  15.207  0.7583 -0.2215  0.1901
18885TIP3    H178146   3.091   4.049  15.214  1.3601  0.5199 -2.5637
18885TIP3    H278147   3.200   3.974  15.286 -1.3072  0.4828  1.6058
18886TIP3   OH278148   6.306   0.411  17.286  0.0027 -0.1799 -0.0423
18886TIP3    H178149   6.221   0.368  17.290  0.2281 -0.6372 -0.0433
18886TIP3    H278150   6.297   0.488  17.342 -0.3542 -0.3330  0.1173
18887TIP3   OH278151   4.605   1.982   2.760  0.3281 -0.0320 -0.5367
18887TIP3    H178152   4.651   1.902   2.735  0.1338 -0.1047 -0.6615
18887TIP3    H278153   4.674   2.041   2.790  0.5259 -0.0702 -0.9104
18888TIP3   OH278154   3.582   4.609  14.804 -0.1301  0.1344 -0.2656
18888TIP3    H178155   3.626   4.694  14.799 -0.9516  0.5005 -1.4561
18888TIP3    H278156   3.490   4.630  14.819 -0.4159 -0.5273 -1.0494
18889TIP3   OH278157   1.457   5.335  12.115 -0.0100  0.0056  0.5061
18889TIP3    H178158   1.436   5.352  12.207  1.2066  1.1091  0.6061
18889TIP3    H278159   1.478   5.422  12.080  1.1428 -0.6328 -0.3876
18890TIP3   OH278160   5.883   3.834  17.045 -0.1027  0.4933  0.2941
18890TIP3    H178161   5.795   3.868  17.027 -0.5228 -1.2433 -1.0563
18890TIP3    H278162   5.882   3.745  17.011  2.8105  1.0786 -1.4889
18891TIP3   OH278163   2.236   0.745   4.925 -0.0756 -0.2079  0.3646
18891TIP3    H178164   2.316   0.797   4.931  0.1149 -0.3120 -1.0910
18891TIP3    H278165   2.257   0.675   4.864 -0.7773 -1.1859  1.2350
18892TIP3   OH278166   3.597   1.325  14.782  0.7985 -0.1981 -1.0175
18892TIP3    H178167   3.656   1.358  14.714  0.8443 -1.2519 -1.4873
18892TIP3    H278168   3.642   1.346  14.865  2.4631 -2.1558 -1.3950
18893TIP3   OH278169   6.725   0.274   2.309  0.4325 -0.0574 -0.3175
18893TIP3    H178170   6.636   0.239   2.312  0.6996 -0.8271 -0.9873
18893TIP3    H278171   6.775   0.217   2.369  0.7348 -0.4210 -0.9111
18894TIP3   OH278172   5.303   5.247   1.239  0.1540  0.5958  0.0998
18894TIP3    H178173   5.249   5.196   1.299 -0.2170  1.0020  0.1138
18894TIP3    H278174   5.324   5.187   1.168 -1.7518  0.9233 -0.7791
18895TIP3   OH278175   1.883   0.186  15.054 -0.6797 -0.7120 -0.3102
18895TIP3    H178176   1.894   0.214  15.145 -0.3019 -1.4275 -0.1273
18895TIP3    H278177   1.875   0.090  15.060 -2.0285 -0.6386 -0.8992
18896TIP3   OH278178   1.082   6.551  13.542  0.3001 -0.4368  0.0481
18896TIP3    H178179   1.163   6.599  13.561  0.2224 -0.6638  0.9480
18896TIP3    H278180   1.063   6.503  13.622 -0.3966 -0.8669 -0.3730
18897TIP3   OH278181   6.185   3.805  15.062  1.0082 -0.5511  0.1348
18897TIP3    H178182   6.276   3.797  15.089  1.6557  1.7227 -1.3127
18897TIP3    H278183   6.142   3.851  15.135  1.8308  1.6538 -0.7255
18898TIP3   OH278184   1.374   0.875  13.622  0.0217  0.2225  0.0814
18898TIP3    H178185   1.409   0.866  13.533 -0.5094 -0.1481 -0.0931
18898TIP3    H278186   1.297   0.930  13.611 -0.0743  0.1310  0.3096
18899TIP3   OH278187   0.025   2.164   4.673  0.2967 -0.0922 -0.1181
18899TIP3    H178188   0.068   2.124   4.598  1.1083  0.1290  0.2243
18899TIP3    H278189   0.063   2.252   4.679 -0.1368  0.0768  0.2413
18900TIP3   OH278190   2.618   0.436  15.327  0.1592 -0.2858 -0.2378
18900TIP3    H178191   2.673   0.436  15.248 -1.1953 -0.4131 -1.2038
18900TIP3    H278192   2.650   0.511  15.378  2.2917 -1.3187 -0.0098
18901TIP3   OH278193   0.878   2.556   0.135  0.0171  0.4699 -0.5152
18901TIP3    H178194   0.957   2.512   0.104 -0.7384 -0.6015 -0.9890
18901TIP3    H278195   0.832   2.581   0.055 -1.4244 -1.3553 -0.3157
18902TIP3   OH278196   4.288   2.475  14.889  0.0529 -0.2943 -0.3759
18902TIP3    H178197   4.259   2.565  14.908 -0.8450 -1.0051  1.8524
18902TIP3    H278198   4.378   2.484  14.859 -0.3896  1.4441 -1.2280
18903TIP3   OH278199   1.667   2.518   6.297  0.3488 -0.5249  0.0959
18903TIP3    H178200   1.694   2.448   6.355  0.1640 -0.7236 -0.0575
18903TIP3    H278201   1.575   2.534   6.319  0.3888 -0.3370  0.1271
18904TIP3   OH278202   0.852   1.410   5.334  0.3299 -0.4820 -0.1609
18904TIP3    H178203   0.896   1.456   5.263  1.1565 -1.8971 -0.5968
18904TIP3    H278204   0.760   1.405   5.307 -0.0317  2.0596  0.5259
18905TIP3   OH278205   4.418   2.635   4.797 -0.0519  0.0235  0.2120
18905TIP3    H178206   4.345   2.665   4.850  0.3548  0.6958  0.4044
18905TIP3    H278207   4.494   2.683   4.831 -0.2273  2.5991 -2.6963
18906TIP3   OH278208   3.079   1.717  14.071  0.0106  0.2086  0.5698
18906TIP3    H178209   3.029   1.652  14.120 -0.5131 -0.8846 -1.3581
18906TIP3    H278210   3.028   1.798  14.080 -0.8449 -0.3314  0.6136
18907TIP3   OH278211   4.081   5.480   5.195  0.0721 -0.0498 -0.7295
18907TIP3    H178212   4.059   5.570   5.219  0.7527 -0.3298  1.0426
18907TIP3    H278213   4.003   5.429   5.219  0.8681 -0.3764  1.3063
18908TIP3   OH278214   6.553   1.108  14.450 -0.6992 -0.1302 -0.2035
18908TIP3    H178215   6.467   1.123  14.489 -0.1850  0.0527  0.8807
18908TIP3    H278216   6.541   1.128  14.357 -1.2665  2.2404  0.3241
18909TIP3   OH278217   2.963   0.789  11.270 -0.0766 -0.3418 -0.0625
18909TIP3    H178218   3.056   0.770  11.256  0.4406  0.0010  2.7378
18909TIP3    H278219   2.959   0.884  11.276 -0.8289 -0.2701 -1.4625
18910TIP3   OH278220   4.568   5.254  13.775 -0.0145 -0.2672 -0.2582
18910TIP3    H178221   4.637   5.255  13.840  1.2072 -1.6130 -1.4903
18910TIP3    H278222   4.537   5.345  13.771 -0.0183 -0.1467  2.0484
18911TIP3   OH278223   6.299   2.291   4.396  0.6056 -0.0127 -0.2111
18911TIP3    H178224   6.281   2.293   4.302  0.4593 -1.8202 -0.2407
18911TIP3    H278225   6.249   2.216   4.428  0.9921  0.3321  1.2417
18912TIP3   OH278226   0.828   5.523   3.612  0.6900  0.3509  0.6427
18912TIP3    H178227   0.899   5.467   3.644  2.0425  0.4880 -1.9520
18912TIP3    H278228   0.871   5.605   3.587 -0.4569  0.6765 -0.3640
18913TIP3   OH278229   5.895   2.624   0.058  0.3753  0.0673 -0.4491
18913TIP3    H178230   5.851   2.609   0.142  2.8185 -1.9972  0.5235
18913TIP3    H278231   5.983   2.652   0.081  0.6370  0.8815 -2.3440
18914TIP3   OH278232   3.607   4.977  13.787 -0.2708  0.2170 -0.0856
18914TIP3    H178233   3.700   4.957  13.776 -0.3658 -0.3105  0.0188
18914TIP3    H278234   3.566   4.891  13.802 -1.0409  0.2270 -2.0444
18915TIP3   OH278235   1.307   5.046   2.139 -0.3378 -0.0798 -0.0216
18915TIP3    H178236   1.334   4.987   2.209 -0.1267 -0.2742 -0.2660
18915TIP3    H278237   1.313   5.134   2.177  0.6456 -0.1220 -0.0768
18916TIP3   OH278238   3.221   3.907   1.284 -0.3804  0.6365 -0.1346
18916TIP3    H178239   3.216   3.835   1.221 -1.7562 -0.3727  1.0907
18916TIP3    H278240   3.155   3.970   1.253  1.1843  1.6536 -1.5024
18917TIP3   OH278241   2.121   6.313   0.976  0.8089  0.1943  0.2814
18917TIP3    H178242   2.123   6.342   0.885  1.5859 -0.8471 -0.0407
18917TIP3    H278243   2.147   6.390   1.026 -1.0463  1.2070 -0.2575
18918TIP3   OH278244   3.298   2.539  14.100  0.2266  0.2064  0.2871
18918TIP3    H178245   3.255   2.487  14.168  1.6268 -0.3374  0.7760
18918TIP3    H278246   3.339   2.474  14.043 -1.0981  0.6501 -1.2009
18919TIP3   OH278247   5.950   1.461  14.150 -0.0349  0.5189  0.5300
18919TIP3    H178248   5.878   1.476  14.211  0.2606  0.4585  0.8941
18919TIP3    H278249   5.937   1.372  14.118  0.8640 -0.1208  1.9186
18920TIP3   OH278250   3.845   5.437   1.304  0.1666  0.4781 -0.2440
18920TIP3    H178251   3.940   5.423   1.309  0.1596  0.1273 -1.0689
18920TIP3    H278252   3.808   5.349   1.302 -0.1514  0.6155 -0.3675
18921TIP3   OH278253   2.925   2.424   5.551 -0.6075 -0.2513 -0.0302
18921TIP3    H178254   2.969   2.503   5.581 -1.3782 -0.8365  2.7271
18921TIP3    H278255   2.831   2.445   5.555 -0.7629 -0.5062 -1.6504
18922TIP3   OH278256   3.335   2.298  13.907 -0.1611  0.4494 -0.2650
18922TIP3    H178257   3.413   2.300  13.851 -0.0894 -0.3567 -0.1944
18922TIP3    H278258   3.263   2.324  13.849 -0.1339 -0.6669 -0.8153
18923TIP3   OH278259   1.310   1.847  13.451  0.0610 -0.2364  0.4410
18923TIP3    H178260   1.242   1.907  13.420  0.6569 -0.1704 -0.7909
18923TIP3    H278261   1.264   1.765  13.470 -0.7032  0.5120  1.8005
18924TIP3   OH278262   1.724   5.349   0.834  0.0784 -0.1112 -0.2172
18924TIP3    H178263   1.736   5.390   0.920  0.1363  0.3006 -0.4196
18924TIP3    H278264   1.686   5.418   0.780 -1.2361 -0.7807 -0.1574
18925TIP3   OH278265   2.667   2.387   3.120  0.2905 -0.1500 -0.4557
18925TIP3    H178266   2.710   2.310   3.156  0.7589  0.7906  1.0276
18925TIP3    H278267   2.589   2.400   3.175 -0.2342 -0.0340 -1.2060
18926TIP3   OH278268   1.664   1.859   6.813 -0.3923 -0.6192 -0.3345
18926TIP3    H178269   1.733   1.814   6.765 -2.5541 -1.6010 -2.6034
18926TIP3    H278270   1.643   1.799   6.885 -0.2162 -1.2065 -0.7640
18927TIP3   OH278271   2.832   4.637  14.316 -0.2973  0.2524  0.0868
18927TIP3    H178272   2.920   4.624  14.350 -0.5719  2.5234  1.7663
18927TIP3    H278273   2.778   4.652  14.393 -1.7799  0.8894 -1.0412
18928TIP3   OH278274   2.465   3.222  14.352 -0.1054  0.0744  0.2020
18928TIP3    H178275   2.534   3.280  14.386  2.1220 -1.8072 -0.9672
18928TIP3    H278276   2.445   3.164  14.425  0.0958  0.1251  0.2976
18929TIP3   OH278277   3.147   6.146  12.250  0.2979  0.4389  0.0471
18929TIP3    H178278   3.171   6.125  12.160  0.1845  2.0413 -0.3728
18929TIP3    H278279   3.215   6.206  12.280  1.7008 -1.9885  1.8799
18930TIP3   OH278280   1.001   4.016   5.761 -0.2607 -0.1070 -0.0343
18930TIP3    H178281   1.052   3.947   5.802  0.3675 -1.4916 -2.9874
18930TIP3    H278282   1.066   4.082   5.736 -0.6062  0.6016  0.8928
18931TIP3   OH278283   5.415   6.512   2.373  0.4529 -0.6311  0.4355
18931TIP3    H178284   5.394   6.605   2.365 -0.6567 -0.9823 -0.9923
18931TIP3    H278285   5.506   6.510   2.403  1.6451  0.9560 -2.8238
18932TIP3   OH278286   6.696   2.517  13.612  0.2361  0.4350 -0.3054
18932TIP3    H178287   6.757   2.547  13.679  1.0137 -2.7470  0.4921
18932TIP3    H278288   6.638   2.455  13.658 -2.0055  1.4777 -1.6173
18933TIP3   OH278289   4.588   4.983  12.909  0.1263  0.1333 -0.3749
18933TIP3    H178290   4.516   5.042  12.932 -0.1817 -0.0193 -0.9444
18933TIP3    H278291   4.656   5.041  12.875  0.4132  0.3133  0.4982
18934TIP3   OH278292   4.708   3.756   0.542 -0.2537  0.0858  0.0412
18934TIP3    H178293   4.737   3.760   0.633 -0.9426 -1.4185  0.3334
18934TIP3    H278294   4.648   3.831   0.534  0.0134  0.3855  0.7444
18935TIP3   OH278295   2.860   0.557   0.989 -0.5985 -0.1720  0.0368
18935TIP3    H178296   2.941   0.604   1.010 -1.1826  1.5775 -1.4407
18935TIP3    H278297   2.876   0.467   1.018  1.1644  0.5711  1.4553
18936TIP3   OH278298   2.151   4.510   0.499 -0.4697 -0.0114 -0.0099
18936TIP3    H178299   2.066   4.481   0.465 -0.2344 -0.7333  0.0104
18936TIP3    H278300   2.172   4.448   0.568  0.2237 -0.0278 -0.2292
18937TIP3   OH278301   5.410   2.482  12.713  0.1932  0.8299  0.2616
18937TIP3    H178302   5.403   2.435  12.795  1.3057  0.4492  0.1387
18937TIP3    H278303   5.414   2.414  12.646  1.5779  1.1020  0.0665
18938TIP3   OH278304   6.344   3.477  15.447  0.2447  0.2719  0.4718
18938TIP3    H178305   6.266   3.498  15.395  1.2629  0.7497 -0.9029
18938TIP3    H278306   6.403   3.435  15.384  1.9597  1.8853  0.9593
18939TIP3   OH278307   0.751   3.006   1.286 -0.2700  0.3040  0.3984
18939TIP3    H178308   0.757   3.073   1.355  1.0504  1.1039 -0.4576
18939TIP3    H278309   0.658   2.983   1.282 -0.6305  1.5678  1.2044
18940TIP3   OH278310   1.738   6.219  13.518 -0.1910 -0.5491  0.1750
18940TIP3    H178311   1.818   6.204  13.569 -1.2417  0.0927  2.0735
18940TIP3    H278312   1.742   6.312  13.495  0.5932 -0.9735 -1.5338
18941TIP3   OH278313   1.538   1.644   4.507 -0.1607  0.1839  0.2199
18941TIP3    H178314   1.580   1.692   4.578 -1.5328  0.1017  1.0875
18941TIP3    H278315   1.456   1.612   4.544 -1.4869  1.2038 -1.7548
18942TIP3   OH278316   2.251   2.177  17.028  0.2877  0.0396  0.0558
18942TIP3    H178317   2.341   2.158  17.002 -0.3873 -1.7456 -1.0571
18942TIP3    H278318   2.233   2.262  16.989  0.6540 -0.7580 -1.9301
18943TIP3   OH278319   3.541   2.306  14.936  0.7875 -0.1955 -0.2721
18943TIP3    H178320   3.526   2.341  14.849 -1.1186 -0.0174  0.1159
18943TIP3    H278321   3.587   2.376  14.983  1.5410 -0.1764 -1.0153
18944TIP3   OH278322   4.367   6.105  16.721 -0.8117  0.0849 -0.0004
18944TIP3    H178323   4.452   6.136  16.750 -0.9167 -0.8808  1.3610
18944TIP3    H278324   4.316   6.185  16.705  0.4743  0.6692 -1.2436
18945TIP3   OH278325   4.538   0.640   5.321  0.4020 -0.6259 -0.0632
18945TIP3    H178326   4.602   0.706   5.347 -0.4160  0.3223 -0.4111
18945TIP3    H278327   4.586   0.558   5.322  1.1132 -0.2009  1.6033
18946TIP3   OH278328   1.292   3.536  11.597 -0.5674 -0.2017  0.2550
18946TIP3    H178329   1.301   3.441  11.593  0.6565 -0.0456 -1.0092
18946TIP3    H278330   1.225   3.556  11.531  0.3559 -0.0426 -0.6391
18947TIP3   OH278331   4.060   4.382   1.307 -0.2873 -0.1839  0.0580
18947TIP3    H178332   4.008   4.412   1.232 -0.6310 -0.8111  0.0316
18947TIP3    H278333   4.135   4.440   1.309 -0.3686 -0.0399 -0.6661
18948TIP3   OH278334   4.530   2.647   3.841  0.3980  0.2052 -0.6699
18948TIP3    H178335   4.499   2.737   3.845  2.2739  0.8737 -0.8104
18948TIP3    H278336   4.458   2.599   3.799  0.4548  2.1161 -3.0442
18949TIP3   OH278337   1.729   3.890  10.810  0.5601  0.2304 -0.2999
18949TIP3    H178338   1.755   3.809  10.854  0.6240 -0.1435 -1.0152
18949TIP3    H278339   1.683   3.941  10.877  1.4535  0.0685  0.4514
18950TIP3   OH278340   1.415   4.050  14.534  0.0101  0.2647  0.1853
18950TIP3    H178341   1.439   4.015  14.448 -0.1516  0.3793  0.0934
18950TIP3    H278342   1.495   4.093  14.565 -0.0098  0.4469 -0.0196
18951TIP3   OH278343   1.461   3.471  15.749 -0.5359 -0.4014  0.1466
18951TIP3    H178344   1.405   3.440  15.679  1.9321 -0.3442 -1.9183
18951TIP3    H278345   1.454   3.404  15.817 -1.6762 -1.2741 -0.8120
18952TIP3   OH278346   2.361   3.554  16.053  0.5179 -0.6777  0.1005
18952TIP3    H178347   2.286   3.586  16.103  0.6565  0.8903 -0.6553
18952TIP3    H278348   2.419   3.516  16.119 -0.5159 -1.0700  0.8005
18953TIP3   OH278349   3.203   0.680  11.051 -0.4194  0.1001  0.0030
18953TIP3    H178350   3.284   0.728  11.070 -0.0086 -1.0918  1.3793
18953TIP3    H278351   3.174   0.715  10.967  1.2593  0.8970 -0.2795
18954TIP3   OH278352   3.990   3.539   0.637 -0.2366 -0.1070 -0.0904
18954TIP3    H178353   4.014   3.613   0.692 -0.9476 -0.4149  0.6521
18954TIP3    H278354   3.944   3.577   0.563  0.2181  0.2699 -0.1739
18955TIP3   OH278355   6.593   5.122   1.987 -0.2110  0.1444  0.3064
18955TIP3    H178356   6.532   5.049   1.978 -0.7693  0.8082 -1.7452
18955TIP3    H278357   6.613   5.148   1.896  1.5351  1.2379  0.9715
18956TIP3   OH278358   3.644   6.036   1.495  0.4476 -0.0635  0.7871
18956TIP3    H178359   3.621   5.991   1.576  1.6148 -1.1377  0.5500
18956TIP3    H278360   3.727   6.079   1.514 -2.0773  4.5695  1.9403
18957TIP3   OH278361   4.187   0.938  15.044  0.2931  0.2342 -0.2095
18957TIP3    H178362   4.140   0.911  14.966  0.2055  0.1634 -0.1315
18957TIP3    H278363   4.241   0.862  15.068 -1.2753 -0.5300  1.0380
18958TIP3   OH278364   4.278   5.635   4.904 -0.2940 -0.5640 -0.1474
18958TIP3    H178365   4.334   5.585   4.963 -0.7086  0.5153  1.1950
18958TIP3    H278366   4.262   5.717   4.950 -3.4145 -1.0557 -0.2689
18959TIP3   OH278367   4.191   6.358  10.273 -0.7248 -0.0242  0.1175
18959TIP3    H178368   4.187   6.432  10.333 -1.3673 -0.1368  0.2095
18959TIP3    H278369   4.166   6.394  10.188  2.1956  0.5994 -0.5337
18960TIP3   OH278370   4.337   0.488  13.633  0.3547  0.0268  0.6893
18960TIP3    H178371   4.294   0.565  13.594  2.7556  1.1396  0.1562
18960TIP3    H278372   4.279   0.415  13.611 -0.8705  1.3612 -0.6787
18961TIP3   OH278373   0.771   6.245   0.453 -0.7144 -0.6220  0.6968
18961TIP3    H178374   0.783   6.164   0.404  1.6997  0.7635 -1.1317
18961TIP3    H278375   0.738   6.308   0.389  1.8822  1.0380  0.8758
18962TIP3   OH278376   2.938   5.731   5.007 -0.1323  0.9556  0.4458
18962TIP3    H178377   2.854   5.745   5.050  0.0848  0.5249  1.0111
18962TIP3    H278378   3.003   5.762   5.070  0.2663 -1.0489  1.0550
18963TIP3   OH278379   5.089   2.197  16.224  0.0617 -0.2810 -0.2857
18963TIP3    H178380   5.076   2.145  16.144 -0.1351  0.5174 -0.7740
18963TIP3    H278381   5.001   2.229  16.246 -0.2034 -1.9418  1.2587
18964TIP3   OH278382   0.147   6.084  14.968 -0.0407 -0.0635  0.4618
18964TIP3    H178383   0.091   6.154  15.002 -0.2244  0.6453 -1.2418
18964TIP3    H278384   0.224   6.084  15.025 -1.3004 -0.3757  2.2092
18965TIP3   OH278385   1.865   0.023   1.464 -0.4447 -0.0929  0.7207
18965TIP3    H178386   1.940   0.073   1.433 -0.4211  0.5687  1.8225
18965TIP3    H278387   1.856  -0.049   1.401  1.0175 -0.0872  0.4991
18966TIP3   OH278388   2.658   6.595   0.297 -0.1988 -0.2209 -0.3288
18966TIP3    H178389   2.696   6.605   0.209  1.4246  2.1343  0.5730
18966TIP3    H278390   2.600   6.670   0.307 -0.1568 -0.3198  0.7200
18967TIP3   OH278391   3.340   4.433   2.924 -0.2414 -0.4443  0.3882
18967TIP3    H178392   3.378   4.346   2.910  1.3623  0.1500  0.9442
18967TIP3    H278393   3.324   4.437   3.018 -0.0362 -0.0376  0.4062
18968TIP3   OH278394   0.572   3.517   2.846  0.3390  0.3650 -0.5963
18968TIP3    H178395   0.521   3.478   2.775 -0.4420 -1.1572  0.7667
18968TIP3    H278396   0.661   3.485   2.832  0.4745  1.1757 -1.6592
18969TIP3   OH278397   4.708   0.362   0.114  0.4303  0.0097 -0.1321
18969TIP3    H178398   4.774   0.326   0.173  0.5422  0.3447 -0.0543
18969TIP3    H278399   4.667   0.433   0.164  1.1097  0.8639 -0.7743
18970TIP3   OH278400   4.885   6.379  16.310 -0.8188  0.2165  0.3175
18970TIP3    H178401   4.844   6.293  16.311  2.7255 -1.5840 -0.3762
18970TIP3    H278402   4.863   6.417  16.395 -0.9666 -2.1397  1.3710
18971TIP3   OH278403   1.072   2.897   0.406 -0.5069 -0.5369  0.4336
18971TIP3    H178404   1.125   2.824   0.373 -1.0800 -0.3284 -0.9600
18971TIP3    H278405   0.997   2.902   0.347  0.0758  1.8714 -0.1774
18972TIP3   OH278406   2.280   1.594   5.546  0.0467 -0.2408  0.2360
18972TIP3    H178407   2.352   1.615   5.606 -0.7713  0.9194  0.8125
18972TIP3    H278408   2.296   1.502   5.523 -1.5337 -1.8520  4.9080
18973TIP3   OH278409   1.479   3.955  11.676 -0.9004 -0.4547  0.5919
18973TIP3    H178410   1.389   3.967  11.705 -0.6174  0.8211  0.9514
18973TIP3    H278411   1.518   4.042  11.680  0.3488 -0.9943  0.4328
18974TIP3   OH278412   3.329   2.305  16.247  0.1462 -0.0036 -0.6158
18974TIP3    H178413   3.424   2.308  16.232  0.1028 -2.5219 -1.5163
18974TIP3    H278414   3.318   2.242  16.317 -1.0732 -2.1965 -2.7073
18975TIP3   OH278415   2.219   5.763   2.801 -0.0967 -0.1263 -0.7597
18975TIP3    H178416   2.301   5.753   2.850  0.3229 -1.3392 -1.6699
18975TIP3    H278417   2.152   5.771   2.868  0.7797  0.9439  0.0009
18976TIP3   OH278418   1.377   0.043   0.968  0.2009 -0.0631  0.2640
18976TIP3    H178419   1.448   0.092   0.925 -0.8554 -0.3752 -1.9151
18976TIP3    H278420   1.423  -0.021   1.023  1.6213 -0.0010 -0.8013
18977TIP3   OH278421   1.119   1.242   5.105  0.2948  0.2491 -0.4209
18977TIP3    H178422   1.063   1.227   5.029  0.5115 -1.5964 -0.2254
18977TIP3    H278423   1.086   1.323   5.144 -0.7981  0.3713 -1.5931
18978TIP3   OH278424   1.569   3.775   5.666 -0.2215  0.3673  0.0588
18978TIP3    H178425   1.621   3.852   5.689 -0.3717  0.0563  1.5263
18978TIP3    H278426   1.549   3.734   5.751 -0.3307 -1.1565 -0.6938
18979TIP3   OH278427   1.511   0.153  13.466  0.5166  0.1634 -0.3695
18979TIP3    H178428   1.518   0.197  13.551  1.8838  0.9185 -0.8634
18979TIP3    H278429   1.450   0.207  13.416 -0.7264 -0.5879  0.3087
18980TIP3   OH278430   0.683   5.201  12.115  0.1143  0.2193  0.0925
18980TIP3    H178431   0.738   5.228  12.188 -1.7208 -1.1597  2.0563
18980TIP3    H278432   0.670   5.107  12.129 -0.7619  0.0568 -1.6764
18981TIP3   OH278433   4.055   1.632  16.331  0.0538  0.0779 -0.1104
18981TIP3    H178434   4.046   1.727  16.325  0.3301  0.0492 -1.0696
18981TIP3    H278435   4.103   1.608  16.252 -0.7050 -0.9510 -0.2559
18982TIP3   OH278436   4.982   4.107  11.952  0.4706  0.4733 -0.4721
18982TIP3    H178437   4.992   4.031  11.894  1.9677  0.4227 -0.1877
18982TIP3    H278438   4.976   4.182  11.893 -0.4576  0.1913 -0.7425
18983TIP3   OH278439   3.082   5.798  16.157  0.2526  0.0356 -0.3629
18983TIP3    H178440   3.129   5.837  16.231 -0.0306  1.5112 -0.9516
18983TIP3    H278441   3.123   5.837  16.080 -0.7405 -0.0314 -0.9279
18984TIP3   OH278442   4.394   6.727   2.529 -0.1931  0.2347 -0.2259
18984TIP3    H178443   4.307   6.692   2.507 -0.6637  0.3315  1.3631
18984TIP3    H278444   4.441   6.728   2.446 -1.0341 -1.7328 -0.7657
18985TIP3   OH278445   5.651   0.049   2.971  0.8086 -0.0453  0.2309
18985TIP3    H178446   5.705   0.075   3.045  0.8592  0.9347 -0.1395
18985TIP3    H278447   5.563   0.040   3.007  1.1396 -1.3185  0.7673
18986TIP3   OH278448   4.914   5.982  15.632 -0.4404  0.1264 -0.1479
18986TIP3    H178449   4.835   6.034  15.646 -0.1842 -0.1438  2.6171
18986TIP3    H278450   4.882   5.892  15.624 -0.4166  0.0115  1.0190
18987TIP3   OH278451   1.481   0.579   0.194  0.6797  0.1138 -0.0188
18987TIP3    H178452   1.413   0.520   0.161  0.3947  0.2152  0.3759
18987TIP3    H278453   1.514   0.535   0.272  1.4809 -0.2150 -0.5331
18988TIP3   OH278454   4.242   3.589  16.998 -0.4981 -0.2199 -0.2091
18988TIP3    H178455   4.246   3.681  17.026  1.5586 -0.9701  2.1341
18988TIP3    H278456   4.185   3.547  17.063  0.4763 -1.0542  0.1078
18989TIP3   OH278457   6.578   2.606  16.587 -0.2873  0.5772 -0.9230
18989TIP3    H178458   6.657   2.558  16.610 -0.5647  0.7091  0.3571
18989TIP3    H278459   6.544   2.638  16.671 -1.6123  0.6489 -1.4703
18990TIP3   OH278460   3.136   4.703  11.097  0.3599  0.1446 -0.3821
18990TIP3    H178461   3.061   4.646  11.113 -2.1866  2.8232 -2.2202
18990TIP3    H278462   3.178   4.667  11.019  0.1326 -0.5348 -0.1930
18991TIP3   OH278463   5.425   4.051   6.028  0.1393  0.2871 -0.1148
18991TIP3    H178464   5.354   4.101   5.989  0.2639  1.2886  0.9123
18991TIP3    H278465   5.425   4.077   6.121  0.0218 -1.8341  0.5051
18992TIP3   OH278466   1.700   5.562   6.634 -0.2394 -0.4724  0.3097
18992TIP3    H178467   1.776   5.619   6.627  0.5574 -1.7912 -2.7247
18992TIP3    H278468   1.625   5.616   6.608 -0.0090  0.1297  0.8848
18993TIP3   OH278469   6.655   2.141   2.482 -0.2620 -0.1271 -0.3696
18993TIP3    H178470   6.602   2.154   2.561  1.2549  2.8875  0.2468
18993TIP3    H278471   6.745   2.131   2.515  0.1924 -0.2268 -1.6365
18994TIP3   OH278472   1.547   1.703   7.011  0.2617  0.2399 -0.2231
18994TIP3    H178473   1.478   1.729   7.072 -0.3392 -0.1752 -0.7174
18994TIP3    H278474   1.521   1.617   6.981  1.5988 -0.4181  0.4532
18995TIP3   OH278475   1.005   2.668   4.655 -0.4155  0.0065 -0.5459
18995TIP3    H178476   1.017   2.584   4.612 -1.1978  1.1961 -3.1498
18995TIP3    H278477   0.978   2.728   4.586 -3.0051  1.6971  1.8014
18996TIP3   OH278478   6.329   2.145   6.424 -0.2465  0.1932  0.1035
18996TIP3    H178479   6.244   2.146   6.380 -0.7871  0.0288  1.1048
18996TIP3    H278480   6.346   2.052   6.440  0.2459  0.2085 -0.3248
18997TIP3   OH278481   2.811   3.532  14.156  0.4408  0.4303 -0.2701
18997TIP3    H178482   2.799   3.612  14.105  1.8825  0.5559 -0.4112
18997TIP3    H278483   2.901   3.536  14.187 -0.1764 -0.0086  1.6654
18998TIP3   OH278484   4.825   1.273  12.860 -0.2222  0.6895  0.5244
18998TIP3    H178485   4.802   1.247  12.949 -0.6177  1.3989  0.6409
18998TIP3    H278486   4.893   1.211  12.833 -2.7086 -1.8706 -0.0523
18999TIP3   OH278487   0.760   0.019   0.267  0.0347 -0.1821 -0.8088
18999TIP3    H178488   0.681   0.069   0.289  0.0288 -0.1063 -1.0022
18999TIP3    H278489   0.832   0.080   0.283  0.1092 -0.5107  0.1496
19000TIP3   OH278490   3.128   3.103  16.571 -0.1448  0.8263  0.1056
19000TIP3    H178491   3.066   3.166  16.535 -0.5359  0.3915  0.0298
19000TIP3    H278492   3.185   3.081  16.497 -0.9460 -0.0643 -0.2390
19001TIP3   OH278493   0.243   2.369  13.560 -0.4054 -0.1681  0.3682
19001TIP3    H178494   0.332   2.359  13.526  0.0219  0.3771  1.3043
19001TIP3    H278495   0.246   2.330  13.647 -0.9476  0.3240  0.6123
19002TIP3   OH278496   3.688   0.781  15.002  0.3986  0.1113 -0.5609
19002TIP3    H178497   3.623   0.848  14.982 -0.9946 -1.5972 -1.8389
19002TIP3    H278498   3.707   0.739  14.918 -0.0220 -2.2277  0.4769
19003TIP3   OH278499   2.678   5.105   2.275  0.0371 -0.3877 -0.1282
19003TIP3    H178500   2.621   5.075   2.204 -0.6327  1.5665 -0.4519
19003TIP3    H278501   2.755   5.048   2.270  0.1898  0.0200 -2.7037
19004TIP3   OH278502   5.102   3.128   0.046 -0.6026  0.2381  0.0232
19004TIP3    H178503   5.100   3.051  -0.011 -2.5132  0.9166 -0.8615
19004TIP3    H278504   5.131   3.094   0.131  0.4160 -1.1094 -0.8447
19005TIP3   OH278505   2.432   5.812  15.260  0.0003 -0.7619 -0.2381
19005TIP3    H178506   2.411   5.786  15.350  0.2555 -1.3530 -0.3449
19005TIP3    H278507   2.416   5.733  15.208  0.5674 -0.6446 -0.6008
19006TIP3   OH278508   5.219   5.988  12.600 -0.5182  0.2543  0.1950
19006TIP3    H178509   5.261   6.015  12.518 -1.2758 -0.0386 -0.2938
19006TIP3    H278510   5.167   5.912  12.576 -2.6254  1.5856  0.4308
19007TIP3   OH278511   3.985   6.313   5.422 -0.1916 -0.0522 -0.0334
19007TIP3    H178512   3.958   6.284   5.509  0.5909  0.6511  0.4571
19007TIP3    H278513   4.077   6.336   5.432 -0.1416  0.1946 -1.0076
19008TIP3   OH278514   6.687   2.604  12.199 -0.4138 -0.4238  0.3899
19008TIP3    H178515   6.704   2.571  12.110 -0.6232 -1.8912  0.8791
19008TIP3    H278516   6.591   2.606  12.205 -0.3981  0.1734  0.3986
19009TIP3   OH278517   3.933   0.660   1.458 -0.1831  0.3354 -0.1050
19009TIP3    H178518   3.925   0.695   1.369 -3.2629  0.0011  0.0049
19009TIP3    H278519   3.988   0.723   1.504  1.6040  0.4196 -2.2784
19010TIP3   OH278520   4.081   0.084  16.470 -0.5633  0.0036 -0.2483
19010TIP3    H178521   4.116   0.173  16.460 -1.0569  0.1392 -0.7932
19010TIP3    H278522   3.988   0.093  16.452 -0.4257 -0.8223 -1.4356
19011TIP3   OH278523   2.632   5.557  10.784 -0.7308 -0.3539 -0.0661
19011TIP3    H178524   2.551   5.587  10.827 -1.1620 -1.1459 -0.3010
19011TIP3    H278525   2.631   5.600  10.699 -0.9905 -0.4729 -0.1261
19012TIP3   OH278526   3.218   2.362   3.273  0.3847 -0.5454 -0.1578
19012TIP3    H178527   3.187   2.448   3.247 -0.0946 -0.5537  0.3774
19012TIP3    H278528   3.300   2.350   3.225 -0.2872 -0.4001 -1.3440
19013TIP3   OH278529   5.302   2.325   1.567  0.0241  0.5078  0.0050
19013TIP3    H178530   5.357   2.247   1.570 -0.2161  0.2972 -0.9366
19013TIP3    H278531   5.213   2.292   1.574 -0.0264  0.7877  0.7254
19014TIP3   OH278532   3.567   4.257   4.166 -0.0746  0.0526  0.1125
19014TIP3    H178533   3.527   4.343   4.179  0.7355  0.0386  2.9401
19014TIP3    H278534   3.494   4.201   4.139 -0.8123  1.3656 -0.6815
19015TIP3   OH278535   2.747   3.075   5.639 -0.1738 -0.1164 -0.3597
19015TIP3    H178536   2.664   3.062   5.593  0.1883 -0.2419 -0.9878
19015TIP3    H278537   2.800   2.998   5.617  0.6533  0.6673 -1.1827
19016TIP3   OH278538   3.600   5.638   0.627 -0.2859  0.2679 -0.4227
19016TIP3    H178539   3.606   5.561   0.684 -1.9348 -0.1932 -0.8263
19016TIP3    H278540   3.576   5.602   0.542 -2.5072  1.3309 -0.2732
19017TIP3   OH278541   6.206   0.431   2.019 -0.7639 -0.1028  0.0453
19017TIP3    H178542   6.117   0.426   1.984 -0.4029 -0.1773 -0.8739
19017TIP3    H278543   6.232   0.522   2.003 -0.7307 -0.0395  0.4565
19018TIP3   OH278544   5.752   4.611  14.282  0.0399  0.2167 -0.2807
19018TIP3    H178545   5.810   4.675  14.322  0.5810  1.0760 -2.3425
19018TIP3    H278546   5.679   4.603  14.343  1.4202  0.5472  1.4274
19019TIP3   OH278547   5.296   1.396  15.389 -0.3622 -0.4028  0.3799
19019TIP3    H178548   5.219   1.406  15.333  0.8700  0.5639 -1.1890
19019TIP3    H278549   5.361   1.353  15.333  0.5429 -0.3581  1.3795
19020TIP3   OH278550   5.527   4.049  14.533  0.3953  0.2759  0.2124
19020TIP3    H178551   5.489   4.077  14.450  0.3867 -2.0582 -0.5843
19020TIP3    H278552   5.509   4.122  14.593 -0.5583  1.5064 -1.5290
19021TIP3   OH278553   5.700   2.120   4.795  0.0347  0.0968  0.4046
19021TIP3    H178554   5.714   2.071   4.876  0.0813 -0.5236  0.0231
19021TIP3    H278555   5.629   2.074   4.751 -0.1058  0.5344  0.1720
19022TIP3   OH278556   0.526   2.410   1.305  0.2049 -0.6026  0.2885
19022TIP3    H178557   0.620   2.402   1.285  0.6714  1.2806  1.5970
19022TIP3    H278558   0.497   2.486   1.256 -0.3568 -0.4247  0.8900
19023TIP3   OH278559   3.789   5.000  11.846 -0.3068 -0.2649  0.1589
19023TIP3    H178560   3.845   4.924  11.862 -0.3698 -0.2346  0.5373
19023TIP3    H278561   3.721   4.994  11.913 -0.1821  0.2441  0.3382
19024TIP3   OH278562   3.742   6.085  13.490 -0.1682  0.3714  0.2388
19024TIP3    H178563   3.813   6.077  13.555  0.9405  4.4728 -0.3641
19024TIP3    H278564   3.686   6.154  13.524 -0.5771  1.3103 -2.2636
19025TIP3   OH278565   6.450   4.823  10.675  0.3957  0.5080  0.2894
19025TIP3    H178566   6.448   4.848  10.583 -0.9155  1.0767  0.4685
19025TIP3    H278567   6.399   4.890  10.720  0.5106 -0.1035  1.3563
19026TIP3   OH278568   5.958   2.812   2.109 -0.1301  0.5608 -0.0843
19026TIP3    H178569   5.928   2.721   2.113 -0.5694  0.7583  1.0958
19026TIP3    H278570   5.951   2.835   2.017  2.0601 -1.3134 -0.7697
19027TIP3   OH278571   2.859   5.377  11.242  0.0110 -0.0628 -0.1155
19027TIP3    H178572   2.873   5.365  11.148 -0.3944  0.0002 -0.1858
19027TIP3    H278573   2.843   5.288  11.274  0.8109 -0.1706  0.0104
19028TIP3   OH278574   1.530   0.460  16.987 -0.1824 -0.2231 -0.1465
19028TIP3    H178575   1.525   0.548  17.025 -1.2244 -0.7606  1.0051
19028TIP3    H278576   1.522   0.401  17.062 -0.3212 -1.2974 -0.9951
19029TIP3   OH278577   4.111   5.674   0.130  0.4033  0.5379 -0.3821
19029TIP3    H178578   4.024   5.663   0.093 -0.1195 -1.8000  1.3714
19029TIP3    H278579   4.158   5.727   0.066 -2.2780  1.8016 -1.3712
19030TIP3   OH278580   4.720   2.905  11.772  0.4733  0.7619  0.0026
19030TIP3    H178581   4.710   2.942  11.860  0.6541  0.5462  0.1117
19030TIP3    H278582   4.687   2.974  11.714  0.0862  0.7911  0.2551
19031TIP3   OH278583   0.951   5.602   0.339  0.0747 -0.1311 -0.3879
19031TIP3    H178584   0.879   5.572   0.394 -1.8232 -1.2741 -3.3186
19031TIP3    H278585   1.002   5.522   0.321 -0.4575 -0.1714 -1.8132
19032TIP3   OH278586   3.800   1.929  14.855  0.6531  0.2705 -0.4668
19032TIP3    H178587   3.873   1.961  14.908  0.6532  1.7559 -1.3369
19032TIP3    H278588   3.771   2.006  14.806  0.0541 -0.8746 -1.9268
19033TIP3   OH278589   2.820   5.177   1.195 -0.5657 -0.0519 -0.0886
19033TIP3    H178590   2.880   5.110   1.227  0.3746  0.6099 -0.4630
19033TIP3    H278591   2.833   5.179   1.101 -1.5429 -0.2589 -0.2349
19034TIP3   OH278592   3.677   2.436  16.507  0.3876 -0.1453 -0.0655
19034TIP3    H178593   3.745   2.492  16.543  0.1186  1.6205 -2.2125
19034TIP3    H278594   3.599   2.491  16.505 -0.6021 -1.4868  0.3666
19035TIP3   OH278595   1.098   2.009   4.658 -0.3507  0.1211 -0.3748
19035TIP3    H178596   1.173   1.960   4.624  0.0689  0.1997  0.4289
19035TIP3    H278597   1.056   2.045   4.580  1.3336  1.3458 -0.7562
19036TIP3   OH278598   0.231   6.754   4.964  0.4160 -0.0924 -0.1488
19036TIP3    H178599   0.226   6.670   5.008  2.5641  0.7206  1.7502
19036TIP3    H278600   0.143   6.790   4.969  0.1370 -0.9993  1.5177
19037TIP3   OH278601   4.707   5.954   1.157  0.1269 -0.1409 -0.0765
19037TIP3    H178602   4.612   5.950   1.152  0.0509  0.9119  0.5231
19037TIP3    H278603   4.733   6.008   1.083  0.1803  0.5391  0.4375
19038TIP3   OH278604   3.732   2.545  12.411  0.5564  0.6451 -0.0395
19038TIP3    H178605   3.799   2.575  12.472 -0.3295  1.2776  0.6455
19038TIP3    H278606   3.690   2.471  12.456 -0.2780  1.2845  0.2493
19039TIP3   OH278607   0.626   6.666  13.985  0.8502 -0.6416  0.4321
19039TIP3    H178608   0.607   6.759  13.990  0.3198 -0.8290  2.6825
19039TIP3    H278609   0.560   6.631  13.925  0.0002  0.1738  0.8889
19040TIP3   OH278610   0.013   3.707  16.530 -0.7864  0.3494 -0.0188
19040TIP3    H178611  -0.028   3.656  16.599  2.4165  0.0785  1.7518
19040TIP3    H278612   0.065   3.643  16.480  2.4657  1.5941  1.6183
19041TIP3   OH278613   6.370   3.728  15.905 -0.0750 -0.3666  0.4264
19041TIP3    H178614   6.447   3.689  15.946 -0.5366  1.5930  3.2628
19041TIP3    H278615   6.406   3.794  15.845  0.4687  0.0989  1.2601
19042TIP3   OH278616   3.886   0.269   0.281 -0.0922 -0.0703 -0.1107
19042TIP3    H178617   3.947   0.304   0.217 -0.1104 -0.7820 -0.5204
19042TIP3    H278618   3.890   0.331   0.354  0.7996  0.1105 -0.3058
19043TIP3   OH278619   3.943   2.299   0.716  0.5852  0.4535  0.0506
19043TIP3    H178620   3.984   2.267   0.797  1.6700  2.2803  0.2541
19043TIP3    H278621   3.976   2.240   0.648 -0.1703 -0.9645  0.8949
19044TIP3   OH278622   2.552   3.240   5.750  0.1998  0.7801  0.3670
19044TIP3    H178623   2.556   3.235   5.845 -0.4531  0.6718  0.3925
19044TIP3    H278624   2.638   3.211   5.721 -0.6571 -2.4055  0.8100
19045TIP3   OH278625   4.341   4.646   3.364  0.2411 -0.2285  0.3109
19045TIP3    H178626   4.358   4.554   3.348  2.0124  0.3117 -1.0774
19045TIP3    H278627   4.425   4.682   3.393 -0.8387  0.6167  2.5178
19046TIP3   OH278628   5.280   6.654   3.411 -0.1797 -0.5950 -0.5872
19046TIP3    H178629   5.311   6.714   3.478  0.3890  0.2293 -1.5615
19046TIP3    H278630   5.294   6.702   3.328 -0.9964 -1.5228 -1.2718
19047TIP3   OH278631   1.750   0.277   0.112 -0.1752  0.1265 -0.9479
19047TIP3    H178632   1.823   0.223   0.082 -0.0946 -0.0614 -0.4019
19047TIP3    H278633   1.781   0.319   0.192  0.4430  2.4817 -2.3807
19048TIP3   OH278634   1.978   0.156   3.284 -0.0569  0.6242  0.0343
19048TIP3    H178635   2.072   0.138   3.279 -0.0710  0.1600  1.2540
19048TIP3    H278636   1.968   0.211   3.362 -0.8304  0.4157  0.0870
19049TIP3   OH278637   1.029   2.759  15.520 -0.0024 -0.5616  0.6497
19049TIP3    H178638   1.055   2.707  15.444 -1.1599 -0.8245  0.4228
19049TIP3    H278639   1.082   2.839  15.513 -0.9681 -0.0472 -1.1259
19050TIP3   OH278640   0.553   0.487   0.809 -0.2392  0.8794 -0.1083
19050TIP3    H178641   0.522   0.403   0.842  2.4897  0.1669  0.7439
19050TIP3    H278642   0.505   0.499   0.727 -1.2517 -1.0967  0.1508
19051TIP3   OH278643   5.331   1.619  15.769  1.0379  0.0380  0.2133
19051TIP3    H178644   5.308   1.606  15.861  1.2462  0.9073  0.3952
19051TIP3    H278645   5.397   1.689  15.770 -0.9984  2.0314 -0.8210
19052TIP3   OH278646   5.265   4.911   3.905  0.3107 -0.5469 -0.5678
19052TIP3    H178647   5.356   4.932   3.925  0.4824 -0.5591 -1.3409
19052TIP3    H278648   5.240   4.973   3.836 -1.3429  1.8429  2.0435
19053TIP3   OH278649   1.522   1.423   3.208  0.9405  0.2399 -0.6836
19053TIP3    H178650   1.553   1.334   3.198 -1.3801 -1.0628  2.9427
19053TIP3    H278651   1.436   1.424   3.165  0.9155  0.7027 -0.6332
19054TIP3   OH278652   4.810   0.352   4.594 -0.2965  0.3635  0.0232
19054TIP3    H178653   4.884   0.409   4.571 -0.1638  0.4380  0.6114
19054TIP3    H278654   4.851   0.279   4.640 -0.6025  0.4966  0.5144
19055TIP3   OH278655   3.285   5.376  16.979 -0.6009 -0.2366  0.6622
19055TIP3    H178656   3.195   5.404  16.996 -0.2687  0.2179  1.7055
19055TIP3    H278657   3.323   5.448  16.927 -1.0757 -0.7989 -0.4739
19056TIP3   OH278658   6.459   3.249   1.215 -0.0384 -0.3194  0.0704
19056TIP3    H178659   6.366   3.232   1.200  0.1712 -1.3626 -0.1148
19056TIP3    H278660   6.481   3.319   1.154 -1.2387  1.5569  1.7359
19057TIP3   OH278661   1.094   5.751   6.135  0.0642 -0.7236  0.0589
19057TIP3    H178662   1.087   5.683   6.201  0.2989 -0.5464  0.2652
19057TIP3    H278663   1.016   5.805   6.149  0.9170  0.2302  1.2249
19058TIP3   OH278664   2.911   5.054  13.071  0.1879  0.2185  0.0498
19058TIP3    H178665   2.981   5.010  13.119 -0.7034 -0.9855  0.2595
19058TIP3    H278666   2.833   5.004  13.092 -0.3161  0.0017 -2.2412
19059TIP3   OH278667   4.883   3.222  14.923 -0.5414 -0.5659  0.7941
19059TIP3    H178668   4.848   3.252  14.839 -1.9500  0.2908  1.6637
19059TIP3    H278669   4.814   3.168  14.960 -0.6645  0.5020  2.1797
19060TIP3   OH278670   1.482   3.553  10.888 -0.1648  0.1721 -0.1517
19060TIP3    H178671   1.479   3.489  10.817  0.2498 -0.5605  0.4845
19060TIP3    H278672   1.572   3.586  10.887  0.3284 -1.0753  1.1021
19061TIP3   OH278673   2.563   3.470  13.886  0.0226  0.2669 -0.2992
19061TIP3    H178674   2.500   3.483  13.815  1.5740  1.6828 -1.4529
19061TIP3    H278675   2.546   3.543  13.947 -1.6970 -1.2727  1.1157
19062TIP3   OH278676   4.456   0.873   0.004  0.3310  0.2369 -0.7007
19062TIP3    H178677   4.388   0.887  -0.062  0.7829 -1.6334 -1.5774
19062TIP3    H278678   4.509   0.954   0.000 -0.4448  0.7144 -1.6652
19063TIP3   OH278679   1.401   6.331  12.516  0.1953 -0.0929  0.1817
19063TIP3    H178680   1.432   6.331  12.606  0.6376  0.4518  0.0334
19063TIP3    H278681   1.350   6.411  12.507 -0.8681 -0.7560  0.2888
19064TIP3   OH278682   6.460   4.998  10.936 -0.8609  0.1306  0.1960
19064TIP3    H178683   6.375   5.008  10.894 -0.3692  1.4540 -0.4970
19064TIP3    H278684   6.514   5.067  10.898 -0.1867  0.8608  2.4179
19065TIP3   OH278685   5.806   5.960   6.156 -0.2668  0.2026  0.5698
19065TIP3    H178686   5.711   5.944   6.159 -0.0925 -1.1372 -0.3539
19065TIP3    H278687   5.843   5.900   6.221  0.0219  0.0727  0.2883
19066TIP3   OH278688   3.291   0.863   4.588 -0.3387  0.4540 -0.0499
19066TIP3    H178689   3.350   0.921   4.539 -0.6398  0.3860 -0.4910
19066TIP3    H278690   3.209   0.913   4.595 -0.8892 -0.2791 -1.2015
19067TIP3   OH278691   4.945   5.219   3.710 -0.3589  0.3263  0.1302
19067TIP3    H178692   4.865   5.264   3.682 -0.5936  0.5417  1.1284
19067TIP3    H278693   4.967   5.261   3.793  1.1275  0.6814 -0.4403
19068TIP3   OH278694   3.945   3.047   0.879 -0.1943 -0.7392 -0.3241
19068TIP3    H178695   3.959   3.141   0.868 -2.0021 -0.3371  0.5266
19068TIP3    H278696   3.995   3.025   0.958 -0.0120 -0.4051 -0.3468
19069TIP3   OH278697   1.610   5.335  13.848 -0.3840  0.2280 -0.1171
19069TIP3    H178698   1.587   5.427  13.833  1.4830  0.3996 -2.1746
19069TIP3    H278699   1.576   5.290  13.771  0.9647 -0.4221 -0.3282
19070TIP3   OH278700   6.246   2.088  15.581  0.1694  0.2965  0.5483
19070TIP3    H178701   6.282   2.027  15.646 -0.2160 -0.1097  0.3792
19070TIP3    H278702   6.314   2.095  15.514 -0.3521 -1.0026 -0.1152
19071TIP3   OH278703   4.236   6.043  14.299  0.2418  0.4558 -0.6560
19071TIP3    H178704   4.313   6.047  14.355 -0.0579  0.6285 -0.2565
19071TIP3    H278705   4.187   5.967  14.330  0.9923 -0.5424 -1.8770
19072TIP3   OH278706   0.408   0.847   4.745  0.0787 -0.3436 -0.2989
19072TIP3    H178707   0.462   0.777   4.708 -0.9935 -1.5968  0.4693
19072TIP3    H278708   0.370   0.891   4.669  0.2089 -1.0335 -0.7617
19073TIP3   OH278709   3.484   3.210  11.393 -0.1953 -0.2012 -0.0651
19073TIP3    H178710   3.475   3.233  11.486  0.3885 -0.3214  0.0184
19073TIP3    H278711   3.434   3.278  11.348 -0.7646 -0.3321  0.3559
19074TIP3   OH278712   5.867   0.768  15.468  0.2341 -0.3873  0.1634
19074TIP3    H178713   5.847   0.716  15.546 -1.7957 -0.8925 -0.6575
19074TIP3    H278714   5.883   0.703  15.399  1.3032  0.0591 -0.0217
19075TIP3   OH278715   4.962   3.703  15.625  0.0237  0.0499  0.2148
19075TIP3    H178716   5.023   3.766  15.585 -0.4114  0.0161 -0.5211
19075TIP3    H278717   5.017   3.627  15.645  0.4084  0.3779  0.4110
19076TIP3   OH278718   2.887   2.716  17.114  0.0609 -0.0964 -0.1278
19076TIP3    H178719   2.906   2.764  17.033 -2.5172 -1.2963 -1.5050
19076TIP3    H278720   2.815   2.658  17.091  0.8683 -2.1940  2.4160
19077TIP3   OH278721   4.473   6.447   1.420  0.6074 -0.1688  0.0213
19077TIP3    H178722   4.437   6.472   1.505 -0.1144 -0.2358 -0.2593
19077TIP3    H278723   4.537   6.379   1.440 -0.3149 -0.9291  0.4214
19078TIP3   OH278724   5.500   5.441   2.551 -0.1553  0.1701  0.7336
19078TIP3    H178725   5.406   5.430   2.568 -0.8656 -2.5950 -3.8850
19078TIP3    H278726   5.511   5.535   2.542 -2.5089  0.5550  1.3786
19079TIP3   OH278727   3.426   3.807  13.251  0.4546  0.1953 -0.6861
19079TIP3    H178728   3.378   3.842  13.176 -1.2666 -2.3689 -0.8514
19079TIP3    H278729   3.380   3.844  13.327 -0.4554 -0.5484 -0.8664
19080TIP3   OH278730   0.771   0.147  10.990 -0.2591  0.8423  0.5395
19080TIP3    H178731   0.813   0.212  10.934  0.2964  0.7861  0.8967
19080TIP3    H278732   0.709   0.103  10.931 -0.1337  1.2096  0.1228
19081TIP3   OH278733   4.531   1.681   1.202  0.0552  0.4491 -0.2341
19081TIP3    H178734   4.573   1.629   1.134  0.2383  1.2740 -0.7563
19081TIP3    H278735   4.600   1.697   1.266 -0.1784 -0.5298  0.2783
19082TIP3   OH278736   5.891   6.371   4.568  0.0973  0.4451  0.2465
19082TIP3    H178737   5.800   6.358   4.542  1.0786  0.3244 -3.3585
19082TIP3    H278738   5.922   6.283   4.591 -0.2697  0.2431 -0.0230
19083TIP3   OH278739   1.693   4.996   6.140 -0.1282  0.1160  0.2488
19083TIP3    H178740   1.725   5.069   6.192  0.8891 -0.1199 -0.0367
19083TIP3    H278741   1.654   5.037   6.062  0.9192  0.3428 -0.1708
19084TIP3   OH278742   2.557   3.606   5.300  0.1762 -0.0276 -0.5984
19084TIP3    H178743   2.505   3.537   5.343  0.7701 -0.0600  0.0885
19084TIP3    H278744   2.621   3.559   5.248  1.1897 -0.0113  0.6135
19085TIP3   OH278745   3.505   1.100   2.276 -0.4962 -0.1859 -0.0140
19085TIP3    H178746   3.585   1.050   2.261  0.5415  1.2230  0.7005
19085TIP3    H278747   3.444   1.070   2.209  0.5477 -1.4527 -0.4005
19086TIP3   OH278748   5.660   4.494  14.541  0.3846 -0.7859  0.7472
19086TIP3    H178749   5.611   4.493  14.623  0.1110 -0.1682  0.5919
19086TIP3    H278750   5.594   4.509  14.474  0.6702 -0.8164  0.4562
19087TIP3   OH278751   1.025   6.788   0.563  0.2670 -0.1798  0.0203
19087TIP3    H178752   0.980   6.870   0.543 -0.1204 -0.9270 -2.3156
19087TIP3    H278753   1.102   6.815   0.614 -0.3860  1.5386  0.1382
19088TIP3   OH278754   3.938   3.189  14.025  0.1000 -0.0735 -0.1696
19088TIP3    H178755   3.974   3.104  13.997 -0.1242 -0.2006 -0.0782
19088TIP3    H278756   4.011   3.250  14.018  0.2202 -0.2431 -0.3923
19089TIP3   OH278757   1.508   0.255  10.931  0.8057 -0.0917 -0.5296
19089TIP3    H178758   1.602   0.276  10.923  0.3399  1.1514 -3.0536
19089TIP3    H278759   1.469   0.288  10.851 -1.8084 -0.7468  0.4307
19090TIP3   OH278760   1.708   0.226  12.046 -0.0549  0.5214 -0.1922
19090TIP3    H178761   1.670   0.191  12.126 -0.0187 -0.1351 -0.4611
19090TIP3    H278762   1.777   0.164  12.023  0.5169  1.1743 -0.2514
19091TIP3   OH278763   0.103   0.154   4.389  0.3084 -0.2207 -0.2970
19091TIP3    H178764   0.129   0.148   4.297 -3.0436  2.3353 -1.5292
19091TIP3    H278765   0.049   0.076   4.403  0.6237 -0.4915 -0.5715
19092TIP3   OH278766   0.277   2.483   2.240 -0.5903  0.2278  0.4138
19092TIP3    H178767   0.325   2.457   2.162  0.2978 -0.0785  1.0573
19092TIP3    H278768   0.270   2.403   2.292 -4.0736 -0.3730 -0.8310
19093TIP3   OH278769   0.424   5.868   3.931  0.3968  0.2479 -0.0873
19093TIP3    H178770   0.377   5.785   3.936 -0.3409  0.7196  1.1231
19093TIP3    H278771   0.475   5.872   4.012 -0.1572  1.3014  0.2273
19094TIP3   OH278772   1.838   4.478   5.654 -0.6879  0.0337  0.0926
19094TIP3    H178773   1.742   4.484   5.648 -0.5559  2.4214  0.2340
19094TIP3    H278774   1.870   4.555   5.607  1.1449  0.1038  1.4207
19095TIP3   OH278775   0.349   1.545   0.696  0.2359  0.3242 -0.2217
19095TIP3    H178776   0.328   1.568   0.786 -0.0826 -0.1531 -0.1728
19095TIP3    H278777   0.309   1.613   0.643  0.3362  0.5485 -0.0106
19096TIP3   OH278778   6.756   6.507  16.211  0.2953 -0.2091 -0.3167
19096TIP3    H178779   6.849   6.508  16.188  0.6391  0.3124  1.0228
19096TIP3    H278780   6.721   6.588  16.175  0.5976  0.1137  0.1234
19097TIP3   OH278781   0.098   1.889   5.799 -0.4217 -0.0327  0.4695
19097TIP3    H178782   0.132   1.901   5.887  0.2672  1.0086  0.0756
19097TIP3    H278783   0.115   1.797   5.778 -0.0112 -0.1188  1.1725
19098TIP3   OH278784   6.291   4.186  11.965  0.0552  0.0747  0.2179
19098TIP3    H178785   6.329   4.209  11.880 -1.6585 -1.0003 -0.8753
19098TIP3    H278786   6.326   4.099  11.984 -0.7640 -0.3451 -0.1514
19099TIP3   OH278787   0.553   4.852   5.957 -0.5241  0.2715 -0.4358
19099TIP3    H178788   0.643   4.876   5.978 -0.8893  0.0340  1.4404
19099TIP3    H278789   0.505   4.934   5.961 -0.8597  0.0022  1.0840
19100TIP3   OH278790   6.262   1.324  12.106 -0.0726 -0.1545 -0.4028
19100TIP3    H178791   6.192   1.387  12.088 -0.6252 -0.6790 -0.0787
19100TIP3    H278792   6.342   1.376  12.101 -0.5088  0.5223 -0.4070
19101TIP3   OH278793   2.310   1.205   4.356 -0.3990 -0.2562  0.1624
19101TIP3    H178794   2.237   1.264   4.373  0.0629 -0.0531  1.5133
19101TIP3    H278795   2.335   1.222   4.265 -1.5457  0.2039 -0.0662
19102TIP3   OH278796   5.766   2.001   1.441 -0.2334 -0.3692 -0.7224
19102TIP3    H178797   5.836   2.061   1.413 -0.2251  1.1821  2.4122
19102TIP3    H278798   5.813   1.930   1.485 -0.5068 -0.4481 -0.5622
19103TIP3   OH278799   5.523   0.037  15.552  0.0295 -0.0289 -0.0068
19103TIP3    H178800   5.467  -0.033  15.586 -0.6380  0.5830  0.1817
19103TIP3    H278801   5.488   0.117  15.593  2.2162  0.1667  1.5946
19104TIP3   OH278802   4.777   4.796  16.798 -0.0424 -0.4241 -0.3191
19104TIP3    H178803   4.765   4.803  16.703  1.3983  0.5765 -0.4356
19104TIP3    H278804   4.762   4.703  16.817 -1.5309 -0.4182 -1.3394
19105TIP3   OH278805   3.281   0.131   6.020  0.0114  0.6741  0.3223
19105TIP3    H178806   3.288   0.052   5.966 -1.8200  0.2178  0.7276
19105TIP3    H278807   3.349   0.120   6.086  0.1003 -0.3480  0.0813
19106TIP3   OH278808   5.927   5.428  12.886 -0.1371  0.1847 -0.5744
19106TIP3    H178809   5.940   5.496  12.953 -1.7448  1.6029 -1.6813
19106TIP3    H278810   6.015   5.409  12.854  0.1221  3.8539 -2.2828
19107TIP3   OH278811   0.501   1.626   1.427 -0.0528  0.2353 -0.4861
19107TIP3    H178812   0.535   1.707   1.388  2.1190 -0.3976  0.0433
19107TIP3    H278813   0.532   1.556   1.369  0.2843 -0.4172  0.4629
19108TIP3   OH278814   0.722   4.388   2.172  0.6033  0.3823 -0.3753
19108TIP3    H178815   0.666   4.370   2.247 -0.6782 -0.1438 -1.4322
19108TIP3    H278816   0.709   4.313   2.114 -0.9418  2.2967 -2.5899
19109TIP3   OH278817   5.454   2.041   4.066  0.1582  0.1370 -0.1401
19109TIP3    H178818   5.482   1.972   4.126 -0.9288 -1.7737 -1.7532
19109TIP3    H278819   5.474   2.008   3.979 -2.5997  0.7715 -1.0846
19110TIP3   OH278820   3.585   3.072   4.608  0.5583  0.1703  0.0152
19110TIP3    H178821   3.624   3.153   4.640  0.9368  0.1613 -0.4209
19110TIP3    H278822   3.630   3.003   4.657  0.7061  0.1882 -0.0961
19111TIP3   OH278823   1.232   0.628  12.550 -0.2693  0.0585  0.1249
19111TIP3    H178824   1.232   0.708  12.497  0.6317  1.2519  1.8780
19111TIP3    H278825   1.325   0.610  12.566 -0.4614 -1.3652 -0.2502
19112TIP3   OH278826   0.244   4.141   2.826 -0.2447 -0.4721  0.2054
19112TIP3    H178827   0.286   4.167   2.744 -0.7629 -0.5095 -0.0730
19112TIP3    H278828   0.313   4.095   2.875 -0.2701 -1.5388 -0.7302
19113TIP3   OH278829   2.490   3.735  15.363 -0.1301 -0.2590 -0.1381
19113TIP3    H178830   2.453   3.671  15.424 -0.8704 -0.6371 -0.9702
19113TIP3    H278831   2.422   3.803  15.357 -0.4071 -0.6295 -1.1713
19114TIP3   OH278832   3.190   3.873  12.214  0.1357 -0.6891  0.0850
19114TIP3    H178833   3.217   3.792  12.258  0.0178 -0.7162  0.1069
19114TIP3    H278834   3.125   3.846  12.150 -0.6584 -0.4858  0.7886
19115TIP3   OH278835   5.935   4.786  12.453 -0.0591  0.2599  1.0421
19115TIP3    H178836   5.957   4.858  12.394  1.7447 -1.7568 -0.8531
19115TIP3    H278837   5.855   4.749  12.416  0.7751 -0.6649  0.1090
19116TIP3   OH278838   4.784   3.609  14.204  0.4689 -0.3313  0.0053
19116TIP3    H178839   4.862   3.662  14.189 -0.3418  1.3415  1.5036
19116TIP3    H278840   4.817   3.523  14.227  1.8574  0.1976  0.0416
19117TIP3   OH278841   6.340   0.945   3.353 -0.2081 -0.1585  0.0351
19117TIP3    H178842   6.374   1.018   3.404  0.4199 -0.6390  0.3172
19117TIP3    H278843   6.323   0.876   3.418  0.5608 -0.7621 -0.3911
19118TIP3   OH278844   1.934   1.767   4.644 -0.2856  0.4463 -1.0610
19118TIP3    H178845   2.021   1.786   4.680 -1.4298  0.4217  1.7876
19118TIP3    H278846   1.874   1.818   4.697 -2.4129 -2.7030 -0.3114
19119TIP3   OH278847   5.520   0.267   1.902  0.9786 -0.0238  0.2482
19119TIP3    H178848   5.541   0.266   1.808  0.3866  2.0960  0.0842
19119TIP3    H278849   5.445   0.207   1.909  0.6615  0.2435 -0.7206
19120TIP3   OH278850   0.158   2.109  15.327  0.2561  0.3420  0.3168
19120TIP3    H178851   0.209   2.037  15.291  0.1795  0.4728 -0.0612
19120TIP3    H278852   0.118   2.151  15.250  0.5261  0.9548  0.5062
19121TIP3   OH278853   3.505   5.675  16.177  0.2002 -0.5776 -0.2039
19121TIP3    H178854   3.445   5.713  16.242 -0.7320  0.7325 -1.7932
19121TIP3    H278855   3.591   5.678  16.219 -0.6304 -1.2889  1.6040
19122TIP3   OH278856   6.263   6.077  16.288  0.8482  0.8375  0.5338
19122TIP3    H178857   6.328   6.039  16.229 -1.0270  0.8996 -1.6228
19122TIP3    H278858   6.208   6.002  16.314 -0.6490  1.4067 -0.8705
19123TIP3   OH278859   3.122   5.766   6.367 -0.1657 -0.1060  0.1873
19123TIP3    H178860   3.106   5.737   6.457  1.4031 -0.1802  0.4542
19123TIP3    H278861   3.118   5.861   6.371 -0.6088 -0.1223  0.2234
19124TIP3   OH278862   1.226   5.063   2.432 -0.1775 -0.5059  0.2509
19124TIP3    H178863   1.238   4.990   2.492  0.1829  1.1223  2.2067
19124TIP3    H278864   1.135   5.088   2.442 -0.1734 -0.3661 -0.0545
19125TIP3   OH278865   5.960   6.610  16.038 -0.4424 -0.1940 -0.1491
19125TIP3    H178866   5.904   6.656  15.975 -1.9681 -1.5231  0.1994
19125TIP3    H278867   5.932   6.645  16.123 -0.5278 -0.6383  0.0038
19126TIP3   OH278868   0.941   2.896  16.826 -0.7542  0.2845  0.3078
19126TIP3    H178869   0.863   2.842  16.840  0.8479 -1.7192  1.7755
19126TIP3    H278870   0.953   2.898  16.731 -0.2231 -2.9029  0.2591
19127TIP3   OH278871   5.845   2.370  14.102 -0.1558  0.1938 -0.1651
19127TIP3    H178872   5.895   2.447  14.127  0.1255 -0.3782  1.0670
19127TIP3    H278873   5.801   2.342  14.182  0.3007 -1.3282 -0.4178
19128TIP3   OH278874   5.481   0.001   3.587 -0.1217  0.4898 -0.0006
19128TIP3    H178875   5.498   0.094   3.603 -0.7099  0.3626  1.4051
19128TIP3    H278876   5.534  -0.020   3.510  0.0303  1.9796 -0.3240
19129TIP3   OH278877   2.704   2.771   4.973 -0.2504 -0.5117  0.0849
19129TIP3    H178878   2.749   2.851   4.946  1.1549 -1.3655 -0.1605
19129TIP3    H278879   2.628   2.765   4.916 -0.6057  0.8849  0.4103
19130TIP3   OH278880   6.448   0.351  12.876  0.5802  0.6382 -0.1419
19130TIP3    H178881   6.465   0.327  12.967 -0.7751  0.3967  0.0641
19130TIP3    H278882   6.375   0.412  12.881 -0.2692 -0.2804 -1.1531
19131TIP3   OH278883   5.726   5.209   5.310  0.4916 -0.2350  0.1781
19131TIP3    H178884   5.692   5.216   5.221  1.1332  1.6361  0.0728
19131TIP3    H278885   5.648   5.204   5.365  0.0904 -1.3624 -0.4736
19132TIP3   OH278886   0.861   6.035  13.914  0.0101  0.0597  0.2830
19132TIP3    H178887   0.807   5.956  13.924 -1.2456  0.9898  0.9509
19132TIP3    H278888   0.820   6.083  13.842 -0.8935  1.4378  1.6905
19133TIP3   OH278889   0.427   3.419   3.878 -0.1274 -0.2796  0.0084
19133TIP3    H178890   0.485   3.457   3.944 -1.1753 -0.4600  1.0333
19133TIP3    H278891   0.339   3.437   3.910 -0.6407 -1.0257 -0.9665
19134TIP3   OH278892   2.743   2.928  11.291  0.0934 -0.1835  0.8072
19134TIP3    H178893   2.803   2.985  11.339  0.6121 -0.4177  0.4368
19134TIP3    H278894   2.706   2.984  11.223  1.6526 -0.6410 -0.4413
19135TIP3   OH278895   3.354   0.500   0.624  0.3155  0.0944  0.1200
19135TIP3    H178896   3.349   0.436   0.694  0.5213 -1.7689 -1.5404
19135TIP3    H278897   3.448   0.512   0.609  0.5084  4.3791  3.5632
19136TIP3   OH278898   6.242   5.609  14.985 -0.3888  0.1218  0.1132
19136TIP3    H178899   6.149   5.598  15.006 -0.5328 -1.7201 -1.4213
19136TIP3    H278900   6.285   5.537  15.032  0.2173  0.6520  0.3776
19137TIP3   OH278901   2.402   2.881  12.232  0.6050  0.7297 -0.0301
19137TIP3    H178902   2.435   2.793  12.251 -0.1819 -0.1902 -2.6570
19137TIP3    H278903   2.480   2.936  12.229  1.3890 -0.4103 -1.0148
19138TIP3   OH278904   6.301   1.561   4.367  0.4604 -0.1655  0.2816
19138TIP3    H178905   6.342   1.587   4.449 -0.1382  1.0817  0.2064
19138TIP3    H278906   6.238   1.631   4.349  0.7922 -0.2731 -1.3941
19139TIP3   OH278907   6.744   3.342   6.077 -0.6518 -0.4066  0.0417
19139TIP3    H178908   6.784   3.429   6.081  0.7311 -0.9930 -0.6019
19139TIP3    H278909   6.659   3.353   6.119  0.1115  0.9084  1.2960
19140TIP3   OH278910   1.605   5.949  16.425 -0.1719 -0.3631  0.3328
19140TIP3    H178911   1.696   5.974  16.408  0.4404 -1.2349  2.1734
19140TIP3    H278912   1.610   5.856  16.447 -1.6677 -0.6959 -0.6690
19141TIP3   OH278913   1.466   6.180  13.245  0.6397  0.4239  0.3839
19141TIP3    H178914   1.506   6.223  13.169  0.8217  0.6040  0.5812
19141TIP3    H278915   1.537   6.130  13.284  0.3326 -0.3623 -0.0659
19142TIP3   OH278916   3.679   2.333   5.412 -0.0817  0.2061  0.0208
19142TIP3    H178917   3.750   2.270   5.425  0.6595  1.1781  0.7350
19142TIP3    H278918   3.653   2.358   5.500  0.5087  1.8881 -0.2768
19143TIP3   OH278919   6.204   3.672  11.345 -0.3658 -0.2741  0.6503
19143TIP3    H178920   6.149   3.629  11.410  0.3570  0.5135  1.8029
19143TIP3    H278921   6.272   3.607  11.324  0.8273  0.3328  2.5133
19144TIP3   OH278922   0.975   0.105  11.621  0.3201  0.0427 -0.0967
19144TIP3    H178923   1.039   0.045  11.660  0.8030  0.7859  0.2643
19144TIP3    H278924   0.986   0.093  11.527 -0.1246 -1.0042 -0.0149
19145TIP3   OH278925   4.642   0.416  11.765 -0.5650 -0.1482  0.1797
19145TIP3    H178926   4.626   0.508  11.741 -0.2420  0.1067  0.9355
19145TIP3    H278927   4.727   0.396  11.726 -0.5259 -0.0561  0.2179
19146TIP3   OH278928   4.711   6.736   5.515 -0.0303  0.5658 -0.0243
19146TIP3    H178929   4.721   6.811   5.574 -1.9200  0.5455  0.3547
19146TIP3    H278930   4.671   6.668   5.570  2.1967 -0.9355 -0.2149
19147TIP3   OH278931   0.995   6.337   1.758  0.1306  0.3495 -0.0658
19147TIP3    H178932   1.084   6.311   1.734  0.3308 -0.5548  1.5170
19147TIP3    H278933   0.979   6.289   1.840 -1.3566  1.4606  0.2952
19148TIP3   OH278934   2.179   2.980   2.087  0.5282  0.0611 -0.3521
19148TIP3    H178935   2.107   2.959   2.027  0.0148  0.7433  0.0221
19148TIP3    H278936   2.181   3.076   2.090  0.1277  0.0260  1.2468
19149TIP3   OH278937   1.707   4.293  10.964  0.0406  0.1818 -0.0449
19149TIP3    H178938   1.785   4.293  11.020 -0.2398 -0.3204  0.3536
19149TIP3    H278939   1.674   4.382  10.969  0.3936  0.3091  0.0628
19150TIP3   OH278940   2.715   2.155   0.614  0.2550  0.2071 -0.4588
19150TIP3    H178941   2.680   2.069   0.591 -1.0839  1.0005 -1.4200
19150TIP3    H278942   2.657   2.217   0.572  0.4197  1.6314  1.3545
19151TIP3   OH278943   4.818   3.312   1.096  0.2652  0.5082 -0.0261
19151TIP3    H178944   4.807   3.243   1.162 -2.3813  1.3609  0.4605
19151TIP3    H278945   4.826   3.264   1.013 -1.6300 -0.3877  0.2948
19152TIP3   OH278946   5.265   2.325  12.422  0.2027 -0.1392  0.0576
19152TIP3    H178947   5.199   2.394  12.422  1.3879  1.0356  2.3484
19152TIP3    H278948   5.220   2.250  12.462 -0.5551 -0.1893 -0.8636
19153TIP3   OH278949   2.730   3.438  15.400 -0.2548 -0.1542 -0.3656
19153TIP3    H178950   2.823   3.438  15.380  0.0484  2.0900  0.9180
19153TIP3    H278951   2.688   3.410  15.318  1.4467  0.4084 -1.4556
19154TIP3   OH278952   1.183   6.366   5.009 -0.1119 -0.1959  0.1627
19154TIP3    H178953   1.268   6.389   4.971  0.1437  0.0652  0.8804
19154TIP3    H278954   1.175   6.272   4.996  1.4842 -0.6880  2.4484
19155TIP3   OH278955   5.659   0.489   0.377  0.1453  0.3535  0.0877
19155TIP3    H178956   5.682   0.561   0.320 -0.2470 -0.8668 -1.6488
19155TIP3    H278957   5.734   0.429   0.372 -0.1760 -0.0725  0.3151
19156TIP3   OH278958   5.156   6.493   1.399  0.1414 -0.7501 -0.0108
19156TIP3    H178959   5.136   6.416   1.452  1.3133 -0.5670  0.7142
19156TIP3    H278960   5.172   6.562   1.463 -0.0231 -0.1282 -0.6425
19157TIP3   OH278961   0.120   0.417  11.447 -0.0546 -0.1194 -0.0297
19157TIP3    H178962   0.130   0.461  11.362 -0.6766 -0.1803 -0.1366
19157TIP3    H278963   0.210   0.404  11.478  0.1449  3.1329  0.9766
19158TIP3   OH278964   5.866   4.121   3.063  0.2952 -0.1197 -0.4696
19158TIP3    H178965   5.956   4.088   3.068  0.0872 -0.6090  0.1975
19158TIP3    H278966   5.847   4.152   3.152 -0.8886 -1.8952 -0.0738
19159TIP3   OH278967   3.643   0.769   4.330 -0.2238 -0.5609  0.1563
19159TIP3    H178968   3.725   0.762   4.282 -0.6514 -1.0190 -0.5102
19159TIP3    H278969   3.669   0.796   4.418  0.6598 -0.9648  0.0230
19160TIP3   OH278970   3.934   2.520  14.001 -0.1267  0.6705 -0.2144
19160TIP3    H178971   3.859   2.481  13.957 -0.6381  2.5221 -1.0370
19160TIP3    H278972   3.926   2.489  14.092  0.1121 -1.9647 -1.0433
19161TIP3   OH278973   6.170   0.836  13.484  0.0481 -0.3790 -0.2723
19161TIP3    H178974   6.215   0.883  13.555  0.0603 -0.4173 -0.2548
19161TIP3    H278975   6.086   0.810  13.523 -0.7220  1.2008 -0.8267
19162TIP3   OH278976   4.942   3.689   2.455  0.1142 -0.4121 -0.3541
19162TIP3    H178977   4.985   3.769   2.424 -1.1478  0.6427  0.5606
19162TIP3    H278978   4.868   3.678   2.395 -0.4904 -0.1343  0.3396
19163TIP3   OH278979   6.633   0.922   1.943  0.4223  0.4406 -0.1770
19163TIP3    H178980   6.556   0.970   1.975  0.8991  1.2556 -0.2444
19163TIP3    H278981   6.707   0.971   1.977  0.9706 -2.4184  3.0749
19164TIP3   OH278982   6.802   5.238   6.065  0.1194  0.4139  0.6601
19164TIP3    H178983   6.712   5.247   6.096 -0.5906 -1.0587 -0.8746
19164TIP3    H278984   6.819   5.319   6.016 -0.3553  0.7198  0.9988
19165TIP3   OH278985   4.739   4.074  10.956  0.2284 -0.2990 -0.2555
19165TIP3    H178986   4.692   4.136  10.900  0.6540 -0.7287 -1.1085
19165TIP3    H278987   4.734   4.112  11.044 -0.4840  0.3685 -0.5793
19166TIP3   OH278988   4.861   3.633  17.273  0.3277  0.3781 -0.0457
19166TIP3    H178989   4.945   3.678  17.263  0.6042 -0.4345 -1.4560
19166TIP3    H278990   4.884   3.548  17.311  0.1340  0.2100 -0.3038
19167TIP3   OH278991   3.317   4.156   1.712  0.3592  0.7952  0.9261
19167TIP3    H178992   3.377   4.083   1.695  1.4636  1.6476  1.1677
19167TIP3    H278993   3.259   4.124   1.781 -0.3793 -0.5426 -0.2881
19168TIP3   OH278994   5.636   5.031  10.929  0.1864 -0.2822 -0.0587
19168TIP3    H178995   5.672   5.119  10.932 -0.9149  0.1357  1.8457
19168TIP3    H278996   5.543   5.042  10.951 -0.1751 -1.8159 -0.7133
19169TIP3   OH278997   3.173   2.792   5.871 -0.3414  0.3702  0.2948
19169TIP3    H178998   3.244   2.814   5.932 -2.2001  0.0345  2.6759
19169TIP3    H278999   3.122   2.873   5.863 -0.0190  0.4585 -0.9817
19170TIP3   OH279000   4.189   3.871   2.366 -0.2628  0.2556  0.4807
19170TIP3    H179001   4.184   3.856   2.461  0.1746  1.4597  0.6986
19170TIP3    H279002   4.103   3.846   2.333 -0.9292  1.2839  1.4121
19171TIP3   OH279003   1.993   0.812  12.283 -0.7931  0.1825 -0.1105
19171TIP3    H179004   1.981   0.907  12.276  0.0034  0.2195 -1.1692
19171TIP3    H279005   2.004   0.795  12.376  1.8599  1.4882 -0.1397
19172TIP3   OH279006   3.950   5.552   2.056  0.2544  0.0532  0.1341
19172TIP3    H179007   3.973   5.540   2.149  0.1575 -0.0476  0.1441
19172TIP3    H279008   4.031   5.585   2.016 -0.3005  2.1710  0.6779
19173TIP3   OH279009   2.035   5.074  11.694  0.4230 -0.2553  0.2448
19173TIP3    H179010   1.961   5.110  11.646  0.2525 -1.1602 -0.1811
19173TIP3    H279011   2.003   5.065  11.784  0.3559  0.3039  0.2808
19174TIP3   OH279012   4.056   3.450  15.054  0.1209  0.2341 -0.1983
19174TIP3    H179013   4.015   3.364  15.051  3.9635 -1.7427  1.1990
19174TIP3    H279014   4.094   3.463  14.967 -0.2695  0.4224 -0.3402
19175TIP3   OH279015   3.333   1.213   2.935 -0.6107 -0.1236 -0.4463
19175TIP3    H179016   3.417   1.229   2.890  0.5295 -1.7525  1.0479
19175TIP3    H279017   3.358   1.178   3.020 -2.8067  0.7044  0.5691
19176TIP3   OH279018   5.373   3.422   1.535  0.0217  0.6684 -0.7346
19176TIP3    H179019   5.311   3.439   1.465  0.5200 -0.6779 -1.5203
19176TIP3    H279020   5.395   3.508   1.570 -1.4374  1.2337 -1.1703
19177TIP3   OH279021   1.866   6.633   4.606 -0.0343  0.4849 -0.2230
19177TIP3    H179022   1.794   6.696   4.613 -0.1203  0.4832 -1.0715
19177TIP3    H279023   1.921   6.667   4.536  1.0332  0.7131  0.6960
19178TIP3   OH279024   0.243   5.616   6.051 -1.0409 -0.3395 -0.1336
19178TIP3    H179025   0.216   5.637   5.961 -0.6399  1.0717  0.0628
19178TIP3    H279026   0.187   5.669   6.106 -2.1151 -2.1231  0.5175
19179TIP3   OH279027   5.078   1.121   6.150  0.5657  0.5724 -0.0473
19179TIP3    H179028   5.147   1.056   6.140 -1.3618 -1.3546 -1.0735
19179TIP3    H279029   5.017   1.084   6.213 -0.5533  1.3772 -0.6226
19180TIP3   OH279030   5.601   3.382  11.253 -0.2649 -0.6374  0.1160
19180TIP3    H179031   5.657   3.309  11.227  1.7451 -0.0848  2.7356
19180TIP3    H279032   5.635   3.457  11.205  0.5182 -0.5477  0.7946
19181TIP3   OH279033   1.837   6.212   4.143 -0.7879 -0.2839 -0.2286
19181TIP3    H179034   1.758   6.230   4.093 -1.9794 -0.7092  1.4702
19181TIP3    H279035   1.818   6.132   4.192  0.4135  0.0040  0.7594
19182TIP3   OH279036   0.801   3.588   3.126 -0.1602 -0.5763 -0.0039
19182TIP3    H179037   0.802   3.681   3.146  1.3836 -0.9170  1.5956
19182TIP3    H279038   0.716   3.573   3.086 -1.3175  1.1115  1.7570
19183TIP3   OH279039   2.829   6.279   0.658  0.8757 -0.4688  0.0245
19183TIP3    H179040   2.920   6.296   0.682  1.4363  1.1451 -2.9577
19183TIP3    H279041   2.832   6.196   0.611  1.0702  0.2347 -1.2430
19184TIP3   OH279042   5.091   5.580   1.507  0.0155  0.4680  0.0324
19184TIP3    H179043   5.115   5.589   1.414 -0.6962 -0.5959 -0.2602
19184TIP3    H279044   5.061   5.667   1.532 -0.2941  0.6333 -0.8793
19185TIP3   OH279045   6.139   3.129   4.793 -0.3917 -0.2945 -0.0438
19185TIP3    H179046   6.083   3.082   4.854 -1.0584 -0.3206 -0.6799
19185TIP3    H279047   6.165   3.064   4.728  0.0696 -0.1936  0.0365
19186TIP3   OH279048   6.502   3.786  13.844  0.5054  0.1036  0.0328
19186TIP3    H179049   6.424   3.742  13.810  0.7282 -0.4972  0.2924
19186TIP3    H279050   6.521   3.741  13.926 -0.0017  1.5223  0.9460
19187TIP3   OH279051   2.031   0.399  11.074 -0.6857 -0.2379  0.7269
19187TIP3    H179052   2.040   0.304  11.088  2.9649  0.0082  0.5684
19187TIP3    H279053   2.052   0.411  10.981  1.2739  0.9390  1.2907
19188TIP3   OH279054   3.175   1.332  13.186 -0.3723  0.3559  0.6192
19188TIP3    H179055   3.149   1.417  13.151  1.6654 -0.0223 -1.9871
19188TIP3    H279056   3.270   1.330  13.176 -0.3274 -1.9693  1.2531
19189TIP3   OH279057   1.136   5.028  11.447  0.0722 -0.2884  0.5191
19189TIP3    H179058   1.209   4.967  11.456  1.5998  1.5962  1.2712
19189TIP3    H279059   1.173   5.113  11.470 -2.0651  0.8998 -0.2972
19190TIP3   OH279060   2.984   4.430   4.810 -0.4812  0.3362  0.3669
19190TIP3    H179061   2.922   4.385   4.867  0.5530 -0.2042  1.0782
19190TIP3    H279062   2.932   4.454   4.733 -1.1877 -1.5732  0.2171
19191TIP3   OH279063   5.393   1.743  12.924  0.3482  0.6294 -0.5197
19191TIP3    H179064   5.373   1.702  12.840 -0.3653  1.1115 -0.5870
19191TIP3    H279065   5.431   1.673  12.977 -0.0045  0.1120 -0.9488
19192TIP3   OH279066   1.264   3.137  17.290  0.1454 -0.0489 -0.4465
19192TIP3    H179067   1.300   3.207  17.345 -1.5228  2.0587 -1.9301
19192TIP3    H279068   1.174   3.127  17.321 -0.2380 -0.1313 -1.5705
19193TIP3   OH279069   0.602   4.072  15.953  0.0007  0.5808  0.3725
19193TIP3    H179070   0.594   4.038  15.864 -0.5066 -0.3354  0.7630
19193TIP3    H279071   0.574   4.163  15.946 -1.8322  0.0176 -0.0755
19194TIP3   OH279072   2.454   6.200  14.928 -0.2051 -0.4132  1.0684
19194TIP3    H179073   2.438   6.124  14.984 -0.2438 -1.7940 -0.7388
19194TIP3    H279074   2.541   6.184  14.890  0.0788  0.7895  1.1890
19195TIP3   OH279075   5.221   5.272   2.648 -0.7543  0.0886  0.5553
19195TIP3    H179076   5.270   5.202   2.605  0.6503  1.4169 -0.0743
19195TIP3    H279077   5.129   5.255   2.625 -0.3069 -0.8902 -0.5346
19196TIP3   OH279078   3.358   0.782   0.254  0.5006  0.0327 -0.0748
19196TIP3    H179079   3.319   0.772   0.341 -1.5826  0.1451 -0.9677
19196TIP3    H279080   3.395   0.871   0.254  0.8160 -0.0968  0.7956
19197TIP3   OH279081   4.698   4.245   4.611 -0.4411 -0.1944  0.6150
19197TIP3    H179082   4.763   4.178   4.589 -0.9880 -0.8473  0.9684
19197TIP3    H279083   4.648   4.257   4.530 -1.2408 -1.2308  0.9483
19198TIP3   OH279084   0.276   3.238  16.809 -0.4539 -0.3300 -0.2893
19198TIP3    H179085   0.364   3.257  16.841 -0.6537 -1.0165  0.6762
19198TIP3    H279086   0.279   3.147  16.780 -1.0063 -0.5338  0.2945
19199TIP3   OH279087   2.146   6.031   3.901 -0.0944 -0.5237 -0.0017
19199TIP3    H179088   2.064   6.032   3.851  0.4970 -0.4185 -1.0037
19199TIP3    H279089   2.184   6.118   3.887  0.4960 -0.7902 -0.0900
19200TIP3   OH279090   0.716   5.918  12.002  0.2761  0.0136  0.1256
19200TIP3    H179091   0.800   5.950  11.971  0.4844 -0.7390 -0.1082
19200TIP3    H279092   0.656   5.932  11.928  0.2640  0.2642  0.1814
19201TIP3   OH279093   4.619   1.473  15.860 -0.4159  0.0212  0.2874
19201TIP3    H179094   4.625   1.385  15.896  0.5673  0.0450  0.1908
19201TIP3    H279095   4.665   1.528  15.922  2.8131 -0.1952 -1.8180
19202TIP3   OH279096   1.377   5.171   1.446  0.2852 -0.2817  0.3162
19202TIP3    H179097   1.334   5.176   1.531  2.3113 -1.0766  1.4330
19202TIP3    H279098   1.462   5.214   1.459 -0.7326  2.7273 -2.2486
19203TIP3   OH279099   1.855   1.322   1.957  0.0849  0.9147  0.0298
19203TIP3    H179100   1.938   1.300   1.998  0.0280 -1.1593 -0.8599
19203TIP3    H279101   1.850   1.417   1.961  2.1747  1.0219  0.7080
19204TIP3   OH279102   1.114   3.998   3.890 -0.6526 -0.6218  0.4032
19204TIP3    H179103   1.044   4.051   3.927 -1.1452 -1.1648  0.2533
19204TIP3    H279104   1.195   4.045   3.913 -1.0676  0.0717  0.4579
19205TIP3   OH279105   5.772   4.595  12.237  0.1029  0.5175  0.2009
19205TIP3    H179106   5.812   4.516  12.202  1.2961  0.7836  0.9156
19205TIP3    H279107   5.753   4.574  12.328 -1.4558  0.3799 -0.1527
19206TIP3   OH279108   5.108   3.856   5.926 -0.2813 -0.5498  0.3421
19206TIP3    H179109   5.099   3.950   5.939 -0.4326 -0.7663  1.9029
19206TIP3    H279110   5.107   3.844   5.831 -1.7057  0.8803  0.1671
19207TIP3   OH279111   6.628   1.646  14.333  0.0895 -0.0860  0.6051
19207TIP3    H179112   6.642   1.613  14.245 -1.2224  0.0974  0.3212
19207TIP3    H279113   6.610   1.568  14.386 -0.4207 -0.0698  0.4535
19208TIP3   OH279114   2.719   2.048  13.473  0.1549 -0.0456  0.0823
19208TIP3    H179115   2.657   2.071  13.404 -0.4881 -0.7951  0.4094
19208TIP3    H279116   2.739   2.132  13.515  0.1175  0.3334 -0.6471
19209TIP3   OH279117   1.595   4.336  16.685  0.6110  0.1998  0.0556
19209TIP3    H179118   1.506   4.353  16.655  0.9438  0.7586 -0.6146
19209TIP3    H279119   1.596   4.242  16.704  0.0366  0.0887 -0.4528
19210TIP3   OH279120   0.380   3.648   0.729  0.2748 -0.1509  0.1174
19210TIP3    H179121   0.368   3.676   0.820  1.4067 -0.2851  0.3186
19210TIP3    H279122   0.460   3.595   0.731  1.4873  1.5919 -1.3259
19211TIP3   OH279123   0.788   3.137   5.022 -0.0285 -0.3621 -0.3152
19211TIP3    H179124   0.740   3.173   4.947 -1.6052  0.9917  1.2967
19211TIP3    H279125   0.868   3.189   5.027 -1.1723  1.3478  0.5399
19212TIP3   OH279126   5.863   6.296   4.170  0.0774 -0.0915 -0.1358
19212TIP3    H179127   5.871   6.281   4.075  0.5310  1.2487 -0.3101
19212TIP3    H279128   5.796   6.233   4.198 -0.9118  0.3074 -1.5435
19213TIP3   OH279129   2.608   4.073  12.772  0.1412  0.4811 -0.9845
19213TIP3    H179130   2.696   4.110  12.767 -0.2449  1.5013 -0.5551
19213TIP3    H279131   2.570   4.090  12.686  0.5297 -0.3994 -1.3333
19214TIP3   OH279132   0.763   0.315  11.331  0.3012  0.1361  0.0065
19214TIP3    H179133   0.787   0.284  11.244  1.9612  0.7086  0.2352
19214TIP3    H279134   0.825   0.271  11.390 -0.7689 -0.2049  0.8970
19215TIP3   OH279135   6.007   0.703   0.744  0.3097  0.2592  0.2867
19215TIP3    H179136   6.007   0.750   0.660 -0.9312  1.4743  0.9527
19215TIP3    H279137   6.100   0.684   0.761  0.9362  3.2823  0.4426
19216TIP3   OH279138   2.943   3.647  11.335  0.8110 -0.4516 -0.3581
19216TIP3    H179139   2.989   3.572  11.372  1.3501 -0.4720 -1.0802
19216TIP3    H279140   2.980   3.723  11.380  0.7233 -0.5602 -0.1009
19217TIP3   OH279141   4.813   0.230   4.997 -0.5509 -0.1272 -0.3296
19217TIP3    H179142   4.731   0.253   5.041 -1.1327  1.1244 -2.0002
19217TIP3    H279143   4.792   0.153   4.944 -0.8386  0.5787 -1.2585
19218TIP3   OH279144   5.795   4.694   5.640  0.6487 -0.6109  0.5525
19218TIP3    H179145   5.746   4.746   5.576  0.4584 -1.5477 -0.0706
19218TIP3    H279146   5.834   4.759   5.699  0.3220  0.2303 -0.1517
19219TIP3   OH279147   6.066   4.517   1.400 -0.3562 -0.0490  0.1542
19219TIP3    H179148   6.147   4.562   1.425 -0.3664  0.1302 -0.1308
19219TIP3    H279149   5.999   4.556   1.456 -0.6604  1.4653 -1.2034
19220TIP3   OH279150   1.962   6.689   0.317 -0.2603 -0.1978  0.0836
19220TIP3    H179151   1.887   6.649   0.271 -0.4591 -0.5050  0.6710
19220TIP3    H279152   1.932   6.777   0.340  0.8767  1.0766 -2.9931
19221TIP3   OH279153   2.822   2.224   1.233 -0.5176 -0.4668  0.4796
19221TIP3    H179154   2.866   2.139   1.227  0.2172 -0.1174  0.7348
19221TIP3    H279155   2.889   2.287   1.206 -1.0323  0.0323  0.3690
19222TIP3   OH279156   5.887   2.818  16.867  0.3894 -0.3968  0.2301
19222TIP3    H179157   5.895   2.809  16.962  1.3165  0.7434  0.2733
19222TIP3    H279158   5.972   2.853  16.839 -0.1733  0.0873 -0.9140
19223TIP3   OH279159   6.157   6.571  12.655  0.3233  0.1763 -0.3459
19223TIP3    H179160   6.104   6.541  12.581 -0.2497 -1.0214  0.5247
19223TIP3    H279161   6.206   6.646  12.621 -1.3449  0.8251 -1.3890
19224TIP3   OH279162   2.691   6.034  16.760  0.0156  0.7185  0.3972
19224TIP3    H179163   2.757   6.103  16.752 -0.0735  0.6595 -1.1957
19224TIP3    H279164   2.607   6.080  16.754 -0.0598  0.6488  0.9652
19225TIP3   OH279165   2.801   0.330   2.708  0.2642  0.0307 -0.4623
19225TIP3    H179166   2.805   0.235   2.724  0.7898  0.2165  0.5865
19225TIP3    H279167   2.828   0.369   2.791  0.7275  1.0942 -1.1048
19226TIP3   OH279168   2.627   1.864  16.335  0.0516  0.5248  0.0051
19226TIP3    H179169   2.615   1.953  16.369  0.7200  0.4665  0.4085
19226TIP3    H279170   2.538   1.834  16.314 -0.0696  1.7049 -1.2083
19227TIP3   OH279171   0.025   3.430  14.962  0.1086  0.0490  0.5964
19227TIP3    H179172   0.052   3.511  15.005 -0.9196  0.6279  0.1833
19227TIP3    H279173  -0.066   3.446  14.937  0.1738 -0.9082 -0.2722
19228TIP3   OH279174   6.507   2.393  10.788 -0.0048 -0.0790  0.0585
19228TIP3    H179175   6.426   2.440  10.767  1.0135  1.4468 -0.5840
19228TIP3    H279176   6.576   2.448  10.752  1.4656 -0.3084  2.4320
19229TIP3   OH279177   3.379   5.021  15.673  0.1292 -0.1710  0.4474
19229TIP3    H179178   3.289   4.991  15.662  1.1545 -2.6411 -1.6919
19229TIP3    H279179   3.413   4.967  15.745  0.8343 -1.6053 -0.9150
19230TIP3   OH279180   4.031   0.789  16.881 -0.1141 -0.1448  0.1091
19230TIP3    H179181   3.996   0.869  16.921 -2.2198 -1.2158  0.4771
19230TIP3    H279182   4.120   0.783  16.913 -0.4681  1.1972  1.3843
19231TIP3   OH279183   0.368   5.858   1.925 -0.1599 -0.1136 -0.1505
19231TIP3    H179184   0.425   5.896   1.993 -0.4962 -0.3854  0.2897
19231TIP3    H279185   0.422   5.794   1.880  0.2807  0.5718 -0.6059
19232TIP3   OH279186   0.037   3.335  13.368  0.8813  0.4014 -0.2526
19232TIP3    H179187   0.131   3.329  13.351  1.0050  0.4130  0.4303
19232TIP3    H279188   0.003   3.249  13.347  1.4224 -0.3492  1.8251
19233TIP3   OH279189   5.821   5.635  15.424 -0.3589 -0.1550  0.1802
19233TIP3    H179190   5.902   5.623  15.374 -0.9803 -1.7009 -0.4666
19233TIP3    H279191   5.820   5.563  15.487 -0.5237  0.6925  1.1646
19234TIP3   OH279192   6.618   3.533   4.284 -0.3280 -0.4901 -0.1737
19234TIP3    H179193   6.610   3.570   4.372 -1.4003  0.2290 -0.5632
19234TIP3    H279194   6.645   3.443   4.299  0.8694  0.0278  0.8433
19235TIP3   OH279195   1.617   0.972   1.111  0.0463  0.7947  0.6788
19235TIP3    H179196   1.528   0.998   1.089 -0.1309  0.3938  0.9162
19235TIP3    H279197   1.626   0.993   1.204  0.4863  1.6306  0.4553
19236TIP3   OH279198   5.646   6.609  11.194  0.4798  0.0736 -0.2451
19236TIP3    H179199   5.615   6.685  11.145  0.6583  0.9363  0.9636
19236TIP3    H279200   5.741   6.609  11.180  0.6032  0.6488  0.5343
19237TIP3   OH279201   1.818   1.180  13.328 -0.2292 -0.7791 -0.4114
19237TIP3    H179202   1.771   1.136  13.398 -2.1468 -0.8384 -1.7086
19237TIP3    H279203   1.906   1.142  13.331 -0.7611 -1.9459  0.9140
19238TIP3   OH279204   6.408   4.191  13.935 -0.8152 -0.0561 -0.8411
19238TIP3    H179205   6.364   4.275  13.942  1.8890  1.1995  2.4097
19238TIP3    H279206   6.501   4.213  13.927 -0.1887 -2.7182 -1.5026
19239TIP3   OH279207   4.762   2.409  14.612 -0.0085  0.0386  0.0716
19239TIP3    H179208   4.785   2.412  14.519  3.0046 -1.7919  0.7089
19239TIP3    H279209   4.768   2.317  14.636  0.8623  0.6804  2.4740
19240TIP3   OH279210   2.532   2.394   5.590 -0.1139 -0.4550  0.2546
19240TIP3    H179211   2.496   2.383   5.678 -0.2340 -0.2422  0.2350
19240TIP3    H279212   2.532   2.489   5.576 -2.3010 -0.5727 -0.8623
19241TIP3   OH279213   3.565   6.100   5.186  0.2497 -0.2073  0.5512
19241TIP3    H179214   3.607   6.014   5.179 -1.4415 -1.0883  0.9580
19241TIP3    H279215   3.504   6.102   5.112  0.0057  0.4806  0.7745
19242TIP3   OH279216   1.719   3.206   1.740 -0.1002  0.5128 -0.1138
19242TIP3    H179217   1.633   3.163   1.745  0.2311 -0.5547 -2.8015
19242TIP3    H279218   1.739   3.208   1.647  1.9179  2.5719  0.3252
19243TIP3   OH279219   2.675   5.355  15.447 -0.7618  0.2680 -0.0797
19243TIP3    H179220   2.587   5.334  15.417 -1.5372  0.8738  1.7159
19243TIP3    H279221   2.672   5.448  15.468  0.2522  0.2421  0.2229
19244TIP3   OH279222   0.204   6.222  16.955  0.5696  0.1400  0.3437
19244TIP3    H179223   0.271   6.197  16.891  2.0821 -0.0327  1.9814
19244TIP3    H279224   0.238   6.302  16.995 -0.6803  0.6028  0.4895
19245TIP3   OH279225   5.024   3.872   5.291  0.2999 -1.0756  0.3314
19245TIP3    H179226   5.049   3.781   5.306  0.7518 -0.6464  2.3594
19245TIP3    H279227   4.929   3.873   5.302  0.2520 -1.3912 -0.0926
19246TIP3   OH279228   6.119   4.679  13.973  0.2724  0.4868  0.2843
19246TIP3    H179229   6.139   4.598  14.019  0.4627  0.3063 -0.1162
19246TIP3    H279230   6.025   4.690  13.984  0.2508  0.2277  0.3622
19247TIP3   OH279231   5.778   3.085  11.705  1.0234  0.0179  0.3393
19247TIP3    H179232   5.849   3.125  11.654  2.1940 -1.3860  0.8464
19247TIP3    H279233   5.733   3.160  11.745  1.5033  0.9907 -0.8879
19248TIP3   OH279234   3.905   0.891   1.747 -0.3881 -0.0752  0.3806
19248TIP3    H179235   3.867   0.885   1.834  1.5984  2.9364  1.5232
19248TIP3    H279236   3.860   0.965   1.706  1.4420  1.0503  0.3351
19249TIP3   OH279237   2.734   1.970  11.632  0.6606  0.7034 -0.4885
19249TIP3    H179238   2.704   1.881  11.614 -0.6965  1.2715 -1.0595
19249TIP3    H279239   2.654   2.021  11.643  1.4042  1.1826  3.3481
19250TIP3   OH279240   5.749   6.163  13.577  0.1923 -0.2940 -0.1528
19250TIP3    H179241   5.679   6.167  13.641  0.5768 -1.0958  0.3197
19250TIP3    H279242   5.705   6.160  13.492 -0.3385 -0.9435  0.1508
19251TIP3   OH279243   1.122   5.040   4.329 -0.3228  0.5382  0.2149
19251TIP3    H179244   1.089   4.950   4.324 -0.1403  0.5013 -0.3976
19251TIP3    H279245   1.160   5.056   4.243  1.1069  0.6293  0.8411
19252TIP3   OH279246   0.757   5.651   6.142  0.3356  0.2390 -0.7496
19252TIP3    H179247   0.781   5.728   6.194  1.2873 -0.3644 -0.2607
19252TIP3    H279248   0.682   5.679   6.090  1.3561  1.8483 -1.4211
19253TIP3   OH279249   0.429   5.616  15.334  0.0074 -0.3012 -0.0854
19253TIP3    H179250   0.417   5.529  15.297  0.8115 -0.3209 -0.3090
19253TIP3    H279251   0.506   5.607  15.391  0.5389  0.4287 -0.6754
19254TIP3   OH279252   1.440   4.943   1.041  0.0101 -0.4032  0.2543
19254TIP3    H179253   1.366   4.917   0.986 -3.2743  2.8800  2.8207
19254TIP3    H279254   1.440   4.879   1.112 -1.1114  0.1916  0.8089
19255TIP3   OH279255   5.456   0.488   2.405 -0.4979 -0.0515  0.5981
19255TIP3    H179256   5.457   0.418   2.469  2.5743 -0.7762 -0.1447
19255TIP3    H279257   5.444   0.568   2.456 -0.4978 -0.8262  1.8082
19256TIP3   OH279258   2.724   3.604   2.155 -0.3875  0.1590  0.0501
19256TIP3    H179259   2.804   3.552   2.163  0.5682  1.5357 -0.4013
19256TIP3    H279260   2.746   3.671   2.090 -1.8977  0.5702 -0.0367
19257TIP3   OH279261   3.199   1.173  12.869 -0.1724  0.4672  0.0256
19257TIP3    H179262   3.269   1.193  12.932 -0.8257  0.5567  0.7375
19257TIP3    H279263   3.126   1.144  12.924 -1.2445  1.9782 -0.5769
19258TIP3   OH279264   6.797   1.544   4.624  0.2203 -0.0745 -0.0693
19258TIP3    H179265   6.854   1.486   4.674  2.4055  2.1269  0.1209
19258TIP3    H279266   6.803   1.513   4.534 -1.1860 -2.0872  0.5126
19259TIP3   OH279267   5.812   1.688   3.106  0.5421 -0.1675 -0.3216
19259TIP3    H179268   5.720   1.701   3.129  0.7602  0.1488  0.4082
19259TIP3    H279269   5.856   1.677   3.190  1.0769 -0.9884 -0.6990
19260TIP3   OH279270   1.138   1.988   5.441 -0.1392  0.1211  0.1860
19260TIP3    H179271   1.149   1.920   5.374 -0.2490  0.4468 -0.1629
19260TIP3    H279272   1.121   2.068   5.391  2.5103  0.9154  0.4817
19261TIP3   OH279273   0.607   6.551   4.507  0.0036  0.1012 -0.4047
19261TIP3    H179274   0.581   6.502   4.585 -0.6305  1.0979  0.0170
19261TIP3    H279275   0.575   6.497   4.434 -0.0806 -0.4505  0.0334
19262TIP3   OH279276   5.641   2.959   0.209  0.6159  0.2840  0.2008
19262TIP3    H179277   5.687   2.910   0.277  2.8442  5.0406  2.4170
19262TIP3    H279278   5.555   2.977   0.245  0.4118 -0.4937  0.1039
19263TIP3   OH279279   5.860   3.278  15.555 -0.2911 -0.3261  0.0814
19263TIP3    H179280   5.914   3.200  15.568 -0.6614 -0.5683  0.1668
19263TIP3    H279281   5.872   3.329  15.635  1.7113  0.7752 -0.9007
19264TIP3   OH279282   0.466   2.649   1.522  0.6058 -0.0290  0.0256
19264TIP3    H179283   0.550   2.690   1.502 -0.8824  1.0101 -4.6704
19264TIP3    H279284   0.481   2.556   1.506  0.7645  0.2024 -1.1994
19265TIP3   OH279285   0.116   5.680   3.511  0.0607 -0.0932  0.5838
19265TIP3    H179286   0.155   5.676   3.598  1.5509 -0.0174 -0.0595
19265TIP3    H279287   0.064   5.600   3.504  1.4053 -1.0079  0.8618
19266TIP3   OH279288   5.134   6.397   4.328  0.2038  0.2376  0.1254
19266TIP3    H179289   5.114   6.325   4.268 -1.4388  1.2410 -0.5494
19266TIP3    H279290   5.128   6.476   4.275  0.9518  0.9708  1.1056
19267TIP3   OH279291   6.178   6.327   3.385  0.4043 -0.1429 -0.1239
19267TIP3    H179292   6.154   6.250   3.436 -0.7050 -0.0502 -0.4873
19267TIP3    H279293   6.232   6.379   3.444  1.3282 -1.2919  0.0510
19268TIP3   OH279294   2.475   0.079   4.158 -0.1978  0.6711  0.1626
19268TIP3    H179295   2.522   0.050   4.080 -1.4835 -1.2838  0.0995
19268TIP3    H279296   2.393   0.030   4.157  0.1742 -0.1144  3.2323
19269TIP3   OH279297   4.528   2.424  12.772  0.1679 -0.3075 -1.1543
19269TIP3    H179298   4.605   2.477  12.749  0.1742 -0.1374 -0.7330
19269TIP3    H279299   4.487   2.405  12.687 -2.3422  4.0755 -1.0929
19270TIP3   OH279300   4.540   5.802  16.470 -0.0586 -0.5680  0.2314
19270TIP3    H179301   4.487   5.881  16.483  1.9446  0.8548  0.0523
19270TIP3    H279302   4.574   5.782  16.558  4.5848  2.6082 -0.6007
19271TIP3   OH279303   3.599   1.911  10.936  0.6676  0.4648  0.4196
19271TIP3    H179304   3.565   1.835  10.889  0.1649 -1.0164  3.1202
19271TIP3    H279305   3.529   1.976  10.931 -0.2510 -0.4765  0.9752
19272TIP3   OH279306   3.577   1.528   4.450  0.5550  0.5880  0.0892
19272TIP3    H179307   3.645   1.529   4.517  0.4847  1.8093  0.1499
19272TIP3    H279308   3.567   1.435   4.428  0.9193  0.2187  1.4088
19273TIP3   OH279309   5.872   2.493  12.742  0.3367 -0.0438  1.0396
19273TIP3    H179310   5.891   2.586  12.739 -1.6653  0.3568  0.1190
19273TIP3    H279311   5.821   2.481  12.822  1.1937 -0.4724  1.5278
19274TIP3   OH279312   6.780   2.963   1.889 -0.1561  0.4937  0.5213
19274TIP3    H179313   6.807   2.984   1.978  1.3011  2.0261 -0.2416
19274TIP3    H279314   6.852   2.911   1.854 -0.4337  0.4272  0.0407
19275TIP3   OH279315   1.833   5.043   5.637 -0.0465 -0.3558  0.2318
19275TIP3    H179316   1.927   5.061   5.644  0.1952 -2.2380  2.6304
19275TIP3    H279317   1.828   4.951   5.613 -1.2652 -0.3531  0.4552
19276TIP3   OH279318   6.100   6.377  16.007  0.5572  0.4338  0.6085
19276TIP3    H179319   6.042   6.450  16.027 -1.0717 -0.9104  0.8751
19276TIP3    H279320   6.069   6.305  16.062  1.7983 -0.6218 -0.0363
19277TIP3   OH279321   2.107   3.002   6.181  0.2352 -0.4105  0.5417
19277TIP3    H179322   2.164   2.940   6.226  1.3674 -0.6128 -1.1292
19277TIP3    H279323   2.135   3.088   6.212  1.0637 -0.5463  0.1934
19278TIP3   OH279324   0.673   1.731  15.988  0.2373 -0.2648 -0.1959
19278TIP3    H179325   0.601   1.719  15.926 -0.1635  0.0753  0.2001
19278TIP3    H279326   0.651   1.811  16.035  1.3643  0.3701 -0.7369
19279TIP3   OH279327   2.885   6.606  16.913 -0.7682  0.3212  0.1128
19279TIP3    H179328   2.866   6.607  17.007  0.2566 -0.6620  0.3319
19279TIP3    H279329   2.808   6.565  16.874 -0.5563 -0.6502  0.6806
19280TIP3   OH279330   3.902   5.428  12.869  1.2519 -0.0137  0.6506
19280TIP3    H179331   3.934   5.518  12.861 -0.1699  0.5009  0.5631
19280TIP3    H279332   3.970   5.382  12.917  2.3732  0.9083 -0.0284
19281TIP3   OH279333   5.140   3.235   5.333  0.1160 -0.0287  0.0453
19281TIP3    H179334   5.143   3.316   5.385  0.2977 -0.5569  0.8773
19281TIP3    H279335   5.176   3.169   5.392  1.6428 -0.3789 -1.2653
19282TIP3   OH279336   0.468   4.365  11.651  0.1328 -0.1275 -0.0877
19282TIP3    H179337   0.492   4.293  11.710  0.0208  0.0265  0.1466
19282TIP3    H279338   0.547   4.378  11.597  0.5122  0.2398  0.5467
19283TIP3   OH279339   2.028   4.328   5.303  0.3984 -0.2904 -0.1241
19283TIP3    H179340   2.100   4.295   5.357  1.9406 -0.9463 -2.5217
19283TIP3    H279341   2.050   4.420   5.288  0.7176 -0.4781 -0.8171
19284TIP3   OH279342   2.021   0.972   0.585  0.1045 -0.6405 -0.0757
19284TIP3    H179343   1.998   0.897   0.529  0.9794 -1.0251  0.0856
19284TIP3    H279344   2.054   0.933   0.665 -0.2775 -0.0742  0.3595
19285TIP3   OH279345   3.724   6.212   4.869 -0.8242 -0.0144  0.0739
19285TIP3    H179346   3.748   6.261   4.948 -0.8950  0.9964 -0.5229
19285TIP3    H279347   3.659   6.267   4.826 -2.4668 -1.5995  0.4388
19286TIP3   OH279348   1.392   5.950  11.455 -0.9179 -0.3594  0.0296
19286TIP3    H179349   1.396   6.012  11.382  0.6247 -1.3477 -0.7379
19286TIP3    H279350   1.331   5.882  11.425  0.1660 -1.0701 -0.5932
19287TIP3   OH279351   6.576   5.745   4.152 -0.2865  0.0038  0.1117
19287TIP3    H179352   6.665   5.709   4.157 -0.1217  0.5132  1.1155
19287TIP3    H279353   6.528   5.700   4.221 -1.2152 -1.3376 -1.3869
19288TIP3   OH279354   1.572   1.036  14.043 -0.0886 -0.7881  0.0287
19288TIP3    H179355   1.547   0.966  14.103  1.2407 -0.3902  1.0865
19288TIP3    H279356   1.590   1.111  14.100 -1.8167  0.5252 -1.1145
19289TIP3   OH279357   2.263   4.300  14.387 -0.1251  0.3404 -0.6194
19289TIP3    H179358   2.168   4.290  14.384 -0.0075 -2.0168  1.3056
19289TIP3    H279359   2.285   4.354  14.311 -3.1435  2.2583 -0.2017
19290TIP3   OH279360   4.159   5.698   1.080 -0.6127 -0.6216  0.1385
19290TIP3    H179361   4.202   5.620   1.045 -0.7382 -0.0879 -1.1981
19290TIP3    H279362   4.193   5.771   1.028  0.1054  0.3399  1.8878
19291TIP3   OH279363   4.897   3.867  14.453 -0.1481  0.3452  0.2382
19291TIP3    H179364   4.834   3.796  14.468  0.4262 -0.5094 -1.3118
19291TIP3    H279365   4.878   3.898  14.365  1.2318  0.4594 -0.0299
19292TIP3   OH279366   1.826   0.365  15.286  0.2119 -0.2723  0.1497
19292TIP3    H179367   1.829   0.435  15.351  0.5059 -1.1827  1.1284
19292TIP3    H279368   1.886   0.298  15.320  1.0711 -0.3741 -1.5059
19293TIP3   OH279369   5.588   4.242  12.865  0.1989  0.0703  0.3885
19293TIP3    H179370   5.539   4.170  12.825 -0.5482  1.2796 -0.9231
19293TIP3    H279371   5.536   4.268  12.941 -1.1322  1.2173 -0.8864
19294TIP3   OH279372   0.571   0.312   6.602  0.2982  0.2108 -0.1041
19294TIP3    H179373   0.490   0.306   6.653 -0.5314 -1.1666 -1.5485
19294TIP3    H279374   0.553   0.261   6.523  1.5924  2.2267 -1.7355
19295TIP3   OH279375   1.596   6.729   6.110 -0.3419 -0.1996 -0.2033
19295TIP3    H179376   1.621   6.767   6.194  1.1625 -0.5983 -0.4603
19295TIP3    H279377   1.611   6.800   6.047  0.6644 -0.6170 -0.4320
19296TIP3   OH279378   5.504   6.159  13.719  0.4624  0.1787  0.0630
19296TIP3    H179379   5.414   6.186  13.700  0.4527  0.3357  0.3317
19296TIP3    H279380   5.515   6.077  13.670  0.0860  0.0169  0.2428
19297TIP3   OH279381   0.747   0.616   3.811 -0.2921 -0.1019  0.4611
19297TIP3    H179382   0.684   0.638   3.879 -1.6668 -0.5639 -0.6415
19297TIP3    H279383   0.773   0.526   3.829  0.5779  0.3167  1.3155
19298TIP3   OH279384   0.081   5.848  13.705  0.3167  0.2227 -0.0963
19298TIP3    H179385   0.021   5.920  13.688  0.6393  0.2275 -1.2007
19298TIP3    H279386   0.107   5.816  13.619  0.7966 -0.7032  0.3748
19299TIP3   OH279387   5.184   4.670  16.171 -0.1730  0.4195  0.5269
19299TIP3    H179388   5.163   4.579  16.146  0.3852  1.0392 -2.4558
19299TIP3    H279389   5.203   4.665  16.264  0.1996 -2.6073  0.3664
19300TIP3   OH279390   4.970   4.065   2.719  0.2321 -0.1860  0.0007
19300TIP3    H179391   4.929   4.073   2.805  1.0371  1.3659  0.2603
19300TIP3    H279392   4.897   4.051   2.658 -0.6117  1.5631  0.5765
19301TIP3   OH279393   2.001   2.538  15.676  0.3445 -0.5795 -0.3940
19301TIP3    H179394   2.015   2.491  15.758 -0.6320  1.3360  0.9092
19301TIP3    H279395   1.930   2.491  15.633 -0.5693 -0.3880  0.8646
19302TIP3   OH279396   1.731   5.083   4.551 -0.0046  0.0821 -0.5691
19302TIP3    H179397   1.785   5.021   4.501 -0.2904 -1.9233  1.5535
19302TIP3    H279398   1.645   5.079   4.508  0.5252  0.6012 -1.7165
19303TIP3   OH279399   2.084   6.298   4.219 -0.8111 -0.5187 -1.1764
19303TIP3    H179400   1.997   6.266   4.196 -1.0679 -1.2449  0.7357
19303TIP3    H279401   2.092   6.280   4.313  0.4043  1.9000 -0.7978
19304TIP3   OH279402   2.776   6.559  11.548 -0.8474  0.2360 -0.0652
19304TIP3    H179403   2.784   6.510  11.467 -1.7854  1.1601 -0.7189
19304TIP3    H279404   2.813   6.501  11.615  0.4243 -0.3006 -1.2249
19305TIP3   OH279405   5.908   3.784  11.740  0.4195  0.4500  0.1384
19305TIP3    H179406   5.987   3.732  11.753  1.2871  1.6630 -0.1834
19305TIP3    H279407   5.839   3.719  11.726  1.4886 -0.6221 -0.3227
19306TIP3   OH279408   6.373   1.813   5.488  0.5148  0.0708 -0.3153
19306TIP3    H179409   6.309   1.770   5.544  0.2643  0.0494 -0.6194
19306TIP3    H279410   6.454   1.764   5.503  0.2804 -0.3769 -0.5019
19307TIP3   OH279411   0.727   2.547  12.843  0.5384 -0.7903 -0.1384
19307TIP3    H179412   0.695   2.476  12.900  0.5439  0.2938  1.2302
19307TIP3    H279413   0.652   2.569  12.788 -0.3604  0.1003  1.4179
19308TIP3   OH279414   1.179   5.494   5.965 -0.5674 -0.4674  0.0622
19308TIP3    H179415   1.165   5.587   5.986 -1.1346 -0.3254 -0.9283
19308TIP3    H279416   1.189   5.452   6.051  2.5524  0.9409  0.4582
19309TIP3   OH279417   2.342   0.342  10.909 -0.0074 -0.1455 -0.3637
19309TIP3    H179418   2.248   0.328  10.892  0.1139 -0.0965 -1.0962
19309TIP3    H279419   2.375   0.256  10.932 -0.2535 -0.1424  0.0192
19310TIP3   OH279420   2.451   4.285   3.040 -0.4612  0.2148  0.1126
19310TIP3    H179421   2.458   4.322   3.128 -1.2956 -0.4892  0.4802
19310TIP3    H279422   2.399   4.205   3.051 -1.1170  0.4481 -1.1051
19311TIP3   OH279423   0.149   3.629   3.261 -0.0954  0.2965 -0.1316
19311TIP3    H179424   0.215   3.579   3.213  0.2121  0.1450  0.4597
19311TIP3    H279425   0.072   3.627   3.203  0.5827  0.9594 -1.0737
19312TIP3   OH279426   1.529   6.572   4.455  0.8331  0.1067 -0.4064
19312TIP3    H179427   1.557   6.482   4.439 -0.7789 -0.3303 -0.8579
19312TIP3    H279428   1.552   6.589   4.546  0.4655 -1.0080 -0.1076
19313TIP3   OH279429   3.927   0.273  12.259  0.8002 -0.5807  0.4425
19313TIP3    H179430   3.958   0.314  12.178  1.2116 -1.1235  0.3213
19313TIP3    H279431   3.910   0.182  12.235 -0.3159 -0.4388  0.6578
19314TIP3   OH279432   3.714   1.720   1.657  0.1508  0.5528 -0.0214
19314TIP3    H179433   3.686   1.686   1.572  0.3409 -2.9552  1.2427
19314TIP3    H279434   3.807   1.740   1.646  0.0479  0.5985 -0.8051
19315TIP3   OH279435   0.088   1.195  12.064  0.2936  0.2466 -0.2085
19315TIP3    H179436   0.089   1.171  12.157  2.0420 -0.2526 -0.3582
19315TIP3    H279437  -0.002   1.225  12.049  0.4639  2.0062  2.0670
19316TIP3   OH279438   6.442   3.010   1.464  0.5675  0.0221 -0.2085
19316TIP3    H179439   6.429   2.992   1.371  1.0811 -0.8775 -0.1021
19316TIP3    H279440   6.512   3.075   1.466 -0.2655  0.9470 -0.5063
19317TIP3   OH279441   0.623   5.393   0.110  0.0675  0.4529  0.4758
19317TIP3    H179442   0.702   5.350   0.142 -1.9247 -1.8239  2.5175
19317TIP3    H279443   0.641   5.487   0.119  1.5938 -0.0744  3.2965
19318TIP3   OH279444   4.166   0.248  13.589  0.1666  0.0836 -0.1819
19318TIP3    H179445   4.111   0.170  13.582 -1.8651  1.4398  0.3089
19318TIP3    H279446   4.194   0.266  13.500 -1.8422  0.5297 -0.7423
19319TIP3   OH279447   4.326   3.552  14.402  0.0434 -0.2474  0.3433
19319TIP3    H179448   4.256   3.495  14.370  0.4086 -0.1424 -0.6671
19319TIP3    H279449   4.364   3.505  14.476 -0.3108 -0.8611  0.1371
19320TIP3   OH279450   1.909   0.515   4.438 -0.4083 -0.1888  0.1475
19320TIP3    H179451   1.986   0.520   4.494  0.9907  1.3506 -1.8631
19320TIP3    H279452   1.919   0.432   4.391  1.0262  0.8753 -1.4802
19321TIP3   OH279453   6.093   2.792   1.463  0.1642 -0.7505  0.6335
19321TIP3    H179454   6.154   2.827   1.529  0.9272 -0.5566 -0.1642
19321TIP3    H279455   6.008   2.789   1.508  0.5915 -0.2177  1.4898
19322TIP3   OH279456   1.968   4.675   2.801  0.0038  0.0036  0.0860
19322TIP3    H179457   1.975   4.615   2.726 -0.0989  1.0280 -0.7473
19322TIP3    H279458   1.879   4.708   2.796 -0.5885 -1.2899  1.7223
19323TIP3   OH279459   1.024   6.260  13.444 -0.8426 -0.1485  0.4228
19323TIP3    H179460   1.076   6.276  13.365 -0.6438 -1.1986  0.3358
19323TIP3    H279461   1.044   6.334  13.502  0.2045 -0.1911  0.1107
19324TIP3   OH279462   2.069   3.337   4.640 -0.3755  0.3775  0.2014
19324TIP3    H179463   2.077   3.367   4.549 -1.9751  0.5020  0.0828
19324TIP3    H279464   2.065   3.418   4.691  0.8473  0.3064  0.4286
19325TIP3   OH279465   1.892   6.600   1.836  0.3901  0.3242 -0.2502
19325TIP3    H179466   1.834   6.618   1.761  0.2284 -0.7172 -0.3773
19325TIP3    H279467   1.840   6.624   1.912 -0.5617 -1.4640 -0.3110
19326TIP3   OH279468   3.641   5.366  12.982  0.2011  0.5142 -0.1941
19326TIP3    H179469   3.663   5.410  12.900 -1.6980  1.2713 -0.3311
19326TIP3    H279470   3.629   5.436  13.046 -0.0041  0.0373  0.3059
19327TIP3   OH279471   6.577   1.846   6.005  0.2314  0.2967 -0.5725
19327TIP3    H179472   6.508   1.860   5.940  0.8411 -0.4849 -1.4156
19327TIP3    H279473   6.531   1.821   6.085 -0.5084  0.7962 -0.8412
19328TIP3   OH279474   0.678   1.394  14.617 -0.4573  0.4650  0.2382
19328TIP3    H179475   0.685   1.480  14.660 -0.9113  0.0495  1.1590
19328TIP3    H279476   0.649   1.414  14.528 -1.3643  1.2254  0.6941
19329TIP3   OH279477   3.827   4.421   5.136  0.1831  0.0291 -0.4111
19329TIP3    H179478   3.809   4.365   5.211 -0.6296 -0.1404 -0.7206
19329TIP3    H279479   3.841   4.508   5.174 -1.7901  0.2768 -0.1510
19330TIP3   OH279480   5.010   2.715  12.576 -0.2459  0.1370  0.3435
19330TIP3    H179481   5.079   2.694  12.640  0.1402 -1.1369 -0.4685
19330TIP3    H279482   5.040   2.795  12.534  0.4431 -0.0686  0.4369
19331TIP3   OH279483   6.037   2.383  13.791  0.0008 -0.3272  0.3225
19331TIP3    H179484   6.116   2.416  13.749  1.3322 -1.0021  2.2595
19331TIP3    H279485   6.061   2.372  13.883 -2.0854 -1.3819  0.7697
19332TIP3   OH279486   1.414   4.160  15.419 -0.3915 -0.1081  0.4314
19332TIP3    H179487   1.418   4.100  15.345 -0.6724  0.1237  0.2278
19332TIP3    H279488   1.371   4.110  15.488  0.1508 -0.4285  0.5401
19333TIP3   OH279489   0.186   4.223  13.862  0.7271 -0.2577 -0.4975
19333TIP3    H179490   0.091   4.215  13.847  0.4566  0.3874  0.8297
19333TIP3    H279491   0.213   4.293  13.803  0.1671  0.3720 -0.0123
19334TIP3   OH279492   1.434   5.900  16.168 -0.2287 -0.3903  0.1299
19334TIP3    H179493   1.340   5.916  16.175 -0.4235 -1.4564  0.0200
19334TIP3    H279494   1.471   5.940  16.247 -0.9953 -1.6066  1.1139
19335TIP3   OH279495   2.232   2.404  11.423  0.4550 -0.7913  0.5002
19335TIP3    H179496   2.262   2.351  11.349 -1.8727 -0.0220 -1.0379
19335TIP3    H279497   2.145   2.371  11.443 -0.1545  1.0110  0.9088
19336TIP3   OH279498   5.609   1.807  13.674 -0.0168 -0.5028  0.2145
19336TIP3    H179499   5.613   1.738  13.607 -2.5534  0.5916 -1.1144
19336TIP3    H279500   5.529   1.789  13.722 -0.9796  1.8248 -0.4798
19337TIP3   OH279501   4.231   1.527   5.519  0.2508  0.4520  0.2164
19337TIP3    H179502   4.217   1.442   5.560 -0.3687  0.7241  0.5881
19337TIP3    H279503   4.244   1.587   5.593 -2.9763  1.3225  0.1509
19338TIP3   OH279504   2.871   0.265  14.465 -0.7213 -0.5913  0.4833
19338TIP3    H179505   2.937   0.237  14.402 -1.1382 -0.8874  0.1784
19338TIP3    H279506   2.808   0.193  14.467 -1.4476  0.0390  0.1888
19339TIP3   OH279507   6.069   1.591  13.598 -0.0394  0.1791  0.3097
19339TIP3    H179508   6.066   1.588  13.502  0.0025  0.0011  0.3146
19339TIP3    H279509   6.099   1.503  13.624  0.9469  0.5504  0.4463
19340TIP3   OH279510   5.196   0.903  12.612  0.2753 -0.0018 -0.5225
19340TIP3    H179511   5.267   0.966  12.598 -0.4923  0.6560 -1.4537
19340TIP3    H279512   5.239   0.830  12.656  1.8021 -0.1559 -2.1959
19341TIP3   OH279513   4.977   5.387  13.817 -0.7161 -0.3230 -0.0136
19341TIP3    H179514   4.895   5.396  13.866 -0.6936 -0.5689  0.0651
19341TIP3    H279515   4.960   5.317  13.754  0.3683 -2.3388  1.8905
19342TIP3   OH279516   2.742   4.025  15.272 -0.1094  0.3410  0.0182
19342TIP3    H179517   2.703   4.113  15.268  1.6158  1.0714 -2.3247
19342TIP3    H279518   2.739   4.001  15.364 -0.7796  2.8107  0.6756
19343TIP3   OH279519   3.392   3.610  12.985  0.0457 -0.6966 -0.3220
19343TIP3    H179520   3.478   3.603  12.943  0.0395  1.0351 -0.6660
19343TIP3    H279521   3.406   3.580  13.075  1.4838  1.4663  0.2090
19344TIP3   OH279522   2.255   4.381  15.671 -0.2967 -0.3617  0.0176
19344TIP3    H179523   2.329   4.413  15.619 -0.4979  1.2824  0.7055
19344TIP3    H279524   2.296   4.328  15.740  0.0330 -1.7311 -1.2043
19345TIP3   OH279525   2.993   0.134  12.750  0.8946  0.0510  0.0659
19345TIP3    H179526   3.029   0.080  12.680  1.6418 -0.1086  0.5730
19345TIP3    H279527   2.917   0.084  12.782 -0.6932  1.0681 -1.9691
19346TIP3   OH279528   4.009   4.772   4.802  0.5134  0.7442  0.0795
19346TIP3    H179529   4.038   4.809   4.886 -0.1487  2.3884 -0.4098
19346TIP3    H279530   3.997   4.679   4.820 -0.4483  1.2352  2.0336
19347TIP3   OH279531   4.260   3.236   5.212 -0.6348 -0.0176 -0.5134
19347TIP3    H179532   4.250   3.322   5.252  0.7077  0.4399 -1.1304
19347TIP3    H279533   4.176   3.219   5.171 -0.9073  0.9986 -0.3910
19348TIP3   OH279534   0.329   1.296   4.025  0.0521  0.1187  0.3621
19348TIP3    H179535   0.309   1.276   3.934  0.1164  1.1113  0.1342
19348TIP3    H279536   0.416   1.337   4.023  1.3977 -2.5272  1.1648
19349TIP3   OH279537   3.894   2.941  14.954 -0.4390  0.0186  0.7322
19349TIP3    H179538   3.916   3.033  14.939 -2.1849  0.3055 -0.2765
19349TIP3    H279539   3.800   2.942  14.973 -0.7181 -1.6526 -0.4186
19350TIP3   OH279540   1.237   0.730  13.397 -0.4984  0.6301 -0.1483
19350TIP3    H179541   1.260   0.743  13.489  0.5953  2.4841 -0.6496
19350TIP3    H279542   1.304   0.779  13.349  0.6608 -2.6841 -2.0393
19351TIP3   OH279543   4.218   0.540   4.826 -0.5259  0.2940 -0.4680
19351TIP3    H179544   4.290   0.566   4.884  0.0880 -0.2964 -0.9604
19351TIP3    H279545   4.252   0.555   4.738 -0.9064 -0.2658 -0.7064
19352TIP3   OH279546   3.465   0.631   1.639 -0.4595 -0.0181  0.3569
19352TIP3    H179547   3.442   0.589   1.557 -0.0082 -0.5937  0.5238
19352TIP3    H279548   3.519   0.707   1.614  0.2822 -0.6026  0.1563
19353TIP3   OH279549   5.051   3.810  11.445  0.2234  0.1911  0.2381
19353TIP3    H179550   5.020   3.736  11.496  0.0992  0.0712 -0.0099
19353TIP3    H279551   4.998   3.808  11.365  2.0043 -1.0152 -0.9438
19354TIP3   OH279552   1.469   2.714  16.851 -0.2435  0.1761  0.2633
19354TIP3    H179553   1.473   2.655  16.927 -1.8340  0.1478  0.3397
19354TIP3    H279554   1.558   2.712  16.815  0.7987  0.8721  2.6407
19355TIP3   OH279555   4.820   2.138  14.683  0.2155  0.6453 -0.0697
19355TIP3    H179556   4.913   2.150  14.666  0.1847  1.6185  0.3718
19355TIP3    H279557   4.783   2.110  14.600  1.0481 -0.6529 -0.0057
19356TIP3   OH279558   1.386   2.911   5.175 -0.4627 -0.5219  0.1971
19356TIP3    H179559   1.408   2.890   5.266 -0.4024 -0.9902  0.0734
19356TIP3    H279560   1.301   2.955   5.181 -0.3589 -0.3598  0.4984
19357TIP3   OH279561   1.170   3.696   6.352 -0.5567 -0.1873 -0.1980
19357TIP3    H179562   1.264   3.691   6.373 -0.0955 -0.9271 -2.2704
19357TIP3    H279563   1.126   3.656   6.426  0.7481  0.3887  0.9183
19358TIP3   OH279564   0.886   6.765   4.726 -0.5972  0.4973  0.1969
19358TIP3    H179565   0.904   6.676   4.757  2.6736  0.9437 -0.1627
19358TIP3    H279566   0.886   6.758   4.631  1.3405  1.1100  0.1207
19359TIP3   OH279567   4.457   2.421  10.897 -0.0149 -0.0248 -0.0012
19359TIP3    H179568   4.541   2.435  10.852  0.1418  0.4778  0.4416
19359TIP3    H279569   4.414   2.352  10.846  0.6843 -0.3158 -0.2066
19360TIP3   OH279570   2.070   3.829   4.636  0.3118  0.3837  0.1592
19360TIP3    H179571   2.083   3.841   4.542 -0.9539 -1.2704 -0.2478
19360TIP3    H279572   2.158   3.819   4.671  0.7187 -0.4204 -1.0682
19361TIP3   OH279573   1.598   3.443  11.776 -0.2380 -0.0790  0.4072
19361TIP3    H179574   1.572   3.468  11.865  0.2874  1.0496  0.2543
19361TIP3    H279575   1.559   3.510  11.720  1.1724  0.4006 -0.0159
19362TIP3   OH279576   1.416   5.200  13.712 -0.4104  0.1931  0.6508
19362TIP3    H179577   1.448   5.144  13.642 -1.8858  0.2393 -0.0871
19362TIP3    H279578   1.392   5.140  13.782  0.4265  0.0920  0.8485
19363TIP3   OH279579   0.264   1.969   3.175 -0.0515  0.0088 -0.3340
19363TIP3    H179580   0.349   2.011   3.163 -0.1733  0.3789  0.0631
19363TIP3    H279581   0.206   2.041   3.200 -1.1338  0.2781 -3.3968
19364TIP3   OH279582   0.664   1.471  15.404 -0.1945 -0.4436 -0.0969
19364TIP3    H179583   0.723   1.436  15.336  0.6880 -1.1311  0.9971
19364TIP3    H279584   0.676   1.411  15.477 -0.1526  1.0469  1.1264
19365TIP3   OH279585   3.761   5.219   2.220  0.5923 -0.3894 -0.1422
19365TIP3    H179586   3.771   5.222   2.125 -0.2633 -2.9649 -0.3355
19365TIP3    H279587   3.845   5.187   2.252  0.8406  0.3675 -0.0190
19366TIP3   OH279588   5.777   4.757  12.703  0.2476  0.2877 -0.0027
19366TIP3    H179589   5.787   4.712  12.787 -1.0088 -0.5032 -0.2469
19366TIP3    H279590   5.684   4.777  12.698  0.0550 -0.8705 -1.7769
19367TIP3   OH279591   1.408   6.524  13.315 -0.0928 -0.4003  0.1451
19367TIP3    H179592   1.421   6.429  13.324  0.0267 -0.5278 -1.2387
19367TIP3    H279593   1.323   6.540  13.355 -0.3889 -1.1948 -0.1376
19368TIP3   OH279594   6.810   4.878  16.438 -0.0644 -0.8611  0.2499
19368TIP3    H179595   6.755   4.799  16.435  0.1102 -0.9667 -0.2014
19368TIP3    H279596   6.896   4.848  16.409  0.8018 -1.1652  2.9775
19369TIP3   OH279597   6.602   2.303  15.327  0.0581  0.5611 -0.4862
19369TIP3    H179598   6.671   2.317  15.262 -0.1038  1.4048 -0.4844
19369TIP3    H279599   6.648   2.292  15.409  0.2106  0.8913 -0.5234
19370TIP3   OH279600   4.491   0.644  12.060  0.2485 -0.2308 -0.0398
19370TIP3    H179601   4.401   0.632  12.032 -0.7904  0.0932  2.9625
19370TIP3    H279602   4.512   0.564  12.109  1.4240 -0.0823 -0.2728
19371TIP3   OH279603   6.079   0.454   1.009 -0.2021  0.0823  0.0117
19371TIP3    H179604   6.119   0.399   1.076  0.4799  2.9230  1.9803
19371TIP3    H279605   6.148   0.464   0.943 -0.3316 -1.3671 -0.3787
19372TIP3   OH279606   4.793   5.851   0.194 -0.0853  0.4369  0.8810
19372TIP3    H179607   4.747   5.929   0.224 -0.7715 -0.1828  1.4495
19372TIP3    H279608   4.790   5.790   0.268 -0.0059 -0.3232  0.2685
19373TIP3   OH279609   5.569   1.246  14.143  0.2958 -0.3300  0.2928
19373TIP3    H179610   5.534   1.157  14.148 -2.2477  0.6358  0.3313
19373TIP3    H279611   5.492   1.303  14.148  1.5776  1.8161 -2.6436
19374TIP3   OH279612   2.154   5.441  10.902  0.4824  0.0175 -0.0942
19374TIP3    H179613   2.236   5.481  10.930  0.4262  0.5475 -0.6560
19374TIP3    H279614   2.090   5.513  10.905  0.0628 -0.3681  0.2542
19375TIP3   OH279615   4.954   1.882   1.378  0.4075 -0.2228 -0.0560
19375TIP3    H179616   4.901   1.962   1.386 -1.1478 -1.1966 -0.2766
19375TIP3    H279617   5.038   1.904   1.418 -1.2227  0.4165  3.1421
19376TIP3   OH279618   0.156   5.927  15.867  0.8458  0.4757 -0.4989
19376TIP3    H179619   0.128   5.928  15.776  1.4697  0.3577 -0.6941
19376TIP3    H279620   0.203   5.845  15.877 -1.0679 -0.5526  0.5026
19377TIP3   OH279621   6.108   3.603   0.394 -0.5468 -0.6588 -0.0191
19377TIP3    H179622   6.108   3.619   0.300 -1.2490 -1.7386 -0.2185
19377TIP3    H279623   6.182   3.544   0.409 -0.4420 -0.4973  0.0971
19378TIP3   OH279624   2.512   4.098  11.848  0.0763  0.1210  0.0104
19378TIP3    H179625   2.447   4.092  11.778 -1.5460  1.5425  1.3945
19378TIP3    H279626   2.589   4.136  11.805 -0.6692  0.3359 -1.1583
19379TIP3   OH279627   0.156   3.740  14.355  0.1809  0.3502 -0.2922
19379TIP3    H179628   0.250   3.723  14.363 -0.1359 -0.4322  2.2553
19379TIP3    H279629   0.116   3.655  14.339 -0.3218  0.3159  1.0869
19380TIP3   OH279630   0.825   3.507   5.262 -0.0940 -0.0539  0.1531
19380TIP3    H179631   0.736   3.521   5.230 -0.0072 -0.0258 -0.0762
19380TIP3    H279632   0.881   3.524   5.186  0.0057 -2.0697 -0.2392
19381TIP3   OH279633   6.379   0.466  11.541  0.0481 -0.2669  0.1694
19381TIP3    H179634   6.317   0.404  11.580 -0.2748 -0.1748 -0.1983
19381TIP3    H279635   6.415   0.419  11.466  1.0656 -0.6458  0.8768
19382TIP3   OH279636   4.482   3.607   0.143 -0.2416  0.3509  0.1987
19382TIP3    H179637   4.467   3.550   0.068 -2.5825 -0.3603  1.1465
19382TIP3    H279638   4.409   3.589   0.202 -0.8331  4.0102  0.7444
19383TIP3   OH279639   3.310   3.823  11.929  0.2719  0.2241 -0.7616
19383TIP3    H179640   3.245   3.857  11.990 -0.4541 -1.3885 -0.6240
19383TIP3    H279641   3.366   3.766  11.983 -0.6226 -1.5289 -1.6707
19384TIP3   OH279642   5.153   2.045   3.988 -0.4266 -0.2197 -0.2420
19384TIP3    H179643   5.186   1.985   3.922 -0.2679  0.7194 -1.0426
19384TIP3    H279644   5.230   2.097   4.013 -0.6153 -0.1757  0.2409
19385TIP3   OH279645   4.715   3.724  15.861  0.4571  0.6722  0.6365
19385TIP3    H179646   4.757   3.733  15.947 -0.0212 -0.8997  1.0417
19385TIP3    H279647   4.629   3.762  15.873 -0.2234 -1.0347  1.3364
19386TIP3   OH279648   1.406   1.073   0.970 -0.0144 -0.3586  0.1951
19386TIP3    H179649   1.347   1.028   0.909  0.6841  1.1297 -1.6566
19386TIP3    H279650   1.353   1.089   1.048 -1.3249 -1.1944 -0.5059
19387TIP3   OH279651   0.329   3.630   5.902 -0.5123  0.7056 -0.3598
19387TIP3    H179652   0.375   3.551   5.874 -1.3753 -0.5508  1.6615
19387TIP3    H279653   0.398   3.690   5.929  0.1326  0.5671 -1.6694
19388TIP3   OH279654   0.966   3.491   5.948 -0.0787  0.2194  0.0393
19388TIP3    H179655   0.990   3.496   6.040 -1.6316  0.6430  0.4360
19388TIP3    H279656   1.049   3.491   5.901  0.6844  1.1618  1.3801
19389TIP3   OH279657   0.929   0.500   1.348 -0.3498 -0.0932  0.1016
19389TIP3    H179658   0.915   0.414   1.386 -0.4053 -0.1931 -0.1442
19389TIP3    H279659   0.860   0.555   1.385 -0.3233 -0.1562  0.2455
19390TIP3   OH279660   5.219   1.171  13.665 -0.0454 -0.1899  0.8007
19390TIP3    H179661   5.243   1.136  13.751 -0.3637  1.5249  1.6149
19390TIP3    H279662   5.285   1.136  13.606  1.3486  0.1866  2.0960
19391TIP3   OH279663   6.752   0.542   3.704  0.3840 -0.0525  0.0770
19391TIP3    H179664   6.740   0.572   3.794  0.6882 -0.9294  0.4124
19391TIP3    H279665   6.670   0.567   3.660 -0.7108 -1.6196  1.1563
19392TIP3   OH279666   5.211   3.309  13.923 -0.5114  0.2466  0.1244
19392TIP3    H179667   5.242   3.224  13.892 -0.3457  0.7972 -1.2468
19392TIP3    H279668   5.136   3.328  13.868 -0.6372  0.9262  0.5337
19393TIP3   OH279669   5.554   3.729   3.247  0.0526 -0.2022 -0.5767
19393TIP3    H179670   5.492   3.713   3.177 -0.6714 -0.5261  0.1300
19393TIP3    H279671   5.586   3.642   3.271 -0.3215 -0.1748  0.0446
19394TIP3   OH279672   1.862   0.148  11.514  0.0973 -0.0514 -0.3747
19394TIP3    H179673   1.811   0.095  11.453  2.6223  0.7428 -3.3116
19394TIP3    H279674   1.837   0.239  11.493  0.5572  0.1954  0.1487
19395TIP3   OH279675   0.820   2.915   0.280 -0.2666 -0.4304 -0.1559
19395TIP3    H179676   0.747   2.976   0.275 -1.1532 -1.6193 -2.8108
19395TIP3    H279677   0.781   2.831   0.300  0.2255 -1.2352 -2.4011
19396TIP3   OH279678   5.337   6.590  16.653  0.2518 -0.5364 -0.4232
19396TIP3    H179679   5.294   6.577  16.737 -0.5512  0.7865 -0.6059
19396TIP3    H279680   5.266   6.583  16.588  0.8947 -1.7570 -1.0105
19397TIP3   OH279681   5.791   2.316  13.727 -0.3894  0.5357  0.1479
19397TIP3    H179682   5.879   2.353  13.737 -1.0231  1.8127  1.2085
19397TIP3    H279683   5.766   2.288  13.815 -1.0736  0.2509 -0.1290
19398TIP3   OH279684   2.739   0.968   3.975 -0.6631  0.7530 -0.2910
19398TIP3    H179685   2.785   1.047   4.003 -1.9121  0.9495  1.2449
19398TIP3    H279686   2.707   0.989   3.887 -1.0456  1.9839  0.1362
19399TIP3   OH279687   6.804   0.085   3.310  0.4682  0.5876 -0.2643
19399TIP3    H179688   6.746   0.030   3.257  0.2488  0.4063  0.1584
19399TIP3    H279689   6.774   0.071   3.400  0.4419  1.3661 -0.1520
19400TIP3   OH279690   5.974   6.438   1.577  0.1573  0.3399  0.3074
19400TIP3    H179691   6.065   6.456   1.600  0.2332 -0.3733  0.5926
19400TIP3    H279692   5.926   6.448   1.660  0.1101 -0.1189  0.3395
19401TIP3   OH279693   3.237   0.169  12.056 -0.1042 -0.3269  0.4950
19401TIP3    H179694   3.331   0.187  12.049 -0.3389  0.9236  0.3453
19401TIP3    H279695   3.218   0.112  11.981  0.5540 -0.6511  0.5769
19402TIP3   OH279696   5.846   2.722  14.156 -0.3098  0.2403  0.4004
19402TIP3    H179697   5.925   2.703  14.208  1.8003  0.7374 -2.4930
19402TIP3    H279698   5.829   2.814  14.172  0.9161  0.6383 -0.5026
19403TIP3   OH279699   4.380   5.825  13.780  0.3932  0.3662 -0.6159
19403TIP3    H179700   4.467   5.813  13.743  1.2993 -1.8899  2.0926
19403TIP3    H279701   4.385   5.908  13.826  1.2542  0.0448 -0.1213
19404TIP3   OH279702   0.997   1.066  15.076  0.8898 -0.6365 -0.1991
19404TIP3    H179703   0.945   1.136  15.037  0.9512 -0.0535  0.7605
19404TIP3    H279704   0.960   0.985  15.039 -0.4817 -0.2142  0.2280
19405TIP3   OH279705   2.234   3.882  15.364  0.5295 -0.3594 -0.0106
19405TIP3    H179706   2.180   3.943  15.314 -0.2772 -0.5783  0.5762
19405TIP3    H279707   2.203   3.795  15.336  1.4329 -0.4982 -0.5901
19406TIP3   OH279708   2.683   5.574  11.779  0.7233  0.4945 -0.1243
19406TIP3    H179709   2.594   5.540  11.791  0.4999  0.5888 -1.4356
19406TIP3    H279710   2.709   5.544  11.692  1.9569  0.5232  0.2191
19407TIP3   OH279711   3.826   2.141   5.725 -0.4253  0.0404 -0.2034
19407TIP3    H179712   3.849   2.221   5.774  0.0900  1.6974 -3.0553
19407TIP3    H279713   3.888   2.138   5.653  1.1322 -4.3347  1.2027
19408TIP3   OH279714   5.640   6.500   3.934  0.4349  0.4585  0.1255
19408TIP3    H179715   5.617   6.503   4.027 -1.0973 -2.1775 -0.1372
19408TIP3    H279716   5.569   6.546   3.890 -0.5291 -1.1733 -0.0282
19409TIP3   OH279717   5.968   3.088   3.630 -0.1709 -0.6610  0.2693
19409TIP3    H179718   5.925   3.004   3.648  0.2986 -0.8396  0.5607
19409TIP3    H279719   5.948   3.107   3.539 -2.2717  0.0574  0.8454
19410TIP3   OH279720   2.026   3.861   1.868  0.0860  0.3029 -0.0795
19410TIP3    H179721   2.033   3.796   1.799  0.3100 -0.6883  0.8717
19410TIP3    H279722   1.939   3.900   1.855 -0.7103 -1.3205  0.3390
19411TIP3   OH279723   4.918   3.154   2.568  0.4233 -0.8063  0.1248
19411TIP3    H179724   4.904   3.225   2.505 -0.1564 -0.9807  0.0579
19411TIP3    H279725   4.870   3.182   2.646 -1.1555 -1.8742 -0.4482
19412TIP3   OH279726   3.007   5.831  12.514  0.1607  0.0559 -0.4496
19412TIP3    H179727   3.087   5.783  12.530 -0.8288 -1.3712  0.3198
19412TIP3    H279728   3.035   5.921  12.497  1.6918  0.3799  3.3671
19413TIP3   OH279729   4.504   4.542  16.053 -0.4659  0.2075  0.6787
19413TIP3    H179730   4.465   4.624  16.020 -0.5504 -0.4020 -0.7646
19413TIP3    H279731   4.438   4.475  16.036  0.2980 -0.4564  0.2990
19414TIP3   OH279732   0.624   0.027  17.203  0.2504 -0.1027  0.3805
19414TIP3    H179733   0.581  -0.026  17.270  1.7180 -2.3758 -0.4107
19414TIP3    H279734   0.715   0.035  17.233  1.0408 -1.5403 -1.5227
19415TIP3   OH279735   1.412   6.786   5.026  0.1512  0.1439  0.5911
19415TIP3    H179736   1.481   6.842   4.990  2.1143 -1.3181  1.9481
19415TIP3    H279737   1.400   6.817   5.116 -0.1681 -0.3282  0.7151
19416TIP3   OH279738   0.403   3.066  12.922 -0.2028  0.4211  0.1170
19416TIP3    H179739   0.321   3.109  12.898  0.8953  1.5456 -1.7868
19416TIP3    H279740   0.408   2.989  12.864  1.0035  1.4515 -1.1870
19417TIP3   OH279741   3.573   6.185   0.562 -0.7832  0.0793 -0.0546
19417TIP3    H179742   3.581   6.278   0.541 -2.2902  0.6201  1.6519
19417TIP3    H279743   3.623   6.174   0.643  0.6628 -0.9286 -1.0566
19418TIP3   OH279744   2.727   4.640   2.362  0.3527 -0.0600  0.7726
19418TIP3    H179745   2.710   4.632   2.456 -0.0562  0.4326  0.7424
19418TIP3    H279746   2.809   4.594   2.349 -0.7841 -2.1853  0.9714
19419TIP3   OH279747   5.301   4.800   4.879  0.0207 -0.3813  0.3186
19419TIP3    H179748   5.215   4.828   4.849  0.6906  0.9952 -0.3806
19419TIP3    H279749   5.284   4.747   4.957 -1.3872  0.7916  0.8248
19420TIP3   OH279750   4.200   5.632  16.906  0.1441 -0.2587 -0.0076
19420TIP3    H179751   4.156   5.574  16.844 -0.9898 -1.7957  2.1337
19420TIP3    H279752   4.195   5.719  16.867 -0.2236 -1.2509 -2.2016
19421TIP3   OH279753   5.518   3.051   1.164  0.3007  0.0481 -0.0446
19421TIP3    H179754   5.608   3.018   1.163  0.8617  1.5069 -2.6874
19421TIP3    H279755   5.464   2.974   1.178  1.8847 -1.0838 -0.0119
19422TIP3   OH279756   5.754   0.327   3.770 -0.3985  0.4008  0.1873
19422TIP3    H179757   5.688   0.299   3.707  1.3706 -2.5737 -0.3893
19422TIP3    H279758   5.717   0.303   3.855 -0.2501 -0.8499 -0.0992
19423TIP3   OH279759   5.999   0.496   1.412 -0.3965  0.1715 -0.0823
19423TIP3    H179760   5.986   0.401   1.415 -0.0447  0.1145 -0.2957
19423TIP3    H279761   6.068   0.512   1.477 -1.5809  0.4839  1.1227
19424TIP3   OH279762   0.579   2.372  11.490  0.1385 -0.4019  0.1343
19424TIP3    H179763   0.567   2.435  11.419  1.9562 -0.6388 -0.4227
19424TIP3    H279764   0.612   2.293  11.446 -0.4407 -1.1599  1.0304
19425TIP3   OH279765   3.913   2.530  16.608 -0.1624 -0.3824  0.0303
19425TIP3    H179766   3.987   2.521  16.548 -0.6161 -2.8937 -0.1909
19425TIP3    H279767   3.942   2.594  16.673  1.2131  0.5990 -1.5054
19426TIP3   OH279768   2.074   2.538  16.514  0.1068  0.3849  0.1569
19426TIP3    H179769   2.114   2.452  16.519 -1.7573 -0.5809 -0.9180
19426TIP3    H279770   2.036   2.542  16.426  0.9807  2.6850 -0.1771
19427TIP3   OH279771   0.197   6.817  15.817  0.2604 -0.0987 -0.4765
19427TIP3    H179772   0.204   6.823  15.721 -1.1445 -0.5427 -0.6162
19427TIP3    H279773   0.186   6.724  15.835  0.3394  0.0019  0.1041
19428TIP3   OH279774   3.967   5.919  14.297 -0.1286  0.5048 -0.5227
19428TIP3    H179775   3.932   5.830  14.303  1.0646  0.0830  0.4186
19428TIP3    H279776   3.917   5.969  14.361 -0.4092  0.3761 -0.6413
19429TIP3   OH279777   4.222   1.209  16.533  0.9649 -0.0741 -0.6748
19429TIP3    H179778   4.192   1.120  16.552  1.4694  0.2033  1.6175
19429TIP3    H279779   4.284   1.229  16.603  0.4203  2.2931 -0.8091
19430TIP3   OH279780   6.675   1.642  14.783 -0.8229  0.0331 -0.4951
19430TIP3    H179781   6.736   1.569  14.781  0.1070  0.7353  0.8042
19430TIP3    H279782   6.692   1.690  14.702 -0.0612 -0.1086 -0.4224
19431TIP3   OH279783   3.217   3.485  14.763  0.2674  0.2539 -0.1966
19431TIP3    H179784   3.181   3.534  14.690 -0.0657 -1.6885 -1.3674
19431TIP3    H279785   3.298   3.447  14.730  0.5922  0.1157  0.7207
19432TIP3   OH279786   0.161   6.137   4.651 -0.7250 -0.0796  0.1759
19432TIP3    H179787   0.252   6.108   4.651 -0.8065 -0.3403  1.0515
19432TIP3    H279788   0.165   6.228   4.680 -0.8719 -0.5135  1.5760
19433TIP3   OH279789   3.141   2.113   1.674 -0.2479  0.3835  0.1817
19433TIP3    H179790   3.224   2.150   1.645 -0.7802  0.5574 -1.1921
19433TIP3    H279791   3.083   2.188   1.685 -0.8476  0.1234 -1.0143
19434TIP3   OH279792   5.036   1.185  14.431  0.2846  0.9099 -0.6942
19434TIP3    H179793   5.130   1.190  14.418  0.4843 -0.0743  0.3472
19434TIP3    H279794   5.013   1.096  14.405 -0.1016  0.6072  0.6636
19435TIP3   OH279795   4.580   0.534  11.102 -0.2049  0.3632  0.5100
19435TIP3    H179796   4.598   0.493  11.017  0.6457  3.2413 -0.7973
19435TIP3    H279797   4.609   0.625  11.090  0.2109  0.7447  4.0109
19436TIP3   OH279798   5.606   1.632  13.463 -0.6812  0.4692 -0.0035
19436TIP3    H179799   5.667   1.611  13.392  0.7751  1.0902  1.0520
19436TIP3    H279800   5.539   1.564  13.458  1.4490 -1.7176  0.4271
19437TIP3   OH279801   3.430   2.573  16.465  0.0422  0.0316  0.3002
19437TIP3    H179802   3.404   2.615  16.383  0.6912  0.8847  0.5227
19437TIP3    H279803   3.356   2.588  16.524 -1.1748 -2.0861 -0.6254
19438TIP3   OH279804   1.340   1.894  15.501 -0.1480  0.5317 -0.3475
19438TIP3    H179805   1.422   1.944  15.500  0.2220 -0.0267  0.5905
19438TIP3    H279806   1.368   1.805  15.525 -0.8098 -0.0825 -1.8053
19439TIP3   OH279807   3.870   2.901   0.676  0.6878  0.4146  0.5199
19439TIP3    H179808   3.897   2.925   0.765  0.9800 -0.4513  0.6696
19439TIP3    H279809   3.910   2.967   0.620  1.6445  0.1651  0.9034
19440TIP3   OH279810   1.391   1.548  14.517 -0.8297 -0.0860  0.2297
19440TIP3    H179811   1.346   1.584  14.440  0.2455 -0.6226 -0.6506
19440TIP3    H279812   1.452   1.617  14.543  0.5404 -0.8656 -0.8732
19441TIP3   OH279813   6.675   1.710   4.895  0.2657  0.5051  0.2799
19441TIP3    H179814   6.764   1.719   4.860 -0.4506  1.3068 -1.4031
19441TIP3    H279815   6.641   1.632   4.852  0.3796 -0.1980  1.4503
19442TIP3   OH279816   4.337   4.724  17.028  0.5789 -0.1873 -0.8016
19442TIP3    H179817   4.396   4.781  16.978  0.5285  1.0686  0.5206
19442TIP3    H279818   4.250   4.764  17.016  0.3767 -0.6010 -0.7207
19443TIP3   OH279819   3.162   0.817  10.806 -1.0055  0.1867  0.0725
19443TIP3    H179820   3.128   0.768  10.731  0.8337 -0.9615 -0.0618
19443TIP3    H279821   3.198   0.897  10.769 -0.3152 -0.2706 -0.2539
19444TIP3   OH279822   0.160   4.290  10.995  0.1649  0.3689 -0.3163
19444TIP3    H179823   0.182   4.200  10.972  1.2034  0.1217  1.5030
19444TIP3    H279824   0.232   4.318  11.051 -1.1850  1.6228  0.8305
19445TIP3   OH279825   6.712   6.565   2.612 -0.5604 -0.0250 -0.3315
19445TIP3    H179826   6.802   6.570   2.579 -0.6964  0.2051 -0.6696
19445TIP3    H279827   6.700   6.472   2.634 -0.3803 -0.1320 -0.6795
19446TIP3   OH279828   1.359   3.221  11.849 -0.2319 -0.1518  0.6526
19446TIP3    H179829   1.276   3.268  11.860 -1.4932 -1.8951 -1.0903
19446TIP3    H279830   1.378   3.186  11.936 -0.6968  1.2195  1.3302
19447TIP3   OH279831   3.484   0.047  14.455  0.3030  0.0905 -0.2764
19447TIP3    H179832   3.508  -0.015  14.524 -0.6590  0.4897  0.4298
19447TIP3    H279833   3.520   0.009  14.375 -3.3514 -3.2592 -0.4636
19448TIP3   OH279834   0.098   3.521   5.684 -0.0180 -0.4036 -0.7964
19448TIP3    H179835   0.061   3.436   5.707 -2.9109  0.7340 -1.0077
19448TIP3    H279836   0.144   3.505   5.602 -0.5367 -1.7772 -0.8334
19449TIP3   OH279837   6.814   3.968   3.912  0.5956 -0.4442 -0.6326
19449TIP3    H179838   6.726   3.942   3.938 -0.9040  2.5623 -2.4307
19449TIP3    H279839   6.816   3.956   3.817  2.2934 -0.9339 -0.5514
19450TIP3   OH279840   4.435   0.302   4.804 -0.2079 -0.3819 -0.0311
19450TIP3    H179841   4.371   0.315   4.734 -0.0440 -0.5946 -0.2200
19450TIP3    H279842   4.503   0.367   4.786 -1.8046  1.8921  1.8650
19451TIP3   OH279843   1.225   0.451  13.079  0.5517 -0.4567  0.0774
19451TIP3    H179844   1.219   0.455  12.983  0.7435  2.3780  0.1574
19451TIP3    H279845   1.300   0.506  13.100 -0.3966  0.1323  1.9746
19452TIP3   OH279846   5.721   2.995   1.453  0.0255 -0.0753 -0.7543
19452TIP3    H179847   5.673   3.072   1.485  1.5027  0.4087  0.3660
19452TIP3    H279848   5.703   2.993   1.359 -0.9689  0.9533 -0.6001
19453TIP3   OH279849   1.842   0.298  16.938 -0.4064 -0.3176  0.2403
19453TIP3    H179850   1.848   0.217  16.888  0.1679 -0.6131  0.7880
19453TIP3    H279851   1.931   0.314  16.969 -0.8549 -0.4352  1.6345
19454TIP3   OH279852   0.017   0.675   2.021 -0.4798 -0.4918  0.4921
19454TIP3    H179853   0.074   0.679   2.098  0.1432  1.2328 -0.0254
19454TIP3    H279854   0.031   0.759   1.977 -0.8903 -1.4226 -1.4606
19455TIP3   OH279855   3.535   1.744   2.970  0.3607 -0.0589 -0.4765
19455TIP3    H179856   3.606   1.753   2.906  0.3186  0.5722 -0.4307
19455TIP3    H279857   3.546   1.655   3.004  1.3409  0.1384 -0.2364
19456TIP3   OH279858   5.687   5.542   1.608  0.0963 -0.2103  0.0783
19456TIP3    H179859   5.740   5.508   1.679 -1.0157  1.7309  1.9239
19456TIP3    H279860   5.737   5.524   1.529  1.4355 -2.2654  1.3557
19457TIP3   OH279861   3.091   5.195   5.525  0.3916 -0.1348  0.8052
19457TIP3    H179862   3.056   5.114   5.487  2.6794 -1.1947  0.8747
19457TIP3    H279863   3.146   5.165   5.598  1.0174  1.5081  1.0315
19458TIP3   OH279864   5.746   6.292   1.786 -0.0368 -0.2940 -0.0920
19458TIP3    H179865   5.765   6.232   1.858  1.3325  0.7015  0.4158
19458TIP3    H279866   5.701   6.365   1.828 -2.4400 -1.3260 -0.8400
19459TIP3   OH279867   1.198   5.936   2.358 -0.4983  0.0991  0.5248
19459TIP3    H179868   1.248   5.878   2.300 -1.1958 -0.8377  0.8333
19459TIP3    H279869   1.113   5.946   2.314  0.3303  2.6613 -0.6000
19460TIP3   OH279870   1.629   2.110  12.798  0.4459  0.7052 -0.3623
19460TIP3    H179871   1.608   2.069  12.715 -0.8125 -1.4452  0.9629
19460TIP3    H279872   1.556   2.169  12.816 -0.2869 -0.3299  0.1362
19461TIP3   OH279873   1.796   3.476  16.441 -0.2579 -0.1997  0.0027
19461TIP3    H179874   1.709   3.441  16.418  0.4981 -2.2094  0.0763
19461TIP3    H279875   1.782   3.522  16.524 -1.4147  0.1731 -0.3919
19462TIP3   OH279876   5.544   3.090  14.400 -0.5415  0.2938  0.3488
19462TIP3    H179877   5.473   3.138  14.357 -0.1240  1.3539  0.8259
19462TIP3    H279878   5.499   3.024  14.453 -1.1747  0.8133  0.4675
19463TIP3   OH279879   2.908   5.954   5.444  0.1804  0.0600 -0.3694
19463TIP3    H179880   2.940   5.922   5.360  0.8413 -1.6666  0.5260
19463TIP3    H279881   2.896   6.048   5.431 -1.3602 -0.4484 -2.9084
19464TIP3   OH279882   6.068   2.784  13.339  0.0598 -0.0306  0.0935
19464TIP3    H179883   6.086   2.835  13.418 -0.4366 -1.7994  1.3702
19464TIP3    H279884   6.123   2.825  13.271 -1.3575  3.0586  0.7114
19465TIP3   OH279885   5.617   5.945  14.943 -0.1270  0.4935  0.2849
19465TIP3    H179886   5.610   5.938  14.848  1.6796  3.5269 -0.1563
19465TIP3    H279887   5.631   5.856  14.973  0.1037 -0.4143 -2.3939
19466TIP3   OH279888   1.242   0.775   5.330 -0.0977 -0.3353  0.2758
19466TIP3    H179889   1.221   0.866   5.355 -1.4153 -0.7707  0.7897
19466TIP3    H279890   1.178   0.753   5.263 -0.2368 -1.1394  0.6737
19467TIP3   OH279891   4.493   5.228  16.568  0.0128  0.2954  0.3568
19467TIP3    H179892   4.475   5.318  16.540 -0.4185  0.4499  1.1298
19467TIP3    H279893   4.436   5.174  16.513 -0.1995  0.5366  0.3380
19468TIP3   OH279894   1.510   4.215   4.974 -0.1265 -0.4586  0.2166
19468TIP3    H179895   1.601   4.224   4.948 -0.6040  0.8192 -1.0785
19468TIP3    H279896   1.508   4.137   5.030  1.8374 -0.1724  0.7094
19469TIP3   OH279897   1.645   3.850  13.977  0.4601 -0.2246  0.2372
19469TIP3    H179898   1.608   3.797  13.906 -1.0981 -0.5507  1.2488
19469TIP3    H279899   1.653   3.789  14.051  0.9086  0.3899  0.7064
19470TIP3   OH279900   3.349   4.480  12.093  0.2878  0.8734  0.0150
19470TIP3    H179901   3.405   4.546  12.134  0.5541  1.1877 -0.8400
19470TIP3    H279902   3.260   4.507  12.113  0.4311  0.5543  1.1082
19471TIP3   OH279903   5.675   6.628   5.633  0.1608  0.3243  0.0504
19471TIP3    H179904   5.724   6.592   5.560 -0.1089  1.3032 -0.6313
19471TIP3    H279905   5.599   6.570   5.642  0.9239 -0.6205  0.4807
19472TIP3   OH279906   4.679   3.459   3.774 -0.1355 -0.8519 -0.0004
19472TIP3    H179907   4.648   3.472   3.864  1.9741 -0.1639  0.6371
19472TIP3    H279908   4.773   3.443   3.782 -0.0587 -1.6125 -2.0218
19473TIP3   OH279909   0.472   1.825   5.764 -0.0619  0.4856 -0.3683
19473TIP3    H179910   0.401   1.868   5.813 -1.8920 -3.3887  0.5494
19473TIP3    H279911   0.548   1.830   5.822 -0.8808  0.3855  0.7320
19474TIP3   OH279912   0.611   5.773   1.062 -0.2967  0.0099  0.2962
19474TIP3    H179913   0.553   5.844   1.090  0.6982  0.8771  0.1899
19474TIP3    H279914   0.694   5.790   1.109  0.2582 -0.5184 -0.4870
19475TIP3   OH279915   2.083   3.629   2.955 -0.3702 -0.0695  0.5655
19475TIP3    H179916   2.051   3.571   3.024 -1.3732  0.3006  0.4217
19475TIP3    H279917   2.178   3.630   2.966 -0.5268  0.0065  1.9549
19476TIP3   OH279918   3.337   2.711  13.224 -0.0088 -0.1501 -0.2588
19476TIP3    H179919   3.272   2.661  13.273  0.5211 -1.8407 -1.2229
19476TIP3    H279920   3.356   2.787  13.279 -2.5890  0.2406  0.1551
19477TIP3   OH279921   6.671   3.415  13.153 -0.2926  0.0815  0.1880
19477TIP3    H179922   6.598   3.384  13.099  0.7663 -1.1230 -0.6060
19477TIP3    H279923   6.671   3.356  13.229 -0.0025 -0.0847  0.0614
19478TIP3   OH279924   3.354   6.182   0.759  0.4132  0.3357  0.0093
19478TIP3    H179925   3.403   6.231   0.693 -1.0491  1.9401  0.1055
19478TIP3    H279926   3.368   6.090   0.735  2.5745  0.8019 -0.5898
19479TIP3   OH279927   2.024   2.473  12.278 -0.0497 -0.1771 -0.1296
19479TIP3    H179928   2.111   2.470  12.316  0.1401  1.7880 -0.3295
19479TIP3    H279929   1.975   2.533  12.335 -1.2535 -1.2209 -0.0473
19480TIP3   OH279930   2.929   0.597   6.011  0.4652  0.0859  0.5353
19480TIP3    H179931   2.990   0.523   6.013  0.5285  0.1406  0.6352
19480TIP3    H279932   2.870   0.578   5.938  0.6808  0.0974  0.3581
19481TIP3   OH279933   4.077   1.168  13.792  0.0906  0.5043 -0.1617
19481TIP3    H179934   4.099   1.077  13.772 -1.6379  0.0682 -0.1134
19481TIP3    H279935   4.065   1.210  13.707  0.8312  0.6881 -0.1834
19482TIP3   OH279936   2.956   0.133  16.576 -0.6488 -0.0746 -0.1827
19482TIP3    H179937   2.965   0.040  16.553 -0.6008 -0.8575  2.8259
19482TIP3    H279938   2.926   0.175  16.495  2.5282 -2.1353 -2.5232
19483TIP3   OH279939   4.558   3.396  11.813 -0.1350  0.0440  0.7657
19483TIP3    H179940   4.528   3.415  11.724  0.1656  0.7137  0.8059
19483TIP3    H279941   4.531   3.472  11.864  0.8852  0.2802  0.9652
19484TIP3   OH279942   1.328   1.040   2.376  0.6173 -0.1522  0.9288
19484TIP3    H179943   1.307   0.986   2.452  0.0918 -0.1372  0.7995
19484TIP3    H279944   1.298   1.128   2.399  0.4296 -0.1531  0.6986
19485TIP3   OH279945   2.221   5.204   2.285 -0.1047  0.0221 -0.3528
19485TIP3    H179946   2.166   5.235   2.357  2.9371  2.1709  1.1733
19485TIP3    H279947   2.197   5.260   2.211 -0.6120  0.3461  0.0518
19486TIP3   OH279948   6.815   0.631   3.427 -0.3976  0.3885  0.2336
19486TIP3    H179949   6.850   0.614   3.515 -1.4605 -0.4299  0.5049
19486TIP3    H279950   6.722   0.613   3.435 -0.4570  0.0913 -1.1262
19487TIP3   OH279951   0.256   1.432  12.995  0.0104  0.2480 -0.4680
19487TIP3    H179952   0.257   1.487  13.074 -0.3482 -1.3592  0.6760
19487TIP3    H279953   0.164   1.425  12.972 -0.0051 -0.4651 -0.1916
19488TIP3   OH279954   4.212   5.885   0.912  0.2646 -0.5627 -0.1340
19488TIP3    H179955   4.222   5.931   0.829 -1.4975 -1.6496 -0.9705
19488TIP3    H279956   4.166   5.947   0.969  0.9311 -0.0429 -0.1576
19489TIP3   OH279957   6.146   4.713   0.350  0.2154  0.7227 -0.1464
19489TIP3    H179958   6.230   4.673   0.328 -0.4556  0.2111 -1.8520
19489TIP3    H279959   6.134   4.781   0.285 -1.7114 -0.6768 -1.3080
19490TIP3   OH279960   2.643   3.140  11.831  0.4567  0.5708  0.0561
19490TIP3    H179961   2.643   3.133  11.735  2.3275  0.3320  0.0617
19490TIP3    H279962   2.584   3.070  11.860 -1.0137  1.3746 -0.9560
19491TIP3   OH279963   0.482   2.209   2.656 -0.4808  0.0563  0.0179
19491TIP3    H179964   0.468   2.134   2.715  1.4067  0.6784  1.3104
19491TIP3    H279965   0.471   2.286   2.712  1.9441  0.6478 -0.2975
19492TIP3   OH279966   1.142   4.846  10.768 -0.5210 -0.8429 -0.1415
19492TIP3    H179967   1.054   4.883  10.764 -1.2057 -2.5896 -1.9168
19492TIP3    H279968   1.153   4.822  10.860 -2.0208 -0.8751  0.0532
19493TIP3   OH279969   1.465   3.860   4.041  0.0482 -0.3792  0.4292
19493TIP3    H179970   1.388   3.836   4.092 -0.9464 -2.6140 -1.9983
19493TIP3    H279971   1.511   3.777   4.026  1.7541  0.6099 -0.0580
19494TIP3   OH279972   1.876   4.740  12.173 -0.2552 -0.3689  0.2501
19494TIP3    H179973   1.847   4.802  12.106 -0.2590 -1.0609 -0.3908
19494TIP3    H279974   1.952   4.696  12.134 -0.2404 -0.7586  0.7101
19495TIP3   OH279975   0.638   3.699  11.037 -0.5661 -0.6475 -0.6995
19495TIP3    H179976   0.726   3.681  11.070 -0.3883 -1.3937 -1.5940
19495TIP3    H279977   0.637   3.794  11.022 -0.2002 -0.5082  0.1340
19496TIP3   OH279978   1.498   1.257   0.643  0.4999 -0.2754 -0.1359
19496TIP3    H179979   1.414   1.302   0.632  1.0396  0.8023  0.1358
19496TIP3    H279980   1.489   1.178   0.589 -1.1734 -0.8419  0.9086
19497TIP3   OH279981   2.239   3.451  12.495 -0.0092  0.2321  0.0583
19497TIP3    H179982   2.311   3.458  12.558  0.3259  2.4098 -0.5412
19497TIP3    H279983   2.278   3.473  12.411 -1.1995  0.6260 -0.4018
19498TIP3   OH279984   3.995   2.194  13.874 -0.0725 -0.0051  0.3202
19498TIP3    H179985   3.988   2.243  13.792  0.4359  1.4413  1.1269
19498TIP3    H279986   3.978   2.104  13.849 -1.3193  0.6109 -1.1542
19499TIP3   OH279987   3.589   0.706   2.774  1.1597 -0.0449 -0.2782
19499TIP3    H179988   3.608   0.645   2.845 -0.3300  0.6570  0.7597
19499TIP3    H279989   3.579   0.791   2.817 -0.7080  0.2239 -1.1768
19500TIP3   OH279990   6.326   3.662   5.289 -0.0580 -0.4613 -0.1572
19500TIP3    H179991   6.308   3.591   5.351  1.7981 -0.7226  0.1275
19500TIP3    H279992   6.301   3.741   5.336 -3.8062 -1.0018 -1.1233
19501TIP3   OH279993   4.892   5.469   1.095 -0.2519  0.1164 -0.1823
19501TIP3    H179994   4.836   5.464   1.172  0.2326  0.7034  0.2054
19501TIP3    H279995   4.919   5.561   1.089 -0.3391  0.0939 -1.0856
19502TIP3   OH279996   2.822   5.848  12.297 -0.1132 -0.4532  0.5923
19502TIP3    H179997   2.841   5.786  12.226 -1.6541 -0.3459  0.0683
19502TIP3    H279998   2.887   5.828  12.364  1.5694 -0.3557 -0.9584
19503TIP3   OH279999   3.300   3.275  14.549  0.7392  0.4066 -0.1515
19503TIP3    H180000   3.373   3.330  14.578  0.6696  0.9914 -1.0466
19503TIP3    H280001   3.328   3.185  14.566  2.1446  0.5727 -1.5261
19504TIP3   OH280002   5.119   3.393  14.185  0.5906  0.1444  0.5734
19504TIP3    H180003   5.180   3.465  14.204  0.5683  0.1331  0.6892
19504TIP3    H280004   5.150   3.356  14.103  0.1435  0.7829  0.1117
19505TIP3   OH280005   5.830   2.325  13.294 -0.3774 -1.0061 -0.2811
19505TIP3    H180006   5.752   2.286  13.254 -0.1461 -0.4044 -1.3250
19505TIP3    H280007   5.822   2.419  13.277  1.7228 -1.1664 -2.4736
19506TIP3   OH280008   4.893   1.967  13.109  0.0910 -0.3484  0.0312
19506TIP3    H180009   4.820   1.954  13.048 -0.4007 -1.8036  0.8922
19506TIP3    H280010   4.962   1.911  13.076 -0.2575 -1.3264  0.9104
19507TIP3   OH280011   1.011   6.634  15.210 -0.0476 -0.1244 -0.1338
19507TIP3    H180012   0.982   6.573  15.142 -1.2252 -0.3185  0.5304
19507TIP3    H280013   0.931   6.678  15.239  0.2410 -0.8905  1.9575
19508TIP3   OH280014   6.280   4.726   2.535  0.0610  0.0993 -0.1904
19508TIP3    H180015   6.262   4.703   2.444 -1.0829  0.6103 -0.1099
19508TIP3    H280016   6.375   4.718   2.544 -0.1053 -2.8802 -0.6062
19509TIP3   OH280017   1.916   0.390   1.156  0.0895  0.1155 -0.1153
19509TIP3    H180018   1.876   0.310   1.191  1.5970  0.1513  1.7454
19509TIP3    H280019   1.993   0.404   1.210  0.3690  2.3217 -1.0417
19510TIP3   OH280020   2.008   0.628   1.796  0.2352  0.3279  0.1570
19510TIP3    H180021   2.015   0.686   1.720 -0.8500 -0.2611 -0.4073
19510TIP3    H280022   1.918   0.637   1.825  0.6195  0.4657  1.3233
19511TIP3   OH280023   1.607   5.052  16.537 -0.6973  0.2697 -0.1499
19511TIP3    H180024   1.643   5.081  16.454  1.9048 -1.6341  0.2566
19511TIP3    H280025   1.611   5.129  16.594  0.5751  0.7104 -0.8227
19512TIP3   OH280026   0.769   1.042  14.058 -0.2392  0.2207 -0.1208
19512TIP3    H180027   0.685   1.004  14.083 -0.5880  0.9911 -0.0860
19512TIP3    H280028   0.793   0.999  13.976 -1.0146  0.4961 -0.4984
19513TIP3   OH280029   5.087   3.694   4.511  0.3961  0.0756 -0.6186
19513TIP3    H180030   5.111   3.758   4.578  1.4645 -1.2367  0.3143
19513TIP3    H280031   5.170   3.652   4.487 -0.3942 -1.7007 -0.3858
19514TIP3   OH280032   4.025   4.441   0.999 -0.5698  0.8410  0.5498
19514TIP3    H180033   3.990   4.429   0.911 -0.5647  0.7681  0.5582
19514TIP3    H280034   3.948   4.466   1.052 -1.0873 -1.7407  1.1038
19515TIP3   OH280035   3.824   4.659  12.784 -0.1189  0.2065  0.6098
19515TIP3    H180036   3.912   4.689  12.808 -0.5487 -0.2244  2.8973
19515TIP3    H280037   3.769   4.737  12.790 -0.1102  0.2333  0.3534
19516TIP3   OH280038   6.608   3.610  16.780  0.0236 -0.2653  0.2178
19516TIP3    H180039   6.548   3.684  16.796  1.6442  0.7756  1.7218
19516TIP3    H280040   6.574   3.540  16.836  0.3653  0.4201  1.3061
19517TIP3   OH280041   1.041   2.589  14.358 -0.1851  0.6756 -0.5710
19517TIP3    H180042   0.982   2.664  14.354 -1.3521 -0.1017  1.4656
19517TIP3    H280043   0.984   2.514  14.370  1.1700 -0.1344  1.0283
19518TIP3   OH280044   1.359   1.433   2.181  0.6537 -0.2964  0.3530
19518TIP3    H180045   1.313   1.463   2.103 -1.2082 -1.2904  1.0430
19518TIP3    H280046   1.304   1.461   2.254  1.4119 -1.0262  1.2217
19519TIP3   OH280047   4.998   2.250   6.647 -0.0939  0.6078  0.0270
19519TIP3    H180048   5.044   2.168   6.630  1.4368  2.0195 -3.2383
19519TIP3    H280049   5.053   2.295   6.712  0.6359  0.2698 -0.3468
19520TIP3   OH280050   0.557   4.558  16.493 -0.3243 -0.0266  0.0502
19520TIP3    H180051   0.514   4.643  16.492  2.4162  1.4244  0.0881
19520TIP3    H280052   0.555   4.529  16.402 -0.7031  0.3611 -0.0660
19521TIP3   OH280053   3.524   3.023  15.413  0.6211  0.0165 -0.1794
19521TIP3    H180054   3.568   3.107  15.426 -0.9496  0.8703 -0.2136
19521TIP3    H280055   3.502   2.993  15.501  0.3003  0.1465 -0.2112
19522TIP3   OH280056   2.070   3.072   2.766  0.2105 -0.0700 -0.8270
19522TIP3    H180057   2.145   3.078   2.824  0.8167 -1.5992 -1.4329
19522TIP3    H280058   1.995   3.098   2.820  0.9839  0.1195  0.1554
19523TIP3   OH280059   1.514   2.816  14.694 -0.1642 -0.2351 -0.5766
19523TIP3    H180060   1.580   2.875  14.656 -0.5905  1.6526  1.4858
19523TIP3    H280061   1.432   2.865  14.689 -0.3983 -0.3343  1.8119
19524TIP3   OH280062   2.192   2.860  13.678  0.3751 -0.0743  0.0122
19524TIP3    H180063   2.163   2.769  13.680 -0.1715  0.0590 -1.1504
19524TIP3    H280064   2.131   2.907  13.734  0.9662 -0.5016  1.0220
19525TIP3   OH280065   0.921   0.186  15.995  0.1286 -0.3145 -0.6022
19525TIP3    H180066   0.850   0.159  15.936 -0.7817 -0.3653  0.5152
19525TIP3    H280067   0.926   0.281  15.986 -0.4943 -0.2468 -0.2088
19526TIP3   OH280068   1.157   2.664  13.419  0.0294  0.5584 -0.2145
19526TIP3    H180069   1.073   2.692  13.384 -0.0391  0.5975 -0.0192
19526TIP3    H280070   1.144   2.661  13.514  0.0686 -0.0208 -0.2253
19527TIP3   OH280071   3.552   3.773   5.309  0.0610 -1.0384 -0.5454
19527TIP3    H180072   3.479   3.734   5.261 -3.4671  4.7736 -0.3872
19527TIP3    H280073   3.600   3.824   5.243  0.1709  0.1999  0.4553
19528TIP3   OH280074   3.622   5.939   2.240  0.2975 -0.0469 -0.4715
19528TIP3    H180075   3.634   6.030   2.216 -0.8541 -0.0528 -1.0944
19528TIP3    H280076   3.614   5.893   2.157 -0.3722 -0.5385 -0.1452
19529TIP3   OH280077   1.081   2.982   6.066 -0.3960 -1.0520  0.2726
19529TIP3    H180078   1.000   3.029   6.087  0.4434  1.5216 -2.0244
19529TIP3    H280079   1.057   2.924   5.994 -0.1310 -0.0258 -0.6511
19530TIP3   OH280080   4.058   6.311  11.385  0.2679 -0.4935 -0.9997
19530TIP3    H180081   4.048   6.238  11.323  0.3994 -0.5539 -0.9511
19530TIP3    H280082   3.989   6.296  11.450  0.3197 -0.5984 -0.9673
19531TIP3   OH280083   6.668   6.206   1.143 -0.2998  0.2432  0.3533
19531TIP3    H180084   6.700   6.214   1.233 -0.3323  1.4003  0.2755
19531TIP3    H280085   6.661   6.112   1.128 -1.0148  0.0345  1.8194
19532TIP3   OH280086   2.567   6.361  15.270  0.3400 -0.2774  0.3502
19532TIP3    H180087   2.586   6.393  15.359  0.2842 -0.8913  0.5845
19532TIP3    H280088   2.536   6.271  15.283 -1.7451  0.3458 -0.1006
19533TIP3   OH280089   5.800   5.130  16.514 -0.6390  0.0443  0.2622
19533TIP3    H180090   5.812   5.186  16.590 -0.7719  1.2353 -0.5929
19533TIP3    H280091   5.731   5.069  16.540 -0.8640  0.6087  0.9913
19534TIP3   OH280092   3.841   2.387   4.063  0.1290  0.4134  0.2232
19534TIP3    H180093   3.866   2.305   4.104 -1.2686 -0.1406 -0.0063
19534TIP3    H280094   3.924   2.427   4.035  0.8286 -0.7655  0.6067
19535TIP3   OH280095   0.013   6.739   2.902  0.2871 -0.3252  0.3417
19535TIP3    H180096   0.047   6.650   2.911  2.3575  0.3147 -0.8185
19535TIP3    H280097   0.069   6.780   2.836 -0.9733  1.6854  0.4615
19536TIP3   OH280098   4.459   5.905   0.254  0.1021  0.5042  0.7571
19536TIP3    H180099   4.491   5.833   0.200 -0.2992  2.0918 -1.6864
19536TIP3    H280100   4.406   5.863   0.321 -0.1414 -1.4734 -0.6186
19537TIP3   OH280101   5.997   5.814   2.354 -0.0523 -0.0638 -0.1513
19537TIP3    H180102   5.922   5.800   2.296  0.1703  2.8037 -1.1618
19537TIP3    H280103   5.979   5.897   2.398  2.3991  0.5163 -0.1731
19538TIP3   OH280104   1.201   1.112  14.518 -0.7273  0.1263  0.2027
19538TIP3    H180105   1.113   1.074  14.525 -0.2238 -1.0850 -0.0358
19538TIP3    H280106   1.203   1.148  14.429 -1.1693  0.6481  0.3961
19539TIP3   OH280107   0.761   2.115  13.683  0.1555  0.6903  0.1179
19539TIP3    H180108   0.828   2.067  13.731  0.0259  1.4550  1.0864
19539TIP3    H280109   0.794   2.205  13.680 -1.0916  1.1931  1.1127
19540TIP3   OH280110   4.561   3.041  11.595  0.2250  0.3246  0.6116
19540TIP3    H180111   4.471   3.070  11.609 -0.0167  0.8914 -1.9607
19540TIP3    H280112   4.614   3.120  11.611 -0.1275  1.2350 -2.3684
19541TIP3   OH280113   6.448   6.280  15.444 -0.0421  0.3304  0.4656
19541TIP3    H180114   6.399   6.257  15.523 -0.1122 -2.1557 -0.2780
19541TIP3    H280115   6.527   6.226  15.448 -0.3302 -0.2554 -1.4456
19542TIP3   OH280116   5.865   5.495  16.194 -0.0689 -0.3751  0.0956
19542TIP3    H180117   5.788   5.444  16.169 -0.0586 -0.6807  0.6761
19542TIP3    H280118   5.856   5.507  16.288  0.5305 -0.3096  0.1483
19543TIP3   OH280119   4.499   1.860   1.942  0.4003 -0.3977 -0.4280
19543TIP3    H180120   4.564   1.800   1.906  1.6094  0.5995  0.0508
19543TIP3    H280121   4.550   1.923   1.993 -0.8213  1.1184 -1.0232
19544TIP3   OH280122   3.177   5.564   1.812  0.0271 -0.6026  0.3862
19544TIP3    H180123   3.112   5.506   1.853 -0.6144  1.1798  1.9873
19544TIP3    H280124   3.242   5.504   1.776 -1.1838 -2.3608  0.9871
19545TIP3   OH280125   1.719   6.277   0.950  0.1137  0.5063 -0.2607
19545TIP3    H180126   1.674   6.360   0.966  2.7004  2.2034 -1.6154
19545TIP3    H280127   1.787   6.273   1.017  0.5819 -0.0915 -0.7668
19546TIP3   OH280128   6.041   3.525  17.046  0.3257 -0.0395  0.0164
19546TIP3    H180129   6.051   3.434  17.073  0.1677 -1.0909 -3.2718
19546TIP3    H280130   5.956   3.528  17.002  0.2167  1.7407  0.3161
19547TIP3   OH280131   6.554   1.761  16.130 -0.4753 -0.4574 -0.6659
19547TIP3    H180132   6.554   1.704  16.053 -0.4885 -0.5152 -0.6218
19547TIP3    H280133   6.493   1.720  16.191 -0.6869 -0.2509 -0.7432
19548TIP3   OH280134   6.447   6.328  12.205 -0.0013 -0.2587 -0.2501
19548TIP3    H180135   6.391   6.342  12.129  2.1573  0.7972 -1.7137
19548TIP3    H280136   6.482   6.416  12.225  0.3974 -0.7299  1.1911
19549TIP3   OH280137   1.849   5.852   0.589 -0.1265 -0.5233  0.2008
19549TIP3    H180138   1.829   5.922   0.528  1.2186  0.6462  1.0807
19549TIP3    H280139   1.943   5.835   0.577  0.2034 -0.1481  2.0327
19550TIP3   OH280140   4.297   5.917  12.492 -0.4432  0.3852  0.2284
19550TIP3    H180141   4.284   5.823  12.505 -0.5183  0.0061 -2.2001
19550TIP3    H280142   4.299   5.954  12.580  0.4324 -2.0019  1.2448
19551TIP3   OH280143   0.788   0.186  13.073  0.7271 -0.1415  0.5778
19551TIP3    H180144   0.816   0.241  13.146  0.8564 -1.6827  1.7145
19551TIP3    H280145   0.703   0.152  13.100  0.9062 -0.9503  0.1340
19552TIP3   OH280146   6.585   3.879   0.750 -0.4386  0.3578  0.2205
19552TIP3    H180147   6.526   3.953   0.762 -1.0247  0.0429 -0.6972
19552TIP3    H280148   6.547   3.809   0.803 -1.5853 -0.2272 -1.3526
19553TIP3   OH280149   1.088   4.458   1.812 -0.3321  0.4087 -0.5009
19553TIP3    H180150   1.002   4.457   1.769 -0.6666  2.1881  0.0898
19553TIP3    H280151   1.078   4.398   1.886 -0.5158 -0.7381 -1.4303
19554TIP3   OH280152   5.548   0.834   2.303  0.1555  0.1190 -0.0251
19554TIP3    H180153   5.488   0.813   2.374  0.7771  1.2648  0.8503
19554TIP3    H280154   5.530   0.925   2.282 -1.3846 -0.7330 -2.6784
19555TIP3   OH280155   3.069   4.549   5.307  0.2006  0.0856  0.8673
19555TIP3    H180156   3.088   4.500   5.387 -1.5557  0.0070  1.2598
19555TIP3    H280157   3.152   4.589   5.283  0.6913  0.3505  2.9009
19556TIP3   OH280158   6.554   0.805  14.587 -0.6535  0.2502 -0.1536
19556TIP3    H180159   6.587   0.880  14.538 -0.7753 -0.5331 -1.4511
19556TIP3    H280160   6.469   0.786  14.547 -0.9041 -0.1858  0.5839
19557TIP3   OH280161   6.535   4.281   5.433 -0.1255 -0.2866 -0.2543
19557TIP3    H180162   6.536   4.330   5.514  1.2088 -1.2740  0.3439
19557TIP3    H280163   6.516   4.191   5.460  0.1976 -0.5969 -1.0438
19558TIP3   OH280164   5.377   6.157  14.144  0.0873  0.5286 -0.3876
19558TIP3    H180165   5.300   6.104  14.166  1.0980 -0.1703  1.6619
19558TIP3    H280166   5.341   6.242  14.119 -1.4666 -0.5649 -1.9807
19559TIP3   OH280167   5.258   1.209   0.169  0.0080 -0.0740  0.6882
19559TIP3    H180168   5.227   1.273   0.233  1.2825 -0.4705  1.7337
19559TIP3    H280169   5.208   1.130   0.188  0.7325 -0.3398  1.5399
19560TIP3   OH280170   3.521   6.732   0.965  0.0841 -0.1109 -0.1825
19560TIP3    H180171   3.472   6.660   0.926  0.2511 -0.7784  0.8266
19560TIP3    H280172   3.543   6.702   1.053  0.6635  0.9380  0.0453
19561TIP3   OH280173   2.273   2.423   4.185 -0.0403  0.5149 -0.3445
19561TIP3    H180174   2.315   2.509   4.180 -0.5824  0.8839  1.0845
19561TIP3    H280175   2.247   2.403   4.095  0.8573  1.4516 -0.8229
19562TIP3   OH280176   5.160   6.016   5.209 -0.0217  0.0077 -0.1967
19562TIP3    H180177   5.190   6.098   5.169 -1.3060  0.0467 -1.1398
19562TIP3    H280178   5.211   5.948   5.166 -1.4806  0.0429 -2.0529
19563TIP3   OH280179   3.704   6.803  16.617 -0.0862 -1.0198 -0.1923
19563TIP3    H180180   3.758   6.867  16.663  0.2730 -1.2810 -0.2500
19563TIP3    H280181   3.766   6.749  16.569 -0.4106 -1.2164 -0.3930
19564TIP3   OH280182   3.327   5.965  16.892  0.2266 -0.0349 -0.6117
19564TIP3    H180183   3.291   6.021  16.961  2.9441 -1.1004  1.8043
19564TIP3    H280184   3.274   5.885  16.897  0.1072  0.0711 -0.0529
19565TIP3   OH280185   5.474   6.223  12.670 -0.2235  0.2510  0.6391
19565TIP3    H180186   5.434   6.310  12.672 -0.7998 -0.0296  1.6892
19565TIP3    H280187   5.453   6.189  12.583 -1.2028  0.6002  0.7372
19566TIP3   OH280188   3.775   0.324  13.276 -0.4607  0.1650 -0.0272
19566TIP3    H180189   3.829   0.247  13.293 -3.1118 -1.2334  2.4043
19566TIP3    H280190   3.818   0.394  13.325  1.0677 -0.0632 -0.9774
19567TIP3   OH280191   2.995   4.653   5.000  0.1404 -0.0888 -0.2064
19567TIP3    H180192   3.033   4.596   4.933  1.7579 -0.7524  1.2186
19567TIP3    H280193   2.961   4.592   5.066 -0.7151  0.5671 -0.0337
19568TIP3   OH280194   0.675   1.791   1.200 -0.3299  0.0242 -0.3544
19568TIP3    H180195   0.620   1.858   1.160  0.4826  0.9682  0.0946
19568TIP3    H280196   0.702   1.736   1.126  0.3605  1.1796 -0.9861
19569TIP3   OH280197   6.774   2.268  11.060 -0.6179 -0.3870 -0.1974
19569TIP3    H180198   6.720   2.346  11.049  0.1024 -0.0539 -1.4211
19569TIP3    H280199   6.723   2.197  11.020 -0.9474 -0.4241  0.2755
19570TIP3   OH280200   1.634   3.667  16.059  0.6271  0.4146 -0.3067
19570TIP3    H180201   1.710   3.704  16.104  0.5265  0.1271  0.1003
19570TIP3    H280202   1.561   3.681  16.120  0.4989 -0.0119 -0.3662
19571TIP3   OH280203   1.020   3.126  12.173  0.1657 -0.4771  0.0516
19571TIP3    H180204   0.928   3.100  12.175  0.2486 -0.7453  0.8255
19571TIP3    H280205   1.047   3.124  12.265  0.2661  2.0788  0.1116
19572TIP3   OH280206   3.091   2.011  15.485  0.1181 -0.0213  0.1981
19572TIP3    H180207   3.072   1.936  15.541 -0.6293 -1.0098 -1.3647
19572TIP3    H280208   3.150   1.976  15.418 -0.6049  0.6711 -0.8086
19573TIP3   OH280209   5.575   6.065  12.855 -0.4206  0.5023  0.0493
19573TIP3    H180210   5.546   6.122  12.783  1.1994  0.0046 -1.0223
19573TIP3    H280211   5.653   6.109  12.890 -0.4532  0.0818  0.6598
19574TIP3   OH280212   0.039   3.456  16.923  0.1357  0.1489 -0.0941
19574TIP3    H180213   0.001   3.392  16.863 -0.3758  0.3772 -0.0250
19574TIP3    H280214   0.002   3.432  17.008  0.3235  0.2421  0.0089
19575TIP3   OH280215   3.375   2.766  12.941 -0.0062 -0.0635 -0.5657
19575TIP3    H180216   3.446   2.706  12.918 -1.0964 -1.8320  0.6305
19575TIP3    H280217   3.329   2.723  13.014 -1.7193  1.5092 -0.6803
19576TIP3   OH280218   4.578   0.336   2.388  0.4789 -0.0262  0.1539
19576TIP3    H180219   4.491   0.338   2.349  0.9105 -0.2816 -0.8403
19576TIP3    H280220   4.577   0.258   2.444 -0.2058  0.4525  0.8189
19577TIP3   OH280221   4.838   3.183   0.487 -0.4115 -0.6732 -0.4507
19577TIP3    H180222   4.871   3.273   0.492 -1.6325 -0.2847  0.9911
19577TIP3    H280223   4.835   3.164   0.394 -1.4568  1.2923 -0.8505
19578TIP3   OH280224   2.578   0.968  11.118 -0.5775  0.2647 -0.1599
19578TIP3    H180225   2.488   0.943  11.097 -1.0656  1.9551 -0.1794
19578TIP3    H280226   2.606   1.022  11.044  0.6829 -0.7754 -0.4503
19579TIP3   OH280227   2.027   5.869  15.408  1.0647  0.7654  0.4052
19579TIP3    H180228   1.953   5.875  15.468 -0.3911 -0.6143 -1.2128
19579TIP3    H280229   2.079   5.795  15.441 -0.1336 -0.4766 -0.4279
19580TIP3   OH280230   5.124   3.873   2.577  0.0345 -0.2746  0.4667
19580TIP3    H180231   5.085   3.923   2.649 -1.4373  0.7234 -0.9676
19580TIP3    H280232   5.081   3.788   2.581 -0.2718 -0.1182  0.5891
19581TIP3   OH280233   4.992   5.812  12.123 -0.4480  0.1171 -0.2516
19581TIP3    H180234   4.951   5.753  12.187 -0.6446 -2.3909 -2.5834
19581TIP3    H280235   5.039   5.876  12.176  0.2412 -2.4906  2.4089
19582TIP3   OH280236   3.078   5.503   5.830 -0.1123  0.1917  0.0974
19582TIP3    H180237   3.106   5.419   5.868 -0.9199  0.0684  0.4361
19582TIP3    H280238   3.141   5.566   5.863 -0.4156 -0.0291  1.1178
19583TIP3   OH280239   6.588   3.779   1.380 -0.2542  0.5694 -0.2294
19583TIP3    H180240   6.573   3.731   1.462  0.2608  0.2536 -0.3212
19583TIP3    H280241   6.520   3.746   1.321 -0.6991  0.8796  0.1044
19584TIP3   OH280242   4.893   3.846  12.369  0.0937  0.0149  0.6445
19584TIP3    H180243   4.956   3.918  12.373 -2.0915  1.9517  1.0929
19584TIP3    H280244   4.834   3.870  12.297 -0.7870 -1.2332  0.9330
19585TIP3   OH280245   1.109   0.431   6.307  0.5743 -0.1793 -0.0358
19585TIP3    H180246   1.179   0.495   6.314  2.3012 -2.0197  0.1509
19585TIP3    H280247   1.031   0.481   6.282  1.6096  2.0942  1.2511
19586TIP3   OH280248   0.093   6.425  10.950  0.8147  0.8790  0.8923
19586TIP3    H180249   0.164   6.488  10.937  1.1024  0.3351 -0.2568
19586TIP3    H280250   0.030   6.444  10.880  0.1239  0.9607  1.5348
19587TIP3   OH280251   2.113   2.706  15.489  0.5058 -0.3738 -0.2989
19587TIP3    H180252   2.079   2.639  15.549 -0.2886 -0.8917 -1.2946
19587TIP3    H280253   2.169   2.657  15.429 -0.0401 -0.1415 -1.0031
19588TIP3   OH280254   1.010   2.470   2.270  0.2253  0.2366 -0.6799
19588TIP3    H180255   1.079   2.520   2.227  0.0208  2.2041  1.2164
19588TIP3    H280256   0.931   2.522   2.258 -0.1769 -0.0836  0.4902
19589TIP3   OH280257   0.325   6.666  15.277  0.9163 -0.0563 -0.5693
19589TIP3    H180258   0.252   6.615  15.242 -0.0447  0.7358  0.2419
19589TIP3    H280259   0.299   6.757  15.263  1.4964  0.2356  0.2109
19590TIP3   OH280260   5.330   5.284  17.105  0.5269 -0.0763  0.2755
19590TIP3    H180261   5.364   5.252  17.021  1.5987  1.8182 -0.0377
19590TIP3    H280262   5.315   5.377  17.091 -1.2314 -0.1398  1.5883
19591TIP3   OH280263   5.585   6.745  11.485 -0.2995 -0.0613 -0.0817
19591TIP3    H180264   5.547   6.693  11.414  1.4693 -0.9061 -0.4251
19591TIP3    H280265   5.646   6.804  11.442 -0.6773  0.7803  0.5351
19592TIP3   OH280266   5.867   6.282  11.084 -0.1659  0.4683  0.8229
19592TIP3    H180267   5.837   6.290  10.993  2.3218 -2.6162 -0.4008
19592TIP3    H280268   5.883   6.372  11.112 -3.4999  1.6663 -0.8361
19593TIP3   OH280269   5.356   5.658  14.285  0.4212  0.6204  0.0885
19593TIP3    H180270   5.329   5.637  14.374  0.5994 -0.9720 -0.2261
19593TIP3    H280271   5.280   5.701  14.246 -0.7435 -1.3981  0.0702
19594TIP3   OH280272   2.564   2.384  14.369  0.4108  0.6345  0.5862
19594TIP3    H180273   2.623   2.451  14.335  0.1301 -0.2004 -1.6724
19594TIP3    H280274   2.478   2.407  14.331  0.1409 -0.4901  0.5036
19595TIP3   OH280275   6.783   4.495  16.645 -0.0587 -0.5680  0.2535
19595TIP3    H180276   6.870   4.512  16.682 -0.0298  2.5107 -1.0837
19595TIP3    H280277   6.730   4.570  16.671 -1.6887 -1.2696 -0.9289
19596TIP3   OH280278   3.283   5.296  10.916 -0.1559 -0.1862 -0.4036
19596TIP3    H180279   3.220   5.278  10.986  1.7689 -0.5503  1.3140
19596TIP3    H280280   3.289   5.214  10.867  0.6882 -0.9288  0.8821
19597TIP3   OH280281   3.366   2.317   1.860  0.1391  0.3056 -0.6183
19597TIP3    H180282   3.338   2.287   1.773  0.1956 -2.0285  0.1407
19597TIP3    H280283   3.294   2.371   1.891  0.3189  1.5497 -2.2979
19598TIP3   OH280284   6.338   3.179   1.868 -0.2981 -1.0526 -0.0814
19598TIP3    H180285   6.317   3.235   1.793  1.2613 -0.5192 -0.1217
19598TIP3    H280286   6.424   3.142   1.847  1.2906  1.0191  2.5830
19599TIP3   OH280287   0.859   6.390   5.082  0.3251  0.3164 -0.1872
19599TIP3    H180288   0.952   6.411   5.083 -0.2322  3.1589 -2.1238
19599TIP3    H280289   0.820   6.450   5.145 -0.4414  0.6182 -0.9324
19600TIP3   OH280290   1.059   1.548  13.341 -0.5042 -1.0385 -0.2994
19600TIP3    H180291   0.995   1.617  13.324 -2.2508 -2.0203  2.0189
19600TIP3    H280292   1.022   1.471  13.298 -0.5763 -1.4615  0.5131
19601TIP3   OH280293   6.805   2.661  14.753  0.3555 -0.4438  0.2739
19601TIP3    H180294   6.750   2.637  14.679 -0.1514  0.4052  0.3731
19601TIP3    H280295   6.881   2.705  14.714 -1.0746  2.1995  0.3931
19602TIP3   OH280296   1.887   5.218   1.241 -0.3332  0.3804 -1.2107
19602TIP3    H180297   1.981   5.218   1.222  0.1649 -1.0949  1.1132
19602TIP3    H280298   1.856   5.302   1.206  2.6789  2.9012  1.7781
19603TIP3   OH280299   4.265   1.777  16.015 -0.2612 -0.0644 -0.1145
19603TIP3    H180300   4.205   1.710  15.981 -1.1803  1.0269 -0.6865
19603TIP3    H280301   4.319   1.730  16.079  0.0544 -1.6655 -1.5033
19604TIP3   OH280302   0.445   0.868  12.847  0.4979 -0.4980  0.6373
19604TIP3    H180303   0.455   0.786  12.799 -0.7660 -0.9414  1.0968
19604TIP3    H280304   0.369   0.853  12.904  0.8630  0.6469  1.4486
19605TIP3   OH280305   0.001   4.154   5.488 -0.3714  0.4905 -0.2496
19605TIP3    H180306  -0.015   4.220   5.555  0.2361  0.9421 -0.5360
19605TIP3    H280307  -0.010   4.201   5.405  2.9835  1.0398 -0.4916
19606TIP3   OH280308   5.199   0.153  17.134  0.2226  0.0796 -0.7340
19606TIP3    H180309   5.222   0.170  17.226 -1.6098 -0.8565 -0.0924
19606TIP3    H280310   5.277   0.180  17.085  2.9512 -3.3935  1.4264
19607TIP3   OH280311   1.441   6.202  11.273  0.7078 -0.7073 -0.2661
19607TIP3    H180312   1.516   6.151  11.240  0.8712 -0.2129 -0.6628
19607TIP3    H280313   1.420   6.262  11.202  2.1283  1.5538  1.1681
19608TIP3   OH280314   4.627   2.145  12.175 -0.4682  0.1756  0.3340
19608TIP3    H180315   4.598   2.178  12.260 -1.6815 -0.4507  0.1645
19608TIP3    H280316   4.559   2.085  12.147  0.5325 -0.5921 -0.5089
19609TIP3   OH280317   2.519   6.280   2.092  0.1693 -0.2384  0.8483
19609TIP3    H180318   2.575   6.355   2.072 -1.1325  0.6627  0.5163
19609TIP3    H280319   2.484   6.252   2.007 -1.1933  0.2623  1.2343
19610TIP3   OH280320   3.510   1.374   4.814 -0.0529 -0.0582  0.5366
19610TIP3    H180321   3.434   1.431   4.824  0.2341  0.3800  0.2573
19610TIP3    H280322   3.580   1.433   4.783  0.8037 -0.1597  2.1928
19611TIP3   OH280323   2.859   2.691  10.799  0.1777  0.1781 -0.1528
19611TIP3    H180324   2.912   2.612  10.809  1.3695  0.8310 -1.1184
19611TIP3    H280325   2.837   2.717  10.889  0.1009 -1.0255  0.1862
19612TIP3   OH280326   1.152   5.381  15.284  0.5894 -0.1882  0.6507
19612TIP3    H180327   1.143   5.407  15.375  0.4532 -1.0834  0.8986
19612TIP3    H280328   1.211   5.446  15.246 -0.3788  0.9279  1.0531
19613TIP3   OH280329   5.038   4.405   1.710 -0.2879 -0.0252 -0.2991
19613TIP3    H180330   4.993   4.417   1.626 -1.1381  2.9882  0.5235
19613TIP3    H280331   5.026   4.312   1.730 -4.8379  0.2785 -0.9210
19614TIP3   OH280332   0.274   6.721   1.774 -0.4376  0.4547 -0.1264
19614TIP3    H180333   0.240   6.793   1.826 -3.0523 -0.3544 -0.6378
19614TIP3    H280334   0.330   6.672   1.835 -0.9288  1.2871  1.0171
19615TIP3   OH280335   5.499   4.428  13.541  0.1718  0.4376  0.0024
19615TIP3    H180336   5.463   4.343  13.568  0.4286 -0.2794 -1.8349
19615TIP3    H280337   5.489   4.484  13.618 -0.5015 -1.1063  1.0604
19616TIP3   OH280338   0.004   2.299   5.209  0.2637  0.2047 -0.1210
19616TIP3    H180339  -0.024   2.319   5.120 -0.4935  0.1241  0.0988
19616TIP3    H280340  -0.049   2.356   5.265  1.8101  1.3601  0.1929
19617TIP3   OH280341   5.587   1.382   0.572  0.1081  0.0564 -0.2471
19617TIP3    H180342   5.650   1.311   0.579 -0.0954 -0.2286 -1.2244
19617TIP3    H280343   5.534   1.375   0.652 -0.0081 -0.9816 -0.4056
19618TIP3   OH280344   6.608   0.471  11.667  0.3445 -0.0010  0.6918
19618TIP3    H180345   6.610   0.377  11.683 -1.5839 -0.0196  0.9734
19618TIP3    H280346   6.515   0.490  11.653  0.5241  2.1324  2.2441
19619TIP3   OH280347   5.622   5.887  15.608 -0.6052  0.2412 -0.4797
19619TIP3    H180348   5.635   5.947  15.534  2.7032 -1.1153 -1.1245
19619TIP3    H280349   5.569   5.816  15.573  1.3444 -0.6296 -1.7510
19620TIP3   OH280350   2.068   6.226   1.332  0.3776  0.0666 -0.4483
19620TIP3    H180351   2.055   6.285   1.407  1.7161 -0.3400  0.1265
19620TIP3    H280352   2.042   6.140   1.364  1.2940 -0.1704 -0.3346
19621TIP3   OH280353   6.745   1.740  16.424 -0.2395 -0.4153 -0.1359
19621TIP3    H180354   6.765   1.789  16.344  1.1271 -0.5807  0.0887
19621TIP3    H280355   6.657   1.769  16.449  1.1802  3.2583  0.9696
19622TIP3   OH280356   1.199   6.315   3.183  0.0498  0.2609  0.4409
19622TIP3    H180357   1.221   6.407   3.201 -0.0592  0.8193 -2.0679
19622TIP3    H280358   1.236   6.299   3.096 -1.9664 -1.3910 -0.1254
19623TIP3   OH280359   0.691   5.165   4.517 -0.4631 -0.8087 -0.1507
19623TIP3    H180360   0.672   5.234   4.580  1.3203 -0.4338  0.0161
19623TIP3    H280361   0.712   5.088   4.570  1.2156 -0.4428 -0.2449
19624TIP3   OH280362   3.319   5.478   4.491 -0.4906  0.4540 -0.3086
19624TIP3    H180363   3.229   5.465   4.521 -0.8732 -0.2113 -1.7087
19624TIP3    H280364   3.369   5.495   4.571 -1.8292  0.6501  0.4933
19625TIP3   OH280365   6.093   2.371   4.952 -0.4978 -0.1659 -0.0927
19625TIP3    H180366   6.132   2.456   4.933  0.8011 -0.8230 -0.4429
19625TIP3    H280367   6.016   2.391   5.005  0.0143  1.2024  0.1533
19626TIP3   OH280368   1.128   6.548   0.473 -0.2647  0.2999 -0.0019
19626TIP3    H180369   1.078   6.629   0.482  0.8847  1.0398 -0.2858
19626TIP3    H280370   1.092   6.507   0.394 -1.4796  0.0583  0.6481
19627TIP3   OH280371   1.519   2.548  14.555  0.2292  0.2466  0.0524
19627TIP3    H180372   1.449   2.576  14.614 -0.8321  0.2138 -1.1611
19627TIP3    H280373   1.482   2.559  14.467  1.4914 -0.4544 -0.5839
19628TIP3   OH280374   4.664   4.931  17.253  0.1288 -0.7485  0.1017
19628TIP3    H180375   4.663   5.027  17.263 -0.7551 -0.9406  2.2291
19628TIP3    H280376   4.707   4.900  17.333 -1.8322 -2.2169  0.6130
19629TIP3   OH280377   2.134   0.725   0.111  0.3320 -0.2745 -0.5120
19629TIP3    H180378   2.222   0.750   0.137 -1.3563  2.0580  3.2945
19629TIP3    H280379   2.122   0.638   0.150  1.2066 -0.9723 -1.7604
19630TIP3   OH280380   5.786   4.719  11.679  0.1012 -0.3647 -0.0104
19630TIP3    H180381   5.768   4.635  11.720 -1.4186  0.6095  1.3508
19630TIP3    H280382   5.792   4.699  11.585 -0.6319 -1.9137  0.2636
19631TIP3   OH280383   4.410   0.535   0.636  0.8219  0.0182  0.5156
19631TIP3    H180384   4.327   0.543   0.589  1.0546  0.9276  0.2341
19631TIP3    H280385   4.444   0.449   0.612  0.3502 -0.0179 -0.0199
19632TIP3   OH280386   5.865   6.175  16.494 -0.5204  0.0807  0.2157
19632TIP3    H180387   5.819   6.240  16.548  0.5883  1.6519 -0.6675
19632TIP3    H280388   5.831   6.189  16.406 -0.0192 -0.2994 -0.0418
19633TIP3   OH280389   0.587   2.970   5.161 -0.2507  0.4786 -0.0232
19633TIP3    H180390   0.656   3.030   5.133 -0.1698  1.2512  1.7652
19633TIP3    H280391   0.631   2.912   5.224 -1.5198  1.8336  2.1558
19634TIP3   OH280392   6.627   2.967   0.982  0.4269 -0.5729 -0.0462
19634TIP3    H180393   6.676   2.885   0.972 -0.0099 -0.5299 -2.8369
19634TIP3    H280394   6.679   3.018   1.045  0.9040 -2.8171  1.4204
19635TIP3   OH280395   2.956   0.019  14.789 -0.5888  0.1154 -0.2671
19635TIP3    H180396   2.887  -0.045  14.809  0.5515 -1.7971 -2.2497
19635TIP3    H280397   3.036  -0.021  14.822 -0.1030  1.3418  0.0594
19636TIP3   OH280398   2.500   6.119  12.379  0.0875  0.0198 -0.6340
19636TIP3    H180399   2.551   6.187  12.423  0.0084 -0.7702  0.7179
19636TIP3    H280400   2.515   6.134  12.286  0.1991  1.7845 -0.3513
19637TIP3   OH280401   2.773   3.756   1.632  0.6373  0.3279 -0.8506
19637TIP3    H180402   2.703   3.813   1.663  1.0943  0.3987  0.0873
19637TIP3    H280403   2.838   3.759   1.702  1.7670  0.6066 -1.8879
19638TIP3   OH280404   4.331   1.161  11.361  0.3744  0.0168  0.5324
19638TIP3    H180405   4.388   1.086  11.345  3.1325  1.5529  2.6949
19638TIP3    H280406   4.358   1.226  11.297  0.4555  0.4442  1.0029
19639TIP3   OH280407   5.773   5.528   3.404 -0.3596  0.3123 -0.1815
19639TIP3    H180408   5.843   5.560   3.347  1.0266  1.1540  1.9419
19639TIP3    H280409   5.793   5.435   3.416  0.0117  0.4017 -0.1020
19640TIP3   OH280410   5.675   6.148  11.577  0.7358  0.2940 -0.1254
19640TIP3    H180411   5.692   6.060  11.610 -3.5336 -0.8217 -0.6491
19640TIP3    H280412   5.710   6.147  11.488 -1.8252 -1.8933 -1.1817
19641TIP3   OH280413   4.981   4.716  12.006  0.2561  0.1107  0.5837
19641TIP3    H180414   5.058   4.748  12.052  0.7748  2.1366 -1.6280
19641TIP3    H280415   4.917   4.788  12.013 -1.4184 -1.4709  2.2532
19642TIP3   OH280416   3.653   5.759   1.138  0.4072  0.4643 -0.2382
19642TIP3    H180417   3.639   5.709   1.219  0.7569 -0.7724 -0.9272
19642TIP3    H280418   3.738   5.801   1.150  0.5739  0.0798 -0.0502
19643TIP3   OH280419   0.231   6.089   4.028 -0.8000  0.3670  0.0251
19643TIP3    H180420   0.179   6.049   3.958  0.0341  1.0593 -1.0097
19643TIP3    H280421   0.243   6.018   4.092  1.4441 -1.3711 -2.2172
19644TIP3   OH280422   4.929   5.881  12.634 -0.6021  0.0768 -0.8891
19644TIP3    H180423   4.897   5.811  12.578 -0.1716 -1.3285  0.5727
19644TIP3    H280424   4.955   5.837  12.715  1.4794  1.6626 -0.6477
19645TIP3   OH280425   4.231   5.887   3.304  0.2905  0.2917 -0.3417
19645TIP3    H180426   4.316   5.921   3.275  0.7001 -0.3862  0.0588
19645TIP3    H280427   4.237   5.886   3.400  0.4016 -1.2118 -0.3590
19646TIP3   OH280428   0.972   2.525   5.918  0.3176 -0.2390  0.0190
19646TIP3    H180429   0.976   2.502   6.011  2.5806 -0.0898 -0.0145
19646TIP3    H280430   0.977   2.442   5.872  0.6100 -0.2238  0.0203
19647TIP3   OH280431   5.202   0.634   1.238  0.8792  0.8065 -0.2640
19647TIP3    H180432   5.247   0.716   1.258  1.6155  0.4869 -0.6085
19647TIP3    H280433   5.177   0.642   1.145 -0.5898  1.3633  0.1586
19648TIP3   OH280434   3.697   3.424  12.444 -0.5189 -0.2552  0.3070
19648TIP3    H180435   3.633   3.411  12.513 -0.2149 -1.7709  0.3249
19648TIP3    H280436   3.763   3.355  12.458  0.4144  0.4482 -0.4866
19649TIP3   OH280437   5.800   3.755   3.554 -0.4458  0.0747  0.8029
19649TIP3    H180438   5.725   3.756   3.614 -0.1515  1.0983  1.1680
19649TIP3    H280439   5.859   3.822   3.589 -0.9407  1.7549 -1.4738
19650TIP3   OH280440   3.303   6.451  16.343  0.1187 -0.1050 -0.0277
19650TIP3    H180441   3.327   6.441  16.435  1.3368 -0.2143 -0.3410
19650TIP3    H280442   3.346   6.532  16.316  0.2108 -0.3508 -0.6297
19651TIP3   OH280443   4.566   2.677  15.757  0.1975 -0.0911 -0.1290
19651TIP3    H180444   4.647   2.688  15.806  0.0535 -0.4616  0.2009
19651TIP3    H280445   4.583   2.716  15.672 -0.1607  2.2645  0.8288
19652TIP3   OH280446   6.516   4.737  14.797  0.0667  0.6527 -0.0768
19652TIP3    H180447   6.543   4.666  14.739 -0.6883 -0.3465  0.7839
19652TIP3    H280448   6.522   4.816  14.743  1.9259  0.0865 -0.7309
19653TIP3   OH280449   2.543   4.783  14.060  0.1643 -0.1008  0.4124
19653TIP3    H180450   2.495   4.811  13.982 -0.3630 -0.9749  0.4145
19653TIP3    H280451   2.616   4.845  14.067 -0.5273  0.7833 -0.0222
19654TIP3   OH280452   0.811   0.441   5.781  0.1545  0.9042  0.5299
19654TIP3    H180453   0.760   0.502   5.728  0.4869  0.4959 -0.2758
19654TIP3    H280454   0.882   0.493   5.817 -0.2272  1.2445  0.7917
19655TIP3   OH280455   4.259   4.916   5.875 -0.0913 -0.0469  0.2425
19655TIP3    H180456   4.348   4.891   5.902 -0.6519 -1.6502  0.6558
19655TIP3    H280457   4.213   4.932   5.957 -0.0335  1.3875  0.0111
19656TIP3   OH280458   3.886   1.350  12.212  0.2139 -0.6273  0.3696
19656TIP3    H180459   3.884   1.446  12.206 -0.4046 -0.7040 -0.7979
19656TIP3    H280460   3.798   1.326  12.243 -1.1458 -1.0513 -3.5353
19657TIP3   OH280461   0.267   5.231   4.892  0.2320 -0.1746  0.1868
19657TIP3    H180462   0.206   5.169   4.852 -0.0133  0.1110  0.1157
19657TIP3    H280463   0.230   5.317   4.871  0.2414 -0.0209  0.8036
19658TIP3   OH280464   4.062   3.156  16.532 -0.0691  0.1384  0.1304
19658TIP3    H180465   4.071   3.126  16.442  0.4514  0.9129 -0.0779
19658TIP3    H280466   4.052   3.251  16.525  0.8467  0.3009  0.9476
19659TIP3   OH280467   2.410   1.437   5.341  0.1490 -0.1967 -0.0168
19659TIP3    H180468   2.500   1.407   5.327  0.8960  2.4611 -1.2869
19659TIP3    H280469   2.380   1.462   5.253 -0.9213  1.3387  0.7754
19660TIP3   OH280470   5.579   5.723  13.039 -0.3777 -0.5400 -0.7656
19660TIP3    H180471   5.653   5.783  13.043  1.0936 -2.3785  1.3487
19660TIP3    H280472   5.541   5.725  13.127 -0.3402 -2.6069 -0.6671
19661TIP3   OH280473   3.369   0.621   4.127  0.3459  0.4919  0.0363
19661TIP3    H180474   3.416   0.685   4.073 -0.7139  2.1514  1.0475
19661TIP3    H280475   3.437   0.560   4.157  0.9303 -0.6151 -3.3161
19662TIP3   OH280476   5.457   3.598  13.996 -0.8696  0.3354  0.4000
19662TIP3    H180477   5.550   3.573  13.999 -0.6369  0.4194 -3.3782
19662TIP3    H280478   5.447   3.661  14.067  2.1624  0.9914  0.3264
19663TIP3   OH280479   0.035   6.710  16.990 -0.0827  0.0777 -0.4954
19663TIP3    H180480  -0.006   6.774  17.048  0.0515 -0.2444 -0.0479
19663TIP3    H280481  -0.038   6.667  16.946 -0.2956 -1.2295  1.0719
19664TIP3   OH280482   1.012   0.544  14.858  0.5007 -0.1418 -0.0567
19664TIP3    H180483   0.942   0.514  14.916  0.6393  1.0743  0.7649
19664TIP3    H280484   1.054   0.464  14.828 -0.2611 -0.8288  0.6757
19665TIP3   OH280485   1.598   5.459  12.384 -0.4869  0.1270  0.2596
19665TIP3    H180486   1.644   5.543  12.387 -0.8852  0.4487 -1.6719
19665TIP3    H280487   1.505   5.483  12.379 -0.6422 -0.4377  0.4209
19666TIP3   OH280488   3.048   4.494  15.632 -0.3699  0.5431  0.3875
19666TIP3    H180489   2.983   4.515  15.699 -0.2332  0.5351  0.5230
19666TIP3    H280490   3.129   4.482  15.681 -0.3755  0.0439  0.2720
19667TIP3   OH280491   4.293   4.796   2.918  0.0934 -0.2616  0.0040
19667TIP3    H180492   4.356   4.848   2.967 -0.7037  0.5167  0.2310
19667TIP3    H280493   4.221   4.782   2.980 -0.0162 -1.0273 -0.2909
19668TIP3   OH280494   2.439   3.645   2.330  0.1373  0.5777 -0.3453
19668TIP3    H180495   2.488   3.727   2.326  0.7142  0.1611 -2.3020
19668TIP3    H280496   2.386   3.645   2.250  0.6451 -1.2431 -0.7029
19669TIP3   OH280497   6.719   4.551  15.130 -0.4487 -0.0841  0.9504
19669TIP3    H180498   6.652   4.506  15.180 -1.3560 -0.2323 -0.3717
19669TIP3    H280499   6.706   4.644  15.149 -0.0275 -0.2146  1.9026
19670TIP3   OH280500   2.226   6.399  13.543  0.1412 -0.0711  0.1148
19670TIP3    H180501   2.248   6.365  13.456 -1.0903  0.9957 -0.6477
19670TIP3    H280502   2.251   6.492  13.539  0.2250 -0.0573  0.9473
19671TIP3   OH280503   4.336   5.371  11.766 -0.0468 -0.1937 -0.0247
19671TIP3    H180504   4.423   5.336  11.745 -0.1548 -0.6000  0.2151
19671TIP3    H280505   4.286   5.359  11.685  0.0421 -0.2005 -0.0787
19672TIP3   OH280506   4.820   0.023   2.524 -0.0495  0.2968 -0.0696
19672TIP3    H180507   4.883   0.036   2.595 -0.6715 -1.0428  0.7355
19672TIP3    H280508   4.765   0.102   2.525  0.0156  0.3292  0.8458
19673TIP3   OH280509   3.094   5.860  15.224  0.2165  0.2702 -0.1017
19673TIP3    H180510   3.159   5.924  15.194  0.9265  0.1020  1.0546
19673TIP3    H280511   3.146   5.791  15.265 -0.7852  0.8288  2.1308
19674TIP3   OH280512   1.271   6.024   1.450  0.0696  0.3631 -0.0052
19674TIP3    H180513   1.292   5.977   1.370  1.1468 -1.0865  1.1060
19674TIP3    H280514   1.342   6.086   1.461  0.2255  0.1613  0.1330
19675TIP3   OH280515   1.229   3.696   4.980  0.2660  0.1608 -0.1729
19675TIP3    H180516   1.137   3.692   5.004  0.8431 -0.1262  2.1167
19675TIP3    H280517   1.250   3.790   4.982  0.6471  0.0461  1.8685
19676TIP3   OH280518   2.381   4.528  16.422 -0.5428  0.3632 -0.0993
19676TIP3    H180519   2.410   4.490  16.505  0.8876  1.3782 -0.1133
19676TIP3    H280520   2.287   4.510  16.418  0.0146 -2.8750  0.0308
19677TIP3   OH280521   0.040   3.721  17.033 -0.1313  0.0097  0.9745
19677TIP3    H180522   0.088   3.753  16.957  0.0017 -0.4356  0.8651
19677TIP3    H280523   0.017   3.631  17.010 -1.3415  0.3371  0.8677
19678TIP3   OH280524   5.275   4.702   0.193  0.0260  0.3049 -0.5571
19678TIP3    H180525   5.247   4.685   0.283 -1.5218  0.8459 -0.9213
19678TIP3    H280526   5.221   4.776   0.165 -1.7598 -1.8024 -2.9415
19679TIP3   OH280527   6.230   0.160   3.810  0.6573 -0.2701 -0.1973
19679TIP3    H180528   6.231   0.171   3.905  0.0859 -1.4106 -0.0474
19679TIP3    H280529   6.146   0.198   3.782  1.0245  0.4646 -0.2965
19680TIP3   OH280530   0.095   5.383   3.783 -0.3261 -0.0879  0.2410
19680TIP3    H180531   0.046   5.411   3.861 -0.6425 -0.9615  0.3589
19680TIP3    H280532   0.033   5.329   3.735  0.8470 -2.0215  0.8780
19681TIP3   OH280533   2.172   3.709  13.431  0.0167 -0.1292 -0.3070
19681TIP3    H180534   2.108   3.695  13.500  0.2113  3.0362  0.5998
19681TIP3    H280535   2.124   3.757  13.363  0.8703  0.3833 -0.5589
19682TIP3   OH280536   0.508   6.165   3.991 -0.1767  0.7335 -0.2299
19682TIP3    H180537   0.485   6.108   4.065 -1.0173  0.7019 -0.5104
19682TIP3    H280538   0.443   6.145   3.924  0.0027  1.4513 -0.6263
19683TIP3   OH280539   6.543   1.704  15.303  0.0819  0.0420  0.2210
19683TIP3    H180540   6.540   1.689  15.208  0.8182 -0.4599  0.2676
19683TIP3    H280541   6.553   1.798  15.312  2.1487 -0.0964 -0.2708
19684TIP3   OH280542   0.627   3.061   5.863 -0.0568 -0.0127  0.0747
19684TIP3    H180543   0.687   3.124   5.823 -0.9320  1.3424  0.8190
19684TIP3    H280544   0.546   3.071   5.814  0.3964 -2.0323 -1.1058
19685TIP3   OH280545   1.788   6.774   3.629  0.1683 -0.2734  0.3207
19685TIP3    H180546   1.867   6.719   3.630  0.2092 -0.2584 -1.4327
19685TIP3    H280547   1.811   6.850   3.682  1.4692 -0.0953 -0.4751
19686TIP3   OH280548   0.941   0.697   1.668  0.3633  0.0930  0.3432
19686TIP3    H180549   0.948   0.755   1.592 -1.6381  1.5934  1.2881
19686TIP3    H280550   0.997   0.622   1.645  1.0423  1.2392 -1.9229
19687TIP3   OH280551   4.277   1.450  14.566  0.2793  0.2220  0.6498
19687TIP3    H180552   4.234   1.383  14.620  0.5564 -1.2043 -0.8637
19687TIP3    H280553   4.352   1.479  14.618  0.8488 -1.5180  0.8239
19688TIP3   OH280554   6.256   1.738   6.848  0.2452 -0.0082  0.0975
19688TIP3    H180555   6.268   1.663   6.790  0.7158 -0.1322  0.3613
19688TIP3    H280556   6.327   1.732   6.912  0.4424  0.8032 -0.0366
19689TIP3   OH280557   3.038   1.554  14.738  0.6398 -0.6167 -0.7897
19689TIP3    H180558   3.050   1.497  14.662  0.6545  1.2871 -2.2355
19689TIP3    H280559   3.127   1.575  14.766  0.6529 -2.3950  0.6242
19690TIP3   OH280560   6.162   3.364  13.351  0.7636 -0.1390  0.1850
19690TIP3    H180561   6.220   3.405  13.415  0.7289  0.0109  0.1192
19690TIP3    H280562   6.092   3.427  13.338  0.2604 -0.5732  0.7191
19691TIP3   OH280563   6.080   1.214   3.843  0.8874  0.3376  0.1093
19691TIP3    H180564   6.068   1.161   3.922 -1.3035  2.1692  1.0290
19691TIP3    H280565   6.025   1.172   3.777  0.3374  0.5757  0.4142
19692TIP3   OH280566   5.555   0.767   3.736 -0.5976  0.8209 -0.0057
19692TIP3    H180567   5.506   0.694   3.774 -0.0940  0.4443 -0.0781
19692TIP3    H280568   5.562   0.831   3.806  0.7384 -0.0671  0.6969
19693TIP3   OH280569   3.719   3.753   3.052  0.1036  0.1055 -0.3530
19693TIP3    H180570   3.753   3.752   3.141 -0.7751  0.8649  0.0064
19693TIP3    H280571   3.729   3.844   3.024 -0.9153  0.1776 -0.5041
19694TIP3   OH280572   6.717   0.566   0.095 -0.6336  0.0509 -0.4844
19694TIP3    H180573   6.646   0.511   0.127  0.1265 -0.2341  0.7592
19694TIP3    H280574   6.781   0.567   0.166  2.0294 -2.2201 -2.7419
19695TIP3   OH280575   4.356   6.129  15.847  0.4232 -0.4274 -0.0947
19695TIP3    H180576   4.292   6.081  15.900 -0.4919  1.9899  1.0672
19695TIP3    H280577   4.435   6.131  15.901 -0.6977  2.5676  1.5296
19696TIP3   OH280578   6.634   3.368   0.891 -0.1103 -0.0164  0.5808
19696TIP3    H180579   6.644   3.405   0.979  0.1708 -1.7607  1.3214
19696TIP3    H280580   6.540   3.347   0.885 -0.8631  3.5084 -0.9943
19697TIP3   OH280581   2.876   3.423  16.240  0.1039  0.2359  0.1002
19697TIP3    H180582   2.907   3.505  16.280 -1.2188  0.3786  0.8637
19697TIP3    H280583   2.786   3.414  16.271 -0.1949 -0.8392 -1.0455
19698TIP3   OH280584   6.070   0.211   3.479 -0.2680  0.2221 -0.0294
19698TIP3    H180585   6.109   0.194   3.393  2.0500 -1.3628  1.2956
19698TIP3    H280586   5.990   0.158   3.479 -0.3615  0.3358 -1.2516
19699TIP3   OH280587   0.979   1.790  11.436 -0.4040 -0.0895 -0.2288
19699TIP3    H180588   0.951   1.847  11.364  0.7198 -0.4325 -0.9460
19699TIP3    H280589   1.041   1.730  11.396  0.1675 -0.3428  1.0212
19700TIP3   OH280590   5.968   0.003  17.233 -0.3700 -0.1373 -0.1617
19700TIP3    H180591   5.959  -0.058  17.160 -0.1319 -0.3384 -0.0241
19700TIP3    H280592   5.945  -0.048  17.310 -3.4871  0.8599 -0.3681
19701TIP3   OH280593   5.314   6.394  12.538  0.0936 -0.3197  0.1490
19701TIP3    H180594   5.240   6.346  12.500  0.8252 -0.3762 -1.2493
19701TIP3    H280595   5.335   6.461  12.473  1.4192 -0.4513  0.4263
19702TIP3   OH280596   4.337   4.496  12.181  0.1363 -0.5330  0.9663
19702TIP3    H180597   4.294   4.467  12.101  0.0278  1.9655  0.0961
19702TIP3    H280598   4.419   4.446  12.184 -0.3377 -1.3841 -0.1566
19703TIP3   OH280599   2.420   0.849   2.730  0.1366 -0.3723 -0.1346
19703TIP3    H180600   2.342   0.892   2.695 -0.9654 -0.6325  1.9416
19703TIP3    H280601   2.475   0.921   2.761  0.2482 -0.2497 -0.6070
19704TIP3   OH280602   2.693   3.532   1.864 -0.3763 -0.2802  0.0808
19704TIP3    H180603   2.710   3.624   1.887 -0.3355 -0.0044 -1.0426
19704TIP3    H280604   2.760   3.511   1.799  1.1053 -1.8253  2.0192
19705TIP3   OH280605   0.040   0.264   4.003 -0.1576 -0.6950  0.0032
19705TIP3    H180606   0.097   0.246   4.079 -0.5189 -1.9258 -0.0038
19705TIP3    H280607   0.057   0.356   3.982  0.3295 -0.4825  1.2635
19706TIP3   OH280608   3.364   1.645   0.059  0.5802 -0.3971 -0.2252
19706TIP3    H180609   3.455   1.623   0.038  0.6209  0.1063 -0.5934
19706TIP3    H280610   3.314   1.608  -0.013  0.7082  1.2260 -1.1852
19707TIP3   OH280611   1.661   0.504  12.936  0.1014 -0.0207 -0.2558
19707TIP3    H180612   1.680   0.585  12.889  0.1586 -0.1192 -0.4035
19707TIP3    H280613   1.638   0.441  12.868  1.7086 -0.6039 -0.2999
19708TIP3   OH280614   6.175   1.909  15.133  0.1355 -0.2550  0.0023
19708TIP3    H180615   6.146   1.993  15.097  1.0692  0.2133  0.3215
19708TIP3    H280616   6.253   1.886  15.082 -0.7311 -1.4603 -0.7934
19709TIP3   OH280617   2.886   3.934   2.890 -0.2771 -0.3964  0.1812
19709TIP3    H180618   2.977   3.962   2.895 -0.2872 -0.3909  0.3268
19709TIP3    H280619   2.844   3.999   2.833 -0.0356 -0.7952 -0.4672
19710TIP3   OH280620   3.057   6.468   3.542  0.1518  0.1872 -0.1040
19710TIP3    H180621   3.097   6.533   3.600  0.0512  0.8818 -0.7996
19710TIP3    H280622   3.118   6.395   3.541  0.6810  0.6249  0.0271
19711TIP3   OH280623   3.488   0.966  14.838  0.4315 -0.3270  0.0986
19711TIP3    H180624   3.564   1.022  14.855 -0.2731  0.7071 -0.1082
19711TIP3    H280625   3.456   0.996  14.753  0.4501 -1.5137 -0.3340
19712TIP3   OH280626   4.856   5.567   0.330  0.2453 -0.1963 -0.4409
19712TIP3    H180627   4.908   5.542   0.253  0.7415 -0.4911 -0.0124
19712TIP3    H280628   4.830   5.483   0.369  0.3894 -0.0476 -0.0244
19713TIP3   OH280629   6.360   0.342   2.586  0.0380 -0.3477  0.5152
19713TIP3    H180630   6.424   0.380   2.527 -0.6694 -1.5623 -1.0694
19713TIP3    H280631   6.409   0.324   2.666  1.1701  0.6795  0.0642
19714TIP3   OH280632   1.880   2.568  17.049  0.1079  0.0177  0.2962
19714TIP3    H180633   1.844   2.610  16.971 -0.1508  2.9096  1.9246
19714TIP3    H280634   1.808   2.515  17.083  0.4179 -1.7919 -1.7224
19715TIP3   OH280635   0.943   5.742  13.267  0.5280 -0.0123 -0.4499
19715TIP3    H180636   0.961   5.665  13.213 -0.9670 -1.4308  0.9950
19715TIP3    H280637   0.968   5.716  13.356  2.2168  2.0119 -0.2960
19716TIP3   OH280638   3.234   5.260  11.610 -0.1614  0.0444 -0.1549
19716TIP3    H180639   3.191   5.317  11.675 -0.4457  0.7151 -0.9193
19716TIP3    H280640   3.221   5.306  11.527 -2.7818 -2.4709 -1.2086
19717TIP3   OH280641   0.254   1.826   1.549  0.2587  0.1942  0.0271
19717TIP3    H180642   0.229   1.891   1.615 -1.6198  0.9850 -1.4023
19717TIP3    H280643   0.186   1.758   1.556  0.8688 -0.4332 -0.1090
19718TIP3   OH280644   4.810   4.697   3.589 -0.1552  0.0023 -0.3978
19718TIP3    H180645   4.750   4.760   3.629  0.4626  1.9471 -2.4793
19718TIP3    H280646   4.893   4.711   3.634 -0.8857 -1.9135  1.6880
19719TIP3   OH280647   1.637   5.211   5.525  0.8890  0.0788 -0.5587
19719TIP3    H180648   1.710   5.151   5.540  0.7620  0.4151  1.5713
19719TIP3    H280649   1.600   5.183   5.441  1.8161 -1.7939 -0.3770
19720TIP3   OH280650   2.993   1.791  15.023  0.1041 -0.0467 -0.0163
19720TIP3    H180651   3.071   1.747  15.056  0.9817  2.4479  1.4187
19720TIP3    H280652   3.003   1.791  14.928  0.4118 -2.2692 -0.0078
19721TIP3   OH280653   1.522   3.747  15.794 -1.1020  0.1545 -0.1627
19721TIP3    H180654   1.461   3.673  15.799  2.2041 -2.6862  0.3471
19721TIP3    H280655   1.564   3.748  15.880  1.3561  0.3912 -1.3208
19722TIP3   OH280656   5.119   0.424   2.227 -0.2735  0.3149  0.2870
19722TIP3    H180657   5.129   0.496   2.289  0.4903  0.2235  0.2709
19722TIP3    H280658   5.025   0.404   2.228 -0.1710 -0.1321  1.9106
19723TIP3   OH280659   0.159   3.801   5.762 -0.0478 -0.3564 -0.0521
19723TIP3    H180660   0.228   3.761   5.815 -0.0044  0.7735  0.7613
19723TIP3    H280661   0.106   3.727   5.731  0.1476 -1.0575  1.2551
19724TIP3   OH280662   3.091   0.832   2.969 -0.2661  0.2480  0.2998
19724TIP3    H180663   3.013   0.803   3.017  0.6202 -0.3223  1.4070
19724TIP3    H280664   3.164   0.793   3.016  0.7610  1.5791 -0.1513
19725TIP3   OH280665   5.808   4.152   3.348  0.2675  0.3991  0.1274
19725TIP3    H180666   5.822   4.182   3.438 -2.7214  0.7145  0.5405
19725TIP3    H280667   5.770   4.064   3.358  2.7554 -0.8275 -0.9245
19726TIP3   OH280668   4.144   3.473   5.323 -0.5701  0.1956  0.5539
19726TIP3    H180669   4.054   3.505   5.325 -0.1397  1.4573  0.2031
19726TIP3    H280670   4.168   3.462   5.415  0.2533  3.7670  0.8412
19727TIP3   OH280671   0.855   3.111   4.363  0.1875 -0.2772  0.5811
19727TIP3    H180672   0.830   3.029   4.320  0.3160  0.3162 -0.6406
19727TIP3    H280673   0.829   3.099   4.455 -1.8536 -0.8360 -0.0391
19728TIP3   OH280674   1.254   1.093   1.967 -0.1424  0.2932 -0.2041
19728TIP3    H180675   1.180   1.105   1.908 -0.0420 -1.2779 -0.6740
19728TIP3    H280676   1.216   1.050   2.044  0.2805 -0.5845 -0.4788
19729TIP3   OH280677   0.344   1.573  11.990  0.0289  0.0864 -0.2747
19729TIP3    H180678   0.322   1.508  11.923 -0.3375  1.7201 -1.7655
19729TIP3    H280679   0.438   1.561  12.004  0.1281 -0.2048 -1.1499
19730TIP3   OH280680   5.915   5.232   3.483  0.2759  0.3841 -0.1880
19730TIP3    H180681   5.984   5.233   3.417  0.6496  0.0320  0.1989
19730TIP3    H280682   5.946   5.171   3.550  0.6791  2.0424  1.1637
19731TIP3   OH280683   4.052   4.531   3.926  0.0491 -0.1923 -0.2894
19731TIP3    H180684   4.061   4.506   3.835  2.0132  0.4458 -0.2970
19731TIP3    H280685   4.107   4.609   3.935 -0.5053  0.0336  1.3203
19732TIP3   OH280686   1.858   3.805  11.237  0.1529 -0.1779 -0.0151
19732TIP3    H180687   1.943   3.786  11.199  0.7323 -0.2661  1.2843
19732TIP3    H280688   1.858   3.899  11.252  0.4961 -0.3441  1.0759
19733TIP3   OH280689   0.747   6.775   5.972 -0.4633  0.0240  0.0723
19733TIP3    H180690   0.723   6.769   6.065 -2.1846  0.5469 -0.3127
19733TIP3    H280691   0.707   6.857   5.943  1.1826  0.5221 -0.8230
19734TIP3   OH280692   2.829   5.403  10.835  0.3131  0.0404 -0.0460
19734TIP3    H180693   2.860   5.381  10.747  0.2564  0.6524 -0.2233
19734TIP3    H280694   2.767   5.475  10.821  1.8268  1.5089  0.6677
19735TIP3   OH280695   6.567   1.754   1.675 -0.3792 -0.6954  0.9196
19735TIP3    H180696   6.628   1.787   1.608 -2.1192  0.2756 -0.2193
19735TIP3    H280697   6.561   1.826   1.738 -1.5656 -0.1519  0.1969
19736TIP3   OH280698   3.245   3.575  16.195  0.3983  0.3931 -0.0658
19736TIP3    H180699   3.243   3.647  16.132 -2.1181 -0.6485 -1.2379
19736TIP3    H280700   3.174   3.596  16.256  0.3356 -0.5828  0.1950
19737TIP3   OH280701   2.539   1.984  14.362  0.8393  0.2371  0.3992
19737TIP3    H180702   2.444   1.973  14.359  0.6184  2.4792 -1.4938
19737TIP3    H280703   2.564   2.007  14.273  2.7387  2.9398  1.5600
19738TIP3   OH280704   2.343   5.916   0.289 -0.0896 -0.3664 -0.1528
19738TIP3    H180705   2.364   5.901   0.382  1.1152 -0.1727 -0.3773
19738TIP3    H280706   2.407   5.863   0.241 -0.5504 -0.2749 -0.8749
19739TIP3   OH280707   1.116   5.627  16.442 -0.3073 -0.2456  0.4430
19739TIP3    H180708   1.132   5.667  16.357 -0.5263 -0.8793  0.0954
19739TIP3    H280709   1.200   5.589  16.468  0.3311  1.8052  1.5292
19740TIP3   OH280710   1.814   3.768  15.506  0.1957  0.0371 -0.0663
19740TIP3    H180711   1.893   3.716  15.520 -0.2814 -0.4534  0.8652
19740TIP3    H280712   1.820   3.796  15.414  0.2687 -1.9971 -0.7173
19741TIP3   OH280713   1.269   0.933  15.337 -0.2185 -0.6229 -0.3225
19741TIP3    H180714   1.282   0.957  15.246  1.0916 -0.5290 -0.1175
19741TIP3    H280715   1.325   0.856  15.350 -0.8690 -1.0093  0.2399
19742TIP3   OH280716   6.331   4.748  13.483 -0.4875  0.0422 -0.1562
19742TIP3    H180717   6.353   4.841  13.491 -2.7213  0.7714 -1.9657
19742TIP3    H280718   6.347   4.712  13.571 -1.4707  2.5574  1.0982
19743TIP3   OH280719   2.010   1.389  13.513 -0.3214 -0.3864 -0.3732
19743TIP3    H180720   2.002   1.479  13.482 -1.2224 -1.2700 -2.9004
19743TIP3    H280721   1.954   1.385  13.590  1.1919  1.6501  0.9126
19744TIP3   OH280722   6.541   4.970  16.239 -0.0847 -0.5634  0.1197
19744TIP3    H180723   6.577   4.937  16.321  1.0782  1.0249  0.2699
19744TIP3    H280724   6.584   4.918  16.171 -0.7974 -1.6482  0.4956
19745TIP3   OH280725   4.880   1.198  15.787  0.0174 -0.3404 -0.6444
19745TIP3    H180726   4.900   1.126  15.847 -2.0716 -0.5634 -0.1793
19745TIP3    H280727   4.792   1.178  15.753  0.5452  0.5716 -2.6181
19746TIP3   OH280728   0.715   2.299   4.135 -0.3451 -0.6403 -0.1309
19746TIP3    H180729   0.621   2.300   4.120 -1.0006  1.1071  3.6979
19746TIP3    H280730   0.733   2.211   4.169 -0.8372 -0.5101  0.4726
19747TIP3   OH280731   3.888   2.675  13.412  0.8532 -0.0307  0.5465
19747TIP3    H180732   3.865   2.765  13.433  0.8696  0.3831 -1.1292
19747TIP3    H280733   3.969   2.659  13.460  0.7642  0.7896  0.9830
19748TIP3   OH280734   0.362   4.404  12.420 -0.4879  0.2853 -0.6335
19748TIP3    H180735   0.408   4.337  12.470  0.3021  0.1760 -1.4955
19748TIP3    H280736   0.427   4.473  12.407 -1.0752  0.8857 -0.3951
19749TIP3   OH280737   0.667   3.784   0.946  0.2834 -0.1964  0.4142
19749TIP3    H180738   0.719   3.842   1.002  0.4084 -0.2384  0.3425
19749TIP3    H280739   0.577   3.815   0.957 -0.0035 -1.6526  2.4059
19750TIP3   OH280740   6.792   2.017  13.622 -0.0013  0.1847 -0.0913
19750TIP3    H180741   6.782   2.096  13.674 -1.7830 -1.1222  1.6481
19750TIP3    H280742   6.861   1.968  13.667 -0.2726 -0.1134  0.0073
19751TIP3   OH280743   1.522   1.688  15.175 -0.5012  0.0959 -0.1371
19751TIP3    H180744   1.606   1.722  15.205 -0.9521 -0.3769  1.6889
19751TIP3    H280745   1.463   1.763  15.179 -0.1220  0.5040 -1.7089
19752TIP3   OH280746   4.288   0.416  17.214 -0.1731  0.6818  0.7294
19752TIP3    H180747   4.366   0.371  17.182 -0.0909  1.2656  0.0940
19752TIP3    H280748   4.216   0.358  17.192 -0.3195  1.9783 -2.3390
19753TIP3   OH280749   4.533   2.691   5.465 -0.3566  0.2064  0.4840
19753TIP3    H180750   4.585   2.760   5.505 -1.0632  0.5676  0.7822
19753TIP3    H280751   4.462   2.737   5.420 -1.9217 -0.4001  2.2618
19754TIP3   OH280752   1.695   2.526  15.551 -0.1899 -0.1842  0.1203
19754TIP3    H180753   1.696   2.619  15.531  0.5624 -0.5047 -1.4724
19754TIP3    H280754   1.687   2.521  15.646  1.8467  1.5200  0.4079
19755TIP3   OH280755   2.100   2.319  11.671  0.5710 -0.2992  0.7137
19755TIP3    H180756   2.010   2.295  11.646  0.4250  0.3833  0.5897
19755TIP3    H280757   2.105   2.413  11.657  1.9895 -0.6545 -1.3921
19756TIP3   OH280758   4.844   4.540  11.536  0.5228 -0.8857 -0.7582
19756TIP3    H180759   4.896   4.488  11.597 -1.7457 -2.8113 -0.3978
19756TIP3    H280760   4.785   4.591  11.591  0.2939 -0.6184 -1.2452
19757TIP3   OH280761   2.169   0.196  15.802  0.2575  0.5784  0.2161
19757TIP3    H180762   2.085   0.231  15.833 -0.1732 -0.5843  0.3930
19757TIP3    H280763   2.153   0.102  15.792  1.4181  0.4185 -0.1651
19758TIP3   OH280764   6.657   5.932   1.487  0.0010 -0.2583  0.4738
19758TIP3    H180765   6.608   5.850   1.482  0.0524 -0.3080  0.7730
19758TIP3    H280766   6.731   5.912   1.545  0.6616 -0.3284 -0.3875
19759TIP3   OH280767   6.664   2.557  11.042 -0.1979 -0.0676  0.0319
19759TIP3    H180768   6.732   2.569  10.977 -0.4904 -0.6348 -0.3792
19759TIP3    H280769   6.593   2.616  11.014 -0.7556 -1.1038 -0.7688
19760TIP3   OH280770   5.316   3.499   5.905  0.4154 -0.2953  0.3112
19760TIP3    H180771   5.299   3.425   5.963 -1.1015 -0.5373 -0.4181
19760TIP3    H280772   5.294   3.466   5.818  0.3512  0.8215 -0.0966
19761TIP3   OH280773   2.394   3.424  12.699  0.3847  0.1327 -0.5072
19761TIP3    H180774   2.372   3.332  12.684 -1.1344  0.6087 -1.2856
19761TIP3    H280775   2.474   3.421  12.751  0.2772 -1.6312 -0.4077
19762TIP3   OH280776   4.918   1.504   4.290  0.0337 -0.6600  0.3563
19762TIP3    H180777   4.969   1.491   4.209 -1.3383 -3.2811 -0.1257
19762TIP3    H280778   4.946   1.590   4.321  1.9991 -0.4118 -1.8940
19763TIP3   OH280779   6.145   2.896   1.742 -0.2323 -0.8017  0.3094
19763TIP3    H180780   6.072   2.835   1.741 -1.1499  0.3027 -0.5354
19763TIP3    H280781   6.105   2.982   1.734  1.1575 -0.1866 -0.1851
19764TIP3   OH280782   2.855   5.361   4.875 -0.0501 -0.5372  0.3014
19764TIP3    H180783   2.921   5.411   4.828  0.2445 -1.4797 -0.3183
19764TIP3    H280784   2.844   5.281   4.823 -0.5359 -1.0974  1.2406
19765TIP3   OH280785   1.664   5.321  11.735 -0.3912  0.4325 -0.1658
19765TIP3    H180786   1.635   5.251  11.676 -1.5815  1.1700 -0.4871
19765TIP3    H280787   1.714   5.276  11.803  2.1137 -0.2743 -2.4345
19766TIP3   OH280788   3.134   4.426   1.510 -0.4358 -0.1291  0.4166
19766TIP3    H180789   3.110   4.340   1.543 -0.6569  0.3131  1.4189
19766TIP3    H280790   3.219   4.445   1.551  1.5783 -1.5767 -2.9072
19767TIP3   OH280791   2.737   2.755  11.577 -0.5198  0.3884  0.3688
19767TIP3    H180792   2.819   2.740  11.530 -1.0010  0.3122 -0.4576
19767TIP3    H280793   2.677   2.788  11.510 -1.4601 -0.5329  0.7434
19768TIP3   OH280794   4.645   6.459  12.189  0.2548 -0.0365 -0.3434
19768TIP3    H180795   4.555   6.454  12.157  0.4937 -0.0099 -1.0380
19768TIP3    H280796   4.637   6.470  12.283 -0.5249  1.8093 -0.5944
19769TIP3   OH280797   0.691   0.435  17.274  0.1684 -0.0805  0.3614
19769TIP3    H180798   0.631   0.441  17.349 -1.2166 -1.2774 -0.6238
19769TIP3    H280799   0.663   0.356  17.227  2.1024 -0.2724 -0.4902
19770TIP3   OH280800   5.205   5.200   1.854  0.4063 -0.5941 -0.1047
19770TIP3    H180801   5.229   5.236   1.769 -0.6450 -0.9837 -0.5707
19770TIP3    H280802   5.122   5.154   1.839 -1.7311  2.4149  1.8753
19771TIP3   OH280803   2.632   2.339   2.107  0.3656  0.4824  0.2980
19771TIP3    H180804   2.607   2.292   2.187  1.8466  1.2418  1.2376
19771TIP3    H280805   2.608   2.430   2.125  1.7079  0.8380  0.3228
19772TIP3   OH280806   1.535   3.703  11.602  0.1677  0.2965 -0.0840
19772TIP3    H180807   1.455   3.669  11.563 -0.6884  0.5812  1.3998
19772TIP3    H280808   1.512   3.791  11.631  0.8425  0.1550  0.8952
19773TIP3   OH280809   3.168   6.074  11.437 -0.1313 -0.2051  0.1134
19773TIP3    H180810   3.129   6.147  11.388 -1.4027 -0.7731  0.2793
19773TIP3    H280811   3.106   6.002  11.426  1.0742 -1.2474  0.0290
19774TIP3   OH280812   5.330   3.060  13.894  0.2663 -0.2714  0.1518
19774TIP3    H180813   5.299   2.971  13.877 -0.6945  0.5865 -3.0033
19774TIP3    H280814   5.425   3.054  13.888  0.1958 -1.0818 -0.2185
19775TIP3   OH280815   3.854   0.826  16.451 -0.2916  0.6045  0.2351
19775TIP3    H180816   3.816   0.894  16.506 -1.2223  2.0420 -2.1108
19775TIP3    H280817   3.779   0.784  16.410  0.4161 -0.0176 -0.4258
19776TIP3   OH280818   3.845   0.612   1.043 -0.0258  0.2733 -0.2119
19776TIP3    H180819   3.789   0.577   1.112  0.3791  0.3640  0.1664
19776TIP3    H280820   3.867   0.700   1.073  0.9831 -0.0597  0.0356
19777TIP3   OH280821   3.021   5.141   2.097 -0.5146 -0.0520  0.1062
19777TIP3    H180822   3.106   5.119   2.059 -0.5233 -0.0150  0.0659
19777TIP3    H280823   2.972   5.059   2.094 -0.4727 -0.0784  0.1495
19778TIP3   OH280824   5.661   6.188  11.937  0.3012  0.5587 -0.5972
19778TIP3    H180825   5.700   6.134  12.006 -1.8137 -1.3378 -0.7975
19778TIP3    H280826   5.729   6.196  11.871  0.6130 -2.1707 -0.6823
19779TIP3   OH280827   4.421   4.293  13.673 -0.5739 -0.1133  0.3357
19779TIP3    H180828   4.417   4.202  13.644  0.5276 -0.1260  0.2289
19779TIP3    H280829   4.439   4.288  13.767  1.7049  0.0194 -0.0760
19780TIP3   OH280830   3.282   1.819  16.327  0.1236  0.2074 -0.3195
19780TIP3    H180831   3.249   1.831  16.238 -0.4940  1.6509  0.0871
19780TIP3    H280832   3.280   1.725  16.341 -1.4490  0.0922 -1.2120
19781TIP3   OH280833   3.046   2.552  11.190  0.0274  0.4678 -0.0472
19781TIP3    H180834   3.008   2.508  11.113 -3.1423  1.6954  0.7523
19781TIP3    H280835   3.055   2.482  11.255  1.1092 -0.2291 -0.9156
19782TIP3   OH280836   5.154   4.236   3.354  0.6298 -0.0657 -0.3262
19782TIP3    H180837   5.222   4.210   3.292  0.3493 -0.6985 -0.3641
19782TIP3    H280838   5.091   4.164   3.354  1.7526 -1.1510  2.3294
19783TIP3   OH280839   3.441   0.067   1.447 -0.1349 -0.3556  0.5781
19783TIP3    H180840   3.488   0.126   1.388 -1.1756  0.6717  0.7358
19783TIP3    H280841   3.467  -0.021   1.420 -0.1864  0.1184 -1.0629
19784TIP3   OH280842   6.805   3.281   5.762  0.1977  0.1409 -0.3302
19784TIP3    H180843   6.728   3.235   5.727  0.4647  0.4350 -1.3294
19784TIP3    H280844   6.779   3.308   5.850 -1.3190  1.3530 -1.1151
19785TIP3   OH280845   5.673   2.020  12.673 -0.0629 -0.0087  0.4576
19785TIP3    H180846   5.596   2.071  12.697  0.9943  1.4043  0.9187
19785TIP3    H280847   5.655   1.991  12.583 -1.2961 -0.0400  0.7021
19786TIP3   OH280848   6.809   4.272   3.676  0.4403 -0.3661  0.0300
19786TIP3    H180849   6.758   4.283   3.595  0.0039  0.0890  0.3629
19786TIP3    H280850   6.892   4.316   3.658 -0.3814  1.4038  0.5006
19787TIP3   OH280851   5.376   4.946  11.243  0.1331 -0.2514 -0.4575
19787TIP3    H180852   5.344   4.959  11.154 -0.1904  3.4150  0.1453
19787TIP3    H280853   5.448   5.009  11.253  1.8334 -2.3388  1.0903
19788TIP3   OH280854   4.427   2.526  16.496 -0.2919 -0.1397 -0.1594
19788TIP3    H180855   4.464   2.605  16.537 -1.1205  0.3068 -0.2580
19788TIP3    H280856   4.484   2.509  16.421 -0.8989  1.1679 -0.9394
19789TIP3   OH280857   1.874   5.330  15.553 -0.2042  0.4364  0.2632
19789TIP3    H180858   1.796   5.299  15.599 -0.8335 -1.5650 -2.0512
19789TIP3    H280859   1.897   5.259  15.494  2.5022  1.6252 -0.2046
19790TIP3   OH280860   6.709   0.047   1.787 -0.0654 -0.5709 -0.2704
19790TIP3    H180861   6.713   0.137   1.755 -0.9360 -0.6119 -0.5282
19790TIP3    H280862   6.783   0.038   1.846  1.4285 -0.4088 -2.0706
19791TIP3   OH280863   2.011   4.619   1.744 -0.8777  0.0768  0.3279
19791TIP3    H180864   1.984   4.573   1.823 -0.7528  0.8827  0.8446
19791TIP3    H280865   2.106   4.613   1.744 -0.9286 -0.8085 -0.3051
19792TIP3   OH280866   3.688   6.471  13.842 -0.2338  0.3087  0.3479
19792TIP3    H180867   3.751   6.407  13.809 -1.2675 -0.8152  0.5347
19792TIP3    H280868   3.730   6.556  13.827  1.6632 -0.4561  1.1836
19793TIP3   OH280869   2.576   3.009  13.595 -0.3380  0.6059  0.7561
19793TIP3    H180870   2.522   3.038  13.522 -0.9365 -0.4163  0.7838
19793TIP3    H280871   2.600   3.089  13.642  0.1556  1.2812 -0.6287
19794TIP3   OH280872   4.518   1.594  15.223 -0.5488  0.1521 -0.0975
19794TIP3    H180873   4.475   1.680  15.227 -1.1029 -0.1978  3.2390
19794TIP3    H280874   4.456   1.534  15.264  0.1275 -1.7551 -1.7735
19795TIP3   OH280875   1.363   5.606  16.152 -0.4598 -0.4663  0.0999
19795TIP3    H180876   1.281   5.567  16.123 -1.0017  0.3144  0.5912
19795TIP3    H280877   1.345   5.699  16.158  0.2628 -0.3727  0.9026
19796TIP3   OH280878   0.799   3.344   0.219 -0.1824  0.1151  0.0417
19796TIP3    H180879   0.800   3.398   0.140 -2.0363 -0.7917 -0.6450
19796TIP3    H280880   0.829   3.402   0.289 -0.6857  1.5819 -0.9350
19797TIP3   OH280881   1.162   2.198  14.530  0.8214 -0.9227  0.0096
19797TIP3    H180882   1.185   2.116  14.574  1.6186 -0.3001  0.7657
19797TIP3    H280883   1.244   2.228  14.491  0.9555  0.4766  1.3280
19798TIP3   OH280884   2.995   1.964  14.147 -0.0089  0.1468 -0.2439
19798TIP3    H180885   3.059   1.961  14.218 -0.2141 -0.2280 -0.0741
19798TIP3    H280886   3.023   2.038  14.093  1.3386 -0.8214 -0.9056
19799TIP3   OH280887   1.212   0.423   4.610  0.8487 -0.1050 -0.3859
19799TIP3    H180888   1.206   0.495   4.673  1.1636 -0.7540  0.4040
19799TIP3    H280889   1.228   0.465   4.526  3.1266  0.6498  0.3825
19800TIP3   OH280890   0.668   5.627  15.973 -0.5992  0.1650  0.2003
19800TIP3    H180891   0.737   5.578  15.928  0.1514  1.0788  0.3126
19800TIP3    H280892   0.665   5.711  15.927 -1.3557  0.2828  0.4611
19801TIP3   OH280893   2.703   3.997  15.584  0.3790 -1.4979 -0.0897
19801TIP3    H180894   2.758   4.048  15.644 -0.5051  0.1551 -0.6490
19801TIP3    H280895   2.657   3.935  15.641  0.8900 -1.1603  0.7069
19802TIP3   OH280896   2.484   0.807   3.303  0.5376  0.3636  0.0272
19802TIP3    H180897   2.574   0.803   3.270  0.7015 -0.2954  0.5432
19802TIP3    H280898   2.464   0.901   3.305  1.8640  0.6391  1.6180
19803TIP3   OH280899   2.766   5.235  16.975 -0.0813  0.5990  0.1635
19803TIP3    H180900   2.799   5.185  16.900 -1.0971 -1.7241  1.2223
19803TIP3    H280901   2.691   5.283  16.941 -0.0065  0.2332 -0.5156
19804TIP3   OH280902   2.679   1.345  14.753  0.3329 -0.4008  0.3693
19804TIP3    H180903   2.672   1.250  14.765  0.6361 -0.1760  2.5104
19804TIP3    H280904   2.764   1.367  14.791 -0.0998  0.8423  0.6149
19805TIP3   OH280905   0.440   4.770  16.737  0.4234 -0.2533 -0.1760
19805TIP3    H180906   0.534   4.772  16.755  0.1736 -0.2018  1.1408
19805TIP3    H280907   0.429   4.827  16.661  1.3593  0.3489  0.1299
19806TIP3   OH280908   1.301   6.723  12.867  0.2096  0.2854  0.2668
19806TIP3    H180909   1.229   6.662  12.878  0.5290  0.0522  1.0925
19806TIP3    H280910   1.269   6.806  12.903  0.3922  0.1532  0.7348
19807TIP3   OH280911   6.272   1.410   1.854 -0.4250  0.2270  0.5637
19807TIP3    H180912   6.317   1.400   1.770  0.1398  0.6109  0.8164
19807TIP3    H280913   6.203   1.345   1.852  0.0527 -0.2724  0.1004
19808TIP3   OH280914   2.061   2.898   5.502 -0.2113  0.0016 -0.4961
19808TIP3    H180915   2.109   2.958   5.445  2.3417 -1.9232 -0.4268
19808TIP3    H280916   2.108   2.815   5.495 -2.1279 -1.2936  1.4569
19809TIP3   OH280917   1.940   5.837  11.981 -0.1022 -0.5177 -0.3974
19809TIP3    H180918   1.859   5.788  11.994 -0.3318  0.2519  1.1149
19809TIP3    H280919   2.000   5.806  12.049 -0.5715  1.9417  1.2127
19810TIP3   OH280920   5.006   4.877  13.805 -0.1826  0.1202  0.4558
19810TIP3    H180921   4.916   4.902  13.784 -0.1029  1.8116  2.0326
19810TIP3    H280922   5.033   4.937  13.874  2.1543 -0.3847  0.0556
19811TIP3   OH280923   3.335   1.241  14.635  0.0008 -0.3519  0.3895
19811TIP3    H180924   3.277   1.188  14.690 -0.7616 -0.0262 -0.0911
19811TIP3    H280925   3.397   1.281  14.696 -3.0169  2.8814  1.5120
19812TIP3   OH280926   2.032   2.745  15.998 -0.3052 -0.1005  0.3450
19812TIP3    H180927   2.100   2.683  16.022  0.9412  0.7007 -1.0034
19812TIP3    H280928   2.061   2.828  16.035  0.1818  0.5352 -1.3881
19813TIP3   OH280929   6.410   6.601  15.550  0.3405 -0.0462  0.1740
19813TIP3    H180930   6.355   6.608  15.628  0.2559 -0.1934  0.1264
19813TIP3    H280931   6.442   6.511  15.551  1.2437  0.2684  0.6546
19814TIP3   OH280932   4.176   5.311  11.232 -0.1785  0.3682 -0.1571
19814TIP3    H180933   4.124   5.310  11.152  1.6680  3.7231 -1.5314
19814TIP3    H280934   4.114   5.331  11.301 -1.8344 -2.7928 -0.6539
19815TIP3   OH280935   5.773   6.778   2.032  0.4934  0.1053 -0.1563
19815TIP3    H180936   5.707   6.730   1.982  1.6555 -2.0247  0.3209
19815TIP3    H280937   5.727   6.808   2.110 -0.2023 -0.3704 -0.3809
19816TIP3   OH280938   6.808   1.972  14.959 -0.2690  0.1556 -0.1216
19816TIP3    H180939   6.793   2.019  14.877 -1.4687  0.3410  0.1922
19816TIP3    H280940   6.856   2.034  15.014 -1.7075  0.9569  0.2347
19817TIP3   OH280941   3.305   2.890   3.568 -0.1830 -0.0509 -0.6378
19817TIP3    H180942   3.314   2.977   3.530  3.0328  0.0026  0.0926
19817TIP3    H280943   3.222   2.893   3.616 -0.1135  2.5947 -0.6380
19818TIP3   OH280944   0.280   4.090  16.987  0.0985  0.1063  1.0082
19818TIP3    H180945   0.301   4.009  17.035 -0.3471 -1.4482 -1.3396
19818TIP3    H280946   0.359   4.109  16.937 -0.7378 -0.4670 -0.5735
19819TIP3   OH280947   1.363   0.044  15.595 -0.8063 -0.0191  0.1099
19819TIP3    H180948   1.376   0.054  15.501 -1.2802 -1.1184 -0.0791
19819TIP3    H280949   1.272   0.066  15.610 -0.4569  1.2110  0.4774
19820TIP3   OH280950   4.724   1.543   4.686  0.4115  0.1059 -0.1302
19820TIP3    H180951   4.779   1.497   4.749  0.8258  0.7818  0.0128
19820TIP3    H280952   4.646   1.569   4.736  0.5279  0.2314 -0.0127
19821TIP3   OH280953   5.621   6.733   4.981  0.5636  0.8521 -0.1951
19821TIP3    H180954   5.680   6.674   5.028 -0.4986  0.5411  0.7619
19821TIP3    H280955   5.533   6.708   5.010  0.0420  2.2711 -0.4898
19822TIP3   OH280956   0.411   2.392   2.861  0.2264  0.0985  0.0474
19822TIP3    H180957   0.440   2.420   2.948 -0.6892  5.5328 -1.2292
19822TIP3    H280958   0.322   2.359   2.875  0.2261  0.5689  1.2052
19823TIP3   OH280959   5.642   1.547  12.413  0.0518  0.0467  0.0902
19823TIP3    H180960   5.637   1.615  12.480  0.4006 -1.2326  1.4442
19823TIP3    H280961   5.699   1.480  12.451 -0.7756 -1.2849 -0.9654
19824TIP3   OH280962   1.205   5.582   3.792  0.4530  0.3125 -0.0679
19824TIP3    H180963   1.204   5.655   3.854 -2.4261  0.0624  0.2418
19824TIP3    H280964   1.280   5.529   3.818  1.1324  1.8694  1.2239
19825TIP3   OH280965   3.988   2.710   1.330 -0.1842  0.3179  0.5250
19825TIP3    H180966   3.947   2.645   1.387 -0.5149  0.5485  0.5480
19825TIP3    H280967   4.073   2.671   1.306  1.0528  1.2807  3.1580
19826TIP3   OH280968   2.423   4.224  17.136  0.2888 -0.3846 -0.0325
19826TIP3    H180969   2.363   4.181  17.075  0.6167 -0.2957 -0.4176
19826TIP3    H280970   2.419   4.171  17.216 -1.2938  0.3549  0.3955
19827TIP3   OH280971   3.278   2.159  16.819  0.2290 -0.3390  0.3553
19827TIP3    H180972   3.352   2.211  16.787 -0.3141 -0.8055 -1.6953
19827TIP3    H280973   3.216   2.158  16.747 -1.1262 -1.2448  1.5046
19828TIP3   OH280974   0.011   6.462   5.221 -1.0281  0.3016 -0.0921
19828TIP3    H180975   0.060   6.535   5.260 -2.4957  0.9939  0.4763
19828TIP3    H280976  -0.011   6.406   5.295 -1.5714  0.2706 -0.2756
19829TIP3   OH280977   1.010   0.858  12.385 -0.2082  0.4269  0.3415
19829TIP3    H180978   1.076   0.827  12.448 -0.5037 -2.8402 -0.8259
19829TIP3    H280979   1.047   0.937  12.347  2.4501 -0.5944  0.7055
19830TIP3   OH280980   1.703   2.526   2.103 -0.2505 -0.6059 -0.1018
19830TIP3    H180981   1.660   2.478   2.173 -1.1769  0.3405  0.0012
19830TIP3    H280982   1.643   2.518   2.028  0.5037 -1.2150 -0.6557
19831TIP3   OH280983   2.120   1.229   3.213  0.7427  0.2803 -0.1322
19831TIP3    H180984   2.139   1.147   3.259 -0.9248  0.9094  1.7587
19831TIP3    H280985   2.041   1.212   3.163  1.0628  0.4018 -0.6931
19832TIP3   OH280986   5.825   0.962  10.899  0.2310  0.0351  0.8261
19832TIP3    H180987   5.887   1.024  10.939  1.0564 -1.3229  1.6789
19832TIP3    H280988   5.869   0.877  10.905 -0.1124 -0.3867 -1.9506
19833TIP3   OH280989   5.118   0.978   4.899  0.0815  0.2019  0.1569
19833TIP3    H180990   5.066   0.898   4.891  2.8154 -1.6091 -0.4469
19833TIP3    H280991   5.158   0.971   4.986 -0.5826  1.4932  0.5673
19834TIP3   OH280992   4.492   1.410   5.230  1.0126 -0.2397  0.4547
19834TIP3    H180993   4.573   1.366   5.254  0.8296 -1.0988 -0.4348
19834TIP3    H280994   4.488   1.487   5.287  1.4762 -1.2285  1.8578
19835TIP3   OH280995   1.106   4.404  17.033 -0.2330  0.0225  0.6570
19835TIP3    H180996   1.049   4.453  17.093 -0.6824  0.3646 -0.0381
19835TIP3    H280997   1.164   4.471  16.996  1.0656 -0.4245  1.8558
19836TIP3   OH280998   6.234   6.243  12.673 -0.2478  0.0558  0.0861
19836TIP3    H180999   6.172   6.199  12.615 -1.3427  1.0207  0.5184
19836TIP3    H281000   6.180   6.287  12.738  0.9368 -0.0572  1.1653
19837TIP3   OH281001   0.094   0.238  15.900 -0.1972  0.0119 -0.1924
19837TIP3    H181002   0.158   0.286  15.953 -0.2910  0.7182 -0.7124
19837TIP3    H281003   0.141   0.159  15.872  0.2447  0.2227 -0.0582
19838TIP3   OH281004   0.479   3.640   4.928  0.4019  0.2407 -0.6847
19838TIP3    H181005   0.395   3.661   4.968  0.9466 -0.3623  0.8239
19838TIP3    H281006   0.457   3.616   4.838 -1.1222 -0.4703 -0.1500
19839TIP3   OH281007   2.271   2.982  16.848 -0.2847 -0.4932 -0.5268
19839TIP3    H181008   2.230   2.917  16.906 -0.2397 -1.0588 -1.1229
19839TIP3    H281009   2.322   3.038  16.907 -3.1000  1.1538  0.4104
19840TIP3   OH281010   3.613   1.247  16.701 -0.2986 -0.3098  0.4646
19840TIP3    H181011   3.529   1.283  16.671  0.3576  0.0800 -0.9474
19840TIP3    H281012   3.597   1.220  16.792 -1.9437 -0.2295  0.2028
19841TIP3   OH281013   0.364   3.651  16.615 -0.5466 -0.2831  0.1047
19841TIP3    H181014   0.400   3.573  16.572 -3.3311 -0.8517 -1.3290
19841TIP3    H281015   0.405   3.652  16.701  1.3423 -1.9927 -0.7244
19842TIP3   OH281016   6.148   2.264   3.399  0.1541 -0.0235 -0.2416
19842TIP3    H181017   6.173   2.350   3.434 -1.4735  0.5553 -0.4450
19842TIP3    H281018   6.061   2.247   3.436 -0.6658 -0.3790 -2.2559
19843TIP3   OH281019   0.177   0.728   1.491 -0.5352  0.2471  0.0111
19843TIP3    H181020   0.193   0.747   1.399 -1.6777  2.0929  0.1912
19843TIP3    H281021   0.232   0.790   1.538 -0.9546  0.1734  0.5939
19844TIP3   OH281022   5.989   6.636   3.384  1.0126 -0.1059 -0.3631
19844TIP3    H181023   5.989   6.611   3.292 -1.7590  1.3137 -0.7897
19844TIP3    H281024   6.014   6.729   3.384  1.3290 -0.1853  0.3373
19845TIP3   OH281025   1.021   2.289   2.994 -0.4465  0.0759  0.1328
19845TIP3    H181026   1.116   2.289   2.994 -0.4170  1.5863 -1.7687
19845TIP3    H281027   0.997   2.199   2.968  0.4512 -0.2005  0.2505
19846TIP3   OH281028   2.330   0.756  16.491  0.4543  0.1579  0.6017
19846TIP3    H181029   2.252   0.709  16.520 -0.2512  1.2195  0.4563
19846TIP3    H281030   2.316   0.846  16.521  1.0121  0.6484 -0.5689
19847TIP3   OH281031   1.923   1.357  15.791  0.2297 -0.2569  0.0521
19847TIP3    H181032   2.002   1.308  15.814 -0.7448 -1.9348 -0.0410
19847TIP3    H281033   1.868   1.352  15.869  0.2334  0.9454  0.1320
19848TIP3   OH281034   0.801   5.996   4.397 -0.8593 -0.1355  0.0888
19848TIP3    H181035   0.814   6.082   4.356  0.8084  0.8097  2.5136
19848TIP3    H281036   0.872   5.942   4.363 -2.3159 -0.7834 -1.9772
19849TIP3   OH281037   4.993   0.244  10.932  0.3299 -0.5089  0.8067
19849TIP3    H181038   5.049   0.182  10.885  0.3886 -1.0450  1.5679
19849TIP3    H281039   4.909   0.239  10.887  1.5216  2.0509 -1.8313
19850TIP3   OH281040   0.407   2.074  14.828  0.4047  0.2232 -0.4945
19850TIP3    H181041   0.329   2.126  14.808  1.4576  1.6740 -0.8811
19850TIP3    H281042   0.408   2.068  14.923 -1.1089 -1.2816 -0.5378
19851TIP3   OH281043   0.594   2.182   3.502  0.1254 -0.6776  0.0778
19851TIP3    H181044   0.618   2.089   3.501  0.7541 -0.5134 -1.1082
19851TIP3    H281045   0.675   2.227   3.527  0.0413 -0.3998 -0.1451
19852TIP3   OH281046   0.560   2.514   0.607 -0.6160  0.6845 -0.2504
19852TIP3    H181047   0.529   2.528   0.696 -0.0591  2.6185 -0.3442
19852TIP3    H281048   0.532   2.425   0.586 -1.6087  0.5598  1.4951
19853TIP3   OH281049   5.467   3.285   5.385  0.1531  0.5913 -0.0793
19853TIP3    H181050   5.540   3.276   5.324  0.2694  1.4103 -0.0544
19853TIP3    H281051   5.390   3.258   5.334  0.4265 -0.0219 -0.1775
19854TIP3   OH281052   3.226   3.884  11.108  0.2413  0.2662  0.4545
19854TIP3    H181053   3.204   3.903  11.199  0.9058  2.0586  0.2529
19854TIP3    H281054   3.183   3.953  11.058 -0.7113 -1.1084 -0.6736
19855TIP3   OH281055   0.637   2.131  12.426  0.5688 -0.1435 -0.2828
19855TIP3    H181056   0.650   2.129  12.520  2.1525  0.6284 -0.4781
19855TIP3    H281057   0.551   2.091  12.413  0.0793  0.2770  1.5291
19856TIP3   OH281058   3.509   0.363  13.601  0.1232 -0.9368 -0.4209
19856TIP3    H181059   3.502   0.301  13.674 -1.6767 -0.2671 -0.0021
19856TIP3    H281060   3.590   0.410  13.618  0.1786 -1.4025  0.6737
19857TIP3   OH281061   5.017   6.006  16.892  0.2702 -0.0753 -0.1217
19857TIP3    H181062   4.957   6.008  16.817 -1.1492  0.3532  1.0164
19857TIP3    H281063   4.985   5.935  16.947  1.7840 -0.9107 -0.2906
19858TIP3   OH281064   6.134   2.143  11.542 -0.0328 -0.4351  0.6113
19858TIP3    H181065   6.072   2.072  11.523  0.1178 -0.4160  0.0392
19858TIP3    H281066   6.094   2.190  11.615  0.4993 -1.8734  1.8482
19859TIP3   OH281067   3.489   0.288   2.949 -0.7341 -0.3165  0.4188
19859TIP3    H181068   3.497   0.250   3.036 -0.1252 -0.4674  0.3004
19859TIP3    H281069   3.577   0.280   2.911 -1.3584 -1.6164 -0.7681
19860TIP3   OH281070   2.835   1.005   5.852 -0.0718  0.1712 -0.5163
19860TIP3    H181071   2.909   1.051   5.891  1.6875 -2.4584 -0.6379
19860TIP3    H281072   2.806   0.944   5.920 -1.4595  0.4538 -0.8467
19861TIP3   OH281073   2.282   0.790  11.419 -0.3637 -0.4203  0.0691
19861TIP3    H181074   2.246   0.796  11.330  0.8600 -0.2434 -0.4364
19861TIP3    H281075   2.244   0.711  11.456  1.0064 -1.8686 -1.5142
19862TIP3   OH281076   6.686   0.049  15.918  0.2274 -0.6670 -0.0787
19862TIP3    H181077   6.629   0.118  15.951 -0.7488 -0.6562 -1.7233
19862TIP3    H281078   6.751   0.094  15.864  0.6000 -0.8656  0.2063
19863TIP3   OH281079   6.075   3.009   4.446 -0.7473 -0.3683 -0.0982
19863TIP3    H181080   6.114   2.927   4.413 -1.3455 -0.6195 -0.1833
19863TIP3    H281081   6.026   2.982   4.523 -0.1937  0.0603  0.4069
19864TIP3   OH281082   2.138   4.792  12.917  0.2718 -0.5422  0.3234
19864TIP3    H181083   2.063   4.844  12.892  1.1973  0.2719 -0.8184
19864TIP3    H281084   2.138   4.793  13.013  0.2516  1.5391  0.3169
19865TIP3   OH281085   6.546   5.453   2.487  0.6205 -0.1916 -0.1672
19865TIP3    H181086   6.453   5.445   2.467  0.8962 -1.2678 -1.0570
19865TIP3    H281087   6.587   5.379   2.443  1.8338 -0.0457  0.6762
19866TIP3   OH281088   2.576   5.773  10.587 -0.0451  0.1406  0.6607
19866TIP3    H181089   2.503   5.782  10.649  1.7313  0.1243  2.8178
19866TIP3    H281090   2.593   5.862  10.556 -2.2789 -0.1105 -1.4655
19867TIP3   OH281091   1.598   5.782   2.313 -0.3016 -0.4089 -0.3358
19867TIP3    H181092   1.555   5.776   2.399  3.0262 -0.5010  1.4057
19867TIP3    H281093   1.542   5.842   2.263 -1.4421  0.9964  2.4743
19868TIP3   OH281094   1.987   2.627   5.234  0.4535 -0.1035 -0.5817
19868TIP3    H181095   2.058   2.691   5.232  0.7381 -0.4359 -2.9986
19868TIP3    H281096   1.923   2.661   5.172 -1.2810 -0.0681  1.2128
19869TIP3   OH281097   5.282   1.251   5.043  0.0040 -0.0205  0.2047
19869TIP3    H181098   5.195   1.291   5.047 -0.8212 -1.7813  0.3297
19869TIP3    H281099   5.342   1.325   5.041 -1.3534  1.2141  2.8843
19870TIP3   OH281100   4.623   4.507  12.893 -0.0826 -0.9625 -0.3209
19870TIP3    H181101   4.569   4.450  12.948 -2.4457  0.6501 -0.8893
19870TIP3    H281102   4.619   4.466  12.806 -1.3521 -0.2431 -0.6129
19871TIP3   OH281103   4.421   5.878  13.300 -0.0353 -0.4533  0.3021
19871TIP3    H181104   4.462   5.899  13.216  0.3707  0.3576  0.7012
19871TIP3    H281105   4.338   5.837  13.276  0.9945 -2.1436 -0.5144
19872TIP3   OH281106   5.805   2.867   3.582 -0.0773  0.7674  0.0032
19872TIP3    H181107   5.819   2.772   3.582  0.7169  0.8713  0.5165
19872TIP3    H281108   5.710   2.878   3.580 -0.2328 -0.0624  1.6166
19873TIP3   OH281109   5.700   5.449   5.649 -0.0790  0.4930 -0.1781
19873TIP3    H181110   5.620   5.499   5.632 -0.4402  0.6720  1.9730
19873TIP3    H281111   5.671   5.357   5.646 -0.1034  0.5128 -0.6364
19874TIP3   OH281112   2.087   4.568   4.768  0.6405  0.4765  0.1294
19874TIP3    H181113   2.065   4.641   4.826 -0.2796  0.9883 -0.8446
19874TIP3    H281114   2.166   4.596   4.723  0.9800  0.3509  0.6354
19875TIP3   OH281115   6.390   3.197   3.574 -0.0803  0.2639  0.4905
19875TIP3    H181116   6.326   3.254   3.531  0.3942 -0.0996 -0.7276
19875TIP3    H281117   6.367   3.200   3.667 -0.4768  1.9000  0.3494
19876TIP3   OH281118   1.705   3.816  16.590  0.0601 -0.1216 -0.2732
19876TIP3    H181119   1.631   3.866  16.555  0.7896 -0.2849 -2.1245
19876TIP3    H281120   1.664   3.742  16.634 -0.9206  0.3964 -0.2732
19877TIP3   OH281121   2.400   5.052   4.761 -0.9861  0.6370 -0.3503
19877TIP3    H181122   2.454   5.127   4.787  0.5555 -0.1873 -1.1355
19877TIP3    H281123   2.317   5.091   4.734 -0.9162  1.9039  1.1735
19878TIP3   OH281124   3.918   5.871   1.150 -0.2535 -0.7654  0.1423
19878TIP3    H181125   3.960   5.943   1.102 -1.2605  0.1067  0.5394
19878TIP3    H281126   3.957   5.792   1.113  0.5230 -0.0347 -0.6443
19879TIP3   OH281127   5.952   1.215  13.998  0.0638 -0.1201 -0.2610
19879TIP3    H181128   5.928   1.145  14.059  0.7180  0.6550  0.9062
19879TIP3    H281129   5.955   1.172  13.913  1.1337 -1.6734  0.5362
19880TIP3   OH281130   0.030   1.403   5.076 -0.0927  0.2506 -0.1109
19880TIP3    H181131   0.110   1.366   5.113 -0.9472 -1.4999  0.0919
19880TIP3    H281132  -0.019   1.436   5.151 -0.2643 -0.1434 -0.0447
19881TIP3   OH281133   2.653   5.897  15.971 -0.4193  0.1608 -0.5078
19881TIP3    H181134   2.593   5.972  15.977  0.0702  0.6177 -1.3153
19881TIP3    H281135   2.636   5.847  16.051 -2.9272 -0.4838 -1.3789
19882TIP3   OH281136   6.617   2.439   2.331 -0.1859 -0.5454 -0.0245
19882TIP3    H181137   6.686   2.494   2.294  0.0324 -0.8098 -0.0120
19882TIP3    H281138   6.544   2.499   2.346 -0.1879 -0.3888 -0.6477
19883TIP3   OH281139   6.537   3.019  16.842  0.0327  0.1959  0.4403
19883TIP3    H181140   6.600   2.963  16.797  0.9300  1.5262  0.0327
19883TIP3    H281141   6.533   2.983  16.931  0.8467 -0.3160  0.2787
19884TIP3   OH281142   3.292   3.353   2.944 -0.3125  0.0889 -0.2779
19884TIP3    H181143   3.312   3.285   2.880 -0.4854  1.1719 -1.5170
19884TIP3    H281144   3.376   3.392   2.965 -0.4636  1.0510 -1.3807
19885TIP3   OH281145   1.023   5.829   5.823  0.1077  0.2056 -0.0947
19885TIP3    H181146   1.046   5.738   5.842  0.2666  0.2622 -0.0146
19885TIP3    H281147   1.108   5.873   5.811 -0.0087 -0.2245 -2.7861
19886TIP3   OH281148   2.094   5.571  17.178 -0.0196 -0.0786 -0.1195
19886TIP3    H181149   2.020   5.621  17.143  1.6900  1.1686 -2.1082
19886TIP3    H281150   2.171   5.610  17.136  1.9056 -0.4414  2.9300
19887TIP3   OH281151   5.646   5.305  12.351 -0.3489  0.4402 -0.1314
19887TIP3    H181152   5.661   5.214  12.378 -2.0458  0.1981  0.0526
19887TIP3    H281153   5.651   5.303  12.256 -0.9043  0.0590 -0.1502
19888TIP3   OH281154   6.507   2.434   4.799  0.8381 -0.6188  0.4487
19888TIP3    H181155   6.508   2.383   4.719 -0.5116 -1.0271  0.6850
19888TIP3    H281156   6.492   2.524   4.770 -0.0930 -0.8271  0.2643
19889TIP3   OH281157   0.075   2.447  14.927 -0.0930  0.4035  0.9809
19889TIP3    H181158   0.159   2.492  14.935  0.0121  0.6352 -1.2225
19889TIP3    H281159   0.040   2.475  14.843 -3.2867  1.7849  2.6613
19890TIP3   OH281160   0.921   4.626   1.091 -0.5455 -0.6774  0.3532
19890TIP3    H181161   0.874   4.550   1.059 -0.4383 -0.9358  0.8006
19890TIP3    H281162   0.859   4.698   1.084 -0.8703 -0.9380  0.5657
19891TIP3   OH281163   4.961   2.860  12.854  0.5996  1.0057 -0.2539
19891TIP3    H181164   4.934   2.858  12.762  0.7992  2.1006 -0.3406
19891TIP3    H281165   5.013   2.940  12.862  0.6561  0.8655  0.7916
19892TIP3   OH281166   4.114   6.529   4.121  0.0076 -0.6072  0.2900
19892TIP3    H181167   4.109   6.522   4.025 -1.4138  2.6530  0.0703
19892TIP3    H281168   4.044   6.473   4.153 -0.6780 -0.3114 -0.6724
19893TIP3   OH281169   3.059   1.827  10.741  0.2890 -0.3263 -0.0998
19893TIP3    H181170   3.099   1.791  10.661 -0.6969 -0.7395 -0.4202
19893TIP3    H281171   3.103   1.910  10.755  0.9983 -0.6080 -0.6573
19894TIP3   OH281172   5.678   5.631  16.873 -0.0971 -0.2481 -0.5914
19894TIP3    H181173   5.673   5.613  16.779 -0.4524  1.6195 -0.9461
19894TIP3    H281174   5.729   5.711  16.879  0.0032 -0.4087  0.8307
19895TIP3   OH281175   0.676   3.418   4.072 -0.3088 -0.0332 -0.2919
19895TIP3    H181176   0.648   3.509   4.079  0.1710 -0.0441  2.1494
19895TIP3    H281177   0.758   3.421   4.022  0.0240  0.9555  0.3055
19896TIP3   OH281178   1.273   1.556   4.317 -0.5414 -0.1727 -0.7731
19896TIP3    H181179   1.266   1.647   4.288  0.3990  0.3263  0.5060
19896TIP3    H281180   1.287   1.506   4.237 -1.8700  0.7079 -1.5708
19897TIP3   OH281181   2.268   2.631  15.726 -0.8779  0.4013  0.4483
19897TIP3    H181182   2.180   2.596  15.714 -0.1192 -1.7365  0.8257
19897TIP3    H281183   2.312   2.564  15.779  0.1576  2.7098  2.5678
19898TIP3   OH281184   0.493   6.011   6.782 -0.2119 -0.3502 -0.3167
19898TIP3    H181185   0.556   6.038   6.715 -0.7677 -1.8518 -1.4659
19898TIP3    H281186   0.411   6.000   6.734 -0.9064 -0.2638  0.8393
19899TIP3   OH281187   2.096   2.031   6.587 -0.4204 -0.1932 -0.2702
19899TIP3    H181188   2.053   1.986   6.660 -2.4519  0.9607 -0.7292
19899TIP3    H281189   2.031   2.094   6.556  0.2653 -0.8982 -3.2952
19900TIP3   OH281190   4.497   6.250  15.591 -0.6938 -0.1332  0.6769
19900TIP3    H181191   4.463   6.180  15.647 -1.6101 -1.0214 -0.9482
19900TIP3    H281192   4.429   6.263  15.525  0.8282  0.1457 -0.8772
19901TIP3   OH281193   3.228   2.072   1.246 -0.4711 -0.1479  0.1093
19901TIP3    H181194   3.185   2.156   1.229  0.8726  1.0762  2.4539
19901TIP3    H281195   3.157   2.015   1.276 -0.8627  1.2302  1.9261
19902TIP3   OH281196   4.637   0.965   5.227  0.6662  0.2087  0.5675
19902TIP3    H181197   4.652   0.958   5.321 -0.4784 -1.8713  0.6130
19902TIP3    H281198   4.721   0.994   5.191  1.1711  0.8130  2.1928
19903TIP3   OH281199   1.626   2.047   0.079  0.1582 -0.4230 -0.3738
19903TIP3    H181200   1.677   2.115   0.123 -0.8910  0.5404 -0.6353
19903TIP3    H281201   1.626   2.074  -0.013 -1.0196 -0.3034 -0.3372
19904TIP3   OH281202   2.141   1.231   4.012 -0.1535 -0.0848 -0.0200
19904TIP3    H181203   2.118   1.309   4.063  0.1672  1.3980 -2.0859
19904TIP3    H281204   2.118   1.158   4.069 -0.1691  1.5097  2.0954
19905TIP3   OH281205   4.032   5.270  15.910  0.0780  0.0933 -0.0260
19905TIP3    H181206   4.119   5.303  15.887  0.3781  0.3091  1.3781
19905TIP3    H281207   3.986   5.264  15.826  2.0123 -1.7230 -0.9856
19906TIP3   OH281208   0.800   6.378   0.699 -0.0832  0.0674  0.0119
19906TIP3    H181209   0.726   6.329   0.736  0.2842 -0.0755  0.5562
19906TIP3    H281210   0.805   6.348   0.608 -0.3444 -0.3361  0.1303
19907TIP3   OH281211   1.322   2.537   1.631 -0.8987  0.0277 -0.4780
19907TIP3    H181212   1.339   2.538   1.537 -0.6227  2.1521 -0.4279
19907TIP3    H281213   1.396   2.583   1.669 -0.3828 -1.8904  0.9359
19908TIP3   OH281214   1.928   1.614  13.045  0.3419 -0.5960 -0.2074
19908TIP3    H181215   2.015   1.582  13.023  1.1711  1.7615 -0.5028
19908TIP3    H281216   1.887   1.542  13.093  3.2430 -0.9868  1.8489
19909TIP3   OH281217   6.026   3.339   1.400 -0.5036 -0.2838  0.1369
19909TIP3    H181218   6.091   3.291   1.452 -0.1608 -0.4245 -0.4075
19909TIP3    H281219   6.027   3.296   1.315 -0.0236  0.8191 -0.4399
19910TIP3   OH281220   3.102   2.392  12.807 -0.5893  0.5142  0.1200
19910TIP3    H181221   3.042   2.405  12.733 -0.7402  0.7070  0.2737
19910TIP3    H281222   3.078   2.461  12.869 -0.5449  0.2765  0.4012
19911TIP3   OH281223   3.365   1.941   0.039  0.2183  0.8411 -0.0456
19911TIP3    H181224   3.422   1.872   0.073 -1.0773  0.3627  1.2414
19911TIP3    H281225   3.337   1.990   0.117 -1.7669  0.5527 -0.5363
19912TIP3   OH281226   2.496   2.792  11.315 -0.2760  0.0180  0.3665
19912TIP3    H181227   2.558   2.863  11.297  0.1659  0.0248  1.8410
19912TIP3    H281228   2.441   2.788  11.236  2.1852 -0.6209 -1.3880
19913TIP3   OH281229   4.942   2.163  15.979  0.2590  0.1837 -0.2949
19913TIP3    H181230   4.931   2.251  16.015 -0.1906 -0.2166  0.5662
19913TIP3    H281231   5.010   2.172  15.913 -0.4157  1.3571 -0.8494
19914TIP3   OH281232   5.700   6.682   2.790 -0.2371 -0.6080 -0.1695
19914TIP3    H181233   5.770   6.716   2.734  1.2911 -3.0064  0.2470
19914TIP3    H281234   5.684   6.752   2.853  2.2707 -0.2807  0.1495
19915TIP3   OH281235   3.587   3.421  12.915  0.3893  0.1051  0.0947
19915TIP3    H181236   3.673   3.396  12.947  0.1330  1.4481  1.9364
19915TIP3    H281237   3.527   3.356  12.952  0.5666 -0.7166 -1.0298
19916TIP3   OH281238   6.766   0.214  11.479 -0.2766 -0.2333 -0.2866
19916TIP3    H181239   6.767   0.170  11.564  1.1853  0.6456  0.1566
19916TIP3    H281240   6.825   0.288  11.489 -0.8949  0.4828 -1.7585
19917TIP3   OH281241   3.080   1.238  10.802  0.7342  0.6053 -0.4670
19917TIP3    H181242   3.152   1.179  10.778  1.1554  0.5427  0.9075
19917TIP3    H281243   3.006   1.180  10.818  0.7685  0.5592 -0.4733
19918TIP3   OH281244   6.500   6.752  14.169 -0.2935 -0.2061  0.0466
19918TIP3    H181245   6.503   6.840  14.131 -0.9759  0.2915  1.1267
19918TIP3    H281246   6.591   6.722  14.166  0.0198  0.7274  0.0950
19919TIP3   OH281247   0.813   1.089   5.652  0.5467  0.8091 -0.2128
19919TIP3    H181248   0.793   1.158   5.714 -1.5331  0.5817 -0.6054
19919TIP3    H281249   0.869   1.131   5.587  0.3382  1.7902  0.2320
19920TIP3   OH281250   4.637   1.148   0.902  0.1358 -0.0136 -0.6175
19920TIP3    H181251   4.650   1.114   0.991 -0.4432 -1.2136 -0.9795
19920TIP3    H281252   4.573   1.089   0.863 -0.0667  0.8687 -1.6394
19921TIP3   OH281253   5.568   0.685  14.266  0.0384  0.1965  0.2182
19921TIP3    H181254   5.523   0.623  14.322  0.3602 -1.8827 -1.7639
19921TIP3    H281255   5.534   0.771  14.293 -0.3443 -0.7815  3.0384
19922TIP3   OH281256   4.858   0.250   0.332 -0.3202  0.3601 -0.1592
19922TIP3    H181257   4.806   0.302   0.393  1.8055  0.7765  1.3250
19922TIP3    H281258   4.830   0.160   0.349  0.3636  0.4528  1.5597
19923TIP3   OH281259   1.439   3.332   3.484 -0.1981 -0.1718  0.1384
19923TIP3    H181260   1.356   3.366   3.451 -0.0173 -0.3206 -0.4776
19923TIP3    H281261   1.422   3.310   3.575 -0.6452  0.4467  0.2084
19924TIP3   OH281262   0.943   6.184   1.977 -0.5134  0.3982 -0.7610
19924TIP3    H181263   0.912   6.167   2.066 -1.3137  1.6855 -0.7741
19924TIP3    H281264   0.868   6.161   1.921 -0.2164  0.1445 -1.0516
19925TIP3   OH281265   5.718   0.603   2.610  0.1386 -0.0607 -0.9689
19925TIP3    H181266   5.773   0.600   2.531  0.4745  0.2689 -0.7466
19925TIP3    H281267   5.694   0.695   2.618  1.2236  0.1329  0.0927
19926TIP3   OH281268   3.928   1.425  14.294  0.3857  0.4411 -0.7161
19926TIP3    H181269   3.931   1.453  14.203 -0.6959 -0.4606 -1.0302
19926TIP3    H281270   3.991   1.482  14.339  0.0692  1.6486 -1.8103
19927TIP3   OH281271   0.483   1.877  14.671  0.7047 -0.6509  0.4613
19927TIP3    H181272   0.463   1.949  14.732 -0.4238 -1.0900  0.6098
19927TIP3    H281273   0.518   1.921  14.593  3.3266 -0.1553  1.8650
19928TIP3   OH281274   5.905   5.386   4.044  0.5544 -0.5387 -0.0723
19928TIP3    H181275   5.842   5.315   4.032  1.2722 -0.8656 -2.0998
19928TIP3    H281276   5.866   5.461   4.000  1.3503 -0.6172 -0.9382
19929TIP3   OH281277   6.072   1.816   1.311 -0.2712  0.3141 -0.2420
19929TIP3    H181278   6.060   1.878   1.239  1.5731 -0.4645 -1.2453
19929TIP3    H281279   5.994   1.760   1.308 -0.1966  0.2690 -1.6653
19930TIP3   OH281280   3.505   5.006  13.533  0.5196  0.1358 -0.2501
19930TIP3    H181281   3.449   5.083  13.527  1.8298  1.0119 -1.9074
19930TIP3    H281282   3.537   5.007  13.623 -1.1067  0.3286  0.3488
19931TIP3   OH281283   3.364   1.537   1.130 -0.1312 -0.3427  0.0920
19931TIP3    H181284   3.356   1.558   1.223 -1.6315 -0.7117  0.0559
19931TIP3    H281285   3.444   1.582   1.102  1.5225 -1.9713  2.0406
19932TIP3   OH281286   1.652   6.487  14.429 -0.2011 -0.2639 -0.1075
19932TIP3    H181287   1.628   6.552  14.495 -0.9185 -1.9029  1.2987
19932TIP3    H281288   1.571   6.472  14.380 -0.3619 -0.9449  0.3496
19933TIP3   OH281289   3.804   1.154   6.031  0.2361 -0.1746  0.0626
19933TIP3    H181290   3.897   1.153   6.053  0.3180 -2.4422 -0.2696
19933TIP3    H281291   3.777   1.063   6.039 -1.7321  0.3188 -0.8188
19934TIP3   OH281292   3.688   2.549   5.748 -0.5148 -0.3613 -0.1499
19934TIP3    H181293   3.693   2.573   5.841 -2.1422  1.2822 -0.4735
19934TIP3    H281294   3.639   2.466   5.748 -0.3441 -0.4646  0.4686
19935TIP3   OH281295   1.249   2.745  17.149 -0.3831 -0.3829  0.1508
19935TIP3    H181296   1.282   2.813  17.090 -0.0095 -0.5320  0.1862
19935TIP3    H281297   1.155   2.762  17.154  0.0207  1.5072  1.9235
19936TIP3   OH281298   3.881   1.281  16.582 -0.3274  0.1990 -0.7472
19936TIP3    H181299   3.889   1.350  16.516  0.8804  0.3234 -0.4898
19936TIP3    H281300   3.788   1.275  16.600 -0.5118  1.2347 -1.3352
19937TIP3   OH281301   4.751   3.966   4.062  0.2968  0.1092  0.1150
19937TIP3    H181302   4.836   4.007   4.078 -0.2945  1.5386 -0.3021
19937TIP3    H281303   4.769   3.899   3.997  1.0189  0.7486 -0.3540
19938TIP3   OH281304   3.679   3.300  11.213 -0.1804 -0.1303  0.2029
19938TIP3    H181305   3.674   3.206  11.201 -1.1992 -0.0447 -0.0176
19938TIP3    H281306   3.605   3.336  11.164 -0.2884  0.7204  0.9642
19939TIP3   OH281307   6.355   1.747  15.553 -0.5098  0.0602  0.1795
19939TIP3    H181308   6.401   1.697  15.620 -0.6109 -0.3461 -0.0529
19939TIP3    H281309   6.425   1.789  15.503 -0.3303 -1.4420 -0.8692
19940TIP3   OH281310   1.877   4.203   2.620  0.5786 -0.0448  0.7975
19940TIP3    H181311   1.883   4.123   2.672  0.4594 -0.1676  0.6234
19940TIP3    H281312   1.786   4.205   2.590  0.4229  0.4780  1.3120
19941TIP3   OH281313   4.936   3.979   5.022  0.0722  0.5672  0.0316
19941TIP3    H181314   5.028   4.007   5.015 -0.3161  1.6137 -1.1044
19941TIP3    H281315   4.923   3.961   5.115  1.0923  1.5743  0.3785
19942TIP3   OH281316   3.117   4.079   4.861 -0.0326  0.2686  0.5185
19942TIP3    H181317   3.187   4.032   4.816 -1.2931  2.7917 -4.4584
19942TIP3    H281318   3.144   4.171   4.857 -2.0545  0.9365  1.5184
19943TIP3   OH281319   3.119   4.345   6.724 -0.4715 -0.0935 -0.0918
19943TIP3    H181320   3.185   4.404   6.761 -0.8742 -0.4479  1.2150
19943TIP3    H281321   3.046   4.403   6.701 -0.8314 -0.0594  1.1071
19944TIP3   OH281322   2.282   2.751  11.510 -0.3522 -0.1610 -0.0319
19944TIP3    H181323   2.242   2.719  11.429 -0.8666  1.5134 -0.4488
19944TIP3    H281324   2.359   2.800  11.481  1.0884 -1.9562  0.6768
19945TIP3   OH281325   1.869   5.991  14.177 -0.0789 -0.4608 -0.2553
19945TIP3    H181326   1.946   5.944  14.207  0.5220  1.2270  0.9216
19945TIP3    H281327   1.828   6.023  14.258 -2.0630 -1.3896 -0.8488
19946TIP3   OH281328   5.324   5.721   4.702  0.1239  0.3310  0.4662
19946TIP3    H181329   5.358   5.810   4.697 -1.8472  1.1308  0.9146
19946TIP3    H281330   5.272   5.711   4.622  1.0572 -0.7379 -0.0227
19947TIP3   OH281331   3.171   5.819   3.003 -0.2221  0.0534  0.4975
19947TIP3    H181332   3.161   5.885   3.072 -1.9314  0.3581 -0.0168
19947TIP3    H281333   3.139   5.738   3.042 -2.9189  0.5963 -0.4792
19948TIP3   OH281334   4.114   2.513  15.431  0.5344 -0.2375 -0.0401
19948TIP3    H181335   4.104   2.437  15.488  1.7653  1.0007  1.9044
19948TIP3    H281336   4.203   2.506  15.397  0.4847  0.0728 -0.2300
19949TIP3   OH281337   3.634   6.583  12.447 -0.0714 -0.0468  0.2483
19949TIP3    H181338   3.653   6.582  12.354 -1.1879 -2.7284  0.0147
19949TIP3    H281339   3.548   6.540  12.455 -0.7984  1.6844  2.3470
19950TIP3   OH281340   2.963   6.786   1.493  0.4593 -0.4578 -0.9139
19950TIP3    H181341   3.020   6.735   1.550 -0.2209 -0.1005  0.0895
19950TIP3    H281342   2.991   6.762   1.404  1.9421 -0.5308 -0.4361
19951TIP3   OH281343   6.437   1.101  16.687 -0.6979  0.2447 -0.0249
19951TIP3    H181344   6.454   1.011  16.659 -0.4757  0.4860 -0.6915
19951TIP3    H281345   6.342   1.108  16.692 -0.6926 -0.3073  0.9844
19952TIP3   OH281346   4.969   4.461   4.060 -0.0838  0.0107  0.5670
19952TIP3    H181347   5.008   4.377   4.084 -0.4410 -0.2634  0.1972
19952TIP3    H281348   4.978   4.465   3.965  1.5184  1.1830  0.7391
19953TIP3   OH281349   5.084   3.766   2.191  0.1593 -0.0253  0.0315
19953TIP3    H181350   5.078   3.671   2.186  0.1443 -0.1142  1.5428
19953TIP3    H281351   5.118   3.793   2.106  1.1508 -1.4556 -0.0323
19954TIP3   OH281352   6.298   1.993  16.198 -0.0141 -0.1344 -0.3765
19954TIP3    H181353   6.345   2.071  16.229  0.1820 -0.6652  0.6858
19954TIP3    H281354   6.366   1.929  16.180 -0.1175  0.2207 -2.0997
19955TIP3   OH281355   3.070   3.093   5.603 -0.2362 -0.3272 -0.3687
19955TIP3    H181356   3.084   3.186   5.587 -0.7613 -0.0081  0.9620
19955TIP3    H281357   3.052   3.056   5.516 -0.3499  0.8629 -0.8578
19956TIP3   OH281358   1.755   2.318   2.948  0.0926  0.8835 -0.4372
19956TIP3    H181359   1.817   2.298   2.878  0.1743 -0.0798 -0.0864
19956TIP3    H281360   1.765   2.412   2.963  0.4090  1.0032 -1.3994
19957TIP3   OH281361   5.312   3.285   2.176 -0.7766 -0.3252  0.2299
19957TIP3    H181362   5.257   3.251   2.247 -1.0122  0.2444  0.3242
19957TIP3    H281363   5.261   3.269   2.097 -0.2206 -1.5824  0.1047
19958TIP3   OH281364   5.665   4.939  16.658  0.1382 -0.2362  0.5313
19958TIP3    H181365   5.748   4.893  16.646  0.9283  0.8828  1.5415
19958TIP3    H281366   5.667   4.968  16.749 -2.7527 -2.8496  1.4958
19959TIP3   OH281367   0.465   2.565  12.240  0.4279  0.5559  0.3158
19959TIP3    H181368   0.371   2.572  12.257  0.5467 -1.6503  2.2386
19959TIP3    H281369   0.495   2.655  12.229 -1.8634  1.2907 -0.0840
19960TIP3   OH281370   6.401   5.114  13.910 -0.5739  0.5718 -0.1605
19960TIP3    H181371   6.333   5.132  13.846 -2.3646  3.2472  2.3406
19960TIP3    H281372   6.371   5.036  13.956 -2.9881  2.7286  2.1057
19961TIP3   OH281373   1.390   4.891   6.415 -0.0605  0.6532 -0.2685
19961TIP3    H181374   1.395   4.912   6.508  0.9129  0.3200 -0.2388
19961TIP3    H281375   1.382   4.976   6.371  0.0413  0.8424  0.0824
19962TIP3   OH281376   1.760   0.067  17.137 -0.0426  0.1312  0.1467
19962TIP3    H181377   1.696   0.009  17.178  0.7441  0.7894  2.3925
19962TIP3    H281378   1.737   0.154  17.170  2.3775  0.2855  1.4975
19963TIP3   OH281379   2.042   6.456   0.470  0.8830  0.0202 -0.5507
19963TIP3    H181380   2.020   6.545   0.445  1.3654  0.1547 -0.4939
19963TIP3    H281381   2.006   6.402   0.400 -0.8825  0.1264  0.2484
19964TIP3   OH281382   2.437   4.991   5.817 -0.1430  0.0033  0.3354
19964TIP3    H181383   2.473   4.939   5.888 -1.3693 -2.1980 -0.6124
19964TIP3    H281384   2.343   4.995   5.836 -0.4479 -0.4480 -1.0473
19965TIP3   OH281385   2.854   3.971  12.984 -0.1991  0.2067 -0.2908
19965TIP3    H181386   2.788   3.923  12.935 -1.7318  1.9223  0.0652
19965TIP3    H281387   2.923   3.906  13.000 -2.1880 -1.8908  0.1389
19966TIP3   OH281388   4.320   2.406  16.720 -0.1817 -0.1309  0.3191
19966TIP3    H181389   4.365   2.433  16.640  2.5009  0.0442  1.8512
19966TIP3    H281390   4.283   2.320  16.699  1.0030 -0.3468 -0.9398
19967TIP3   OH281391   3.909   6.539   1.649  0.6555 -0.6906 -0.0354
19967TIP3    H181392   3.858   6.617   1.669 -1.1073 -1.4397 -1.4276
19967TIP3    H281393   3.938   6.551   1.559  1.6437 -0.9708  0.2376
19968TIP3   OH281394   4.327   5.435   2.976  0.4649  0.3178  0.0361
19968TIP3    H181395   4.421   5.417   2.968  0.6728  1.3502  0.1660
19968TIP3    H281396   4.321   5.507   3.038 -0.4789 -0.3189  0.7080
19969TIP3   OH281397   6.307   1.709   2.647  0.0448  0.0468 -0.5685
19969TIP3    H181398   6.355   1.722   2.564  2.1222 -0.0511  0.5864
19969TIP3    H281399   6.238   1.775   2.645  1.3859  1.4538 -1.4311
19970TIP3   OH281400   4.544   6.474  16.513 -0.2373 -0.2954  0.2372
19970TIP3    H181401   4.620   6.432  16.554 -1.8613 -2.7973  0.8681
19970TIP3    H281402   4.502   6.521  16.585 -0.1714 -0.2927  0.2733
19971TIP3   OH281403   2.117   5.084   5.602 -0.4795 -0.2382 -0.3490
19971TIP3    H181404   2.137   5.031   5.679 -1.6524 -0.5143 -0.2225
19971TIP3    H281405   2.150   5.172   5.623  1.7810 -0.9778 -0.7043
19972TIP3   OH281406   6.397   2.933   4.196  0.4401  0.2795  0.3033
19972TIP3    H181407   6.359   3.010   4.237 -1.5011 -1.1289  1.2254
19972TIP3    H281408   6.340   2.861   4.221  0.9031 -1.1259 -2.3918
19973TIP3   OH281409   0.442   0.419   1.829  0.4741 -0.1576 -0.7643
19973TIP3    H181410   0.378   0.488   1.811  0.1427  0.3201  2.0122
19973TIP3    H281411   0.527   0.461   1.816  0.2628  0.5888  0.2031
19974TIP3   OH281412   2.450   4.407   3.313 -0.0001 -0.5885 -0.2310
19974TIP3    H181413   2.382   4.447   3.367  1.3998  0.1281  1.0251
19974TIP3    H281414   2.487   4.480   3.263 -0.1203 -0.9696 -0.8798
19975TIP3   OH281415   2.375   1.067  12.259  0.1154 -0.3880 -0.0330
19975TIP3    H181416   2.430   1.145  12.265 -0.0035 -0.3107  0.0553
19975TIP3    H281417   2.349   1.048  12.350  1.0221 -1.1610  0.0760
19976TIP3   OH281418   4.825   4.138   2.135  0.7029  0.2658  0.2982
19976TIP3    H181419   4.898   4.106   2.188 -0.2268 -0.9163  0.8727
19976TIP3    H281420   4.791   4.213   2.184  0.8097  0.1171  0.6017
19977TIP3   OH281421   2.370   2.492  11.640  0.3578  0.1839  0.1875
19977TIP3    H181422   2.307   2.470  11.572  0.7089  0.9184 -0.3813
19977TIP3    H281423   2.363   2.587  11.650  2.1461  0.4389 -0.6861
19978TIP3   OH281424   4.599   0.840  14.086  0.6968 -0.0519  0.2695
19978TIP3    H181425   4.534   0.791  14.036 -0.4832  2.4935 -0.8028
19978TIP3    H281426   4.576   0.826  14.177 -3.1500  3.0634 -0.1351
19979TIP3   OH281427   2.741   5.113  15.132 -0.1518 -0.0957  0.8446
19979TIP3    H181428   2.676   5.062  15.083  0.1311 -0.3152  0.6934
19979TIP3    H281429   2.704   5.201  15.135  1.4684  0.8193 -2.9246
19980TIP3   OH281430   3.911   3.390   0.950 -0.2033  0.1450  0.1321
19980TIP3    H181431   3.949   3.338   1.021 -0.0393 -1.4389 -1.0824
19980TIP3    H281432   3.971   3.464   0.940  0.4504 -0.2789  0.8133
19981TIP3   OH281433   4.277   1.982  15.016 -0.1468  0.0122  0.7853
19981TIP3    H181434   4.282   2.025  14.930 -0.6054 -1.2979  0.0752
19981TIP3    H281435   4.187   1.995  15.044 -0.4448 -0.9741  0.2984
19982TIP3   OH281436   0.989   5.611   1.542  0.4429 -0.1190 -0.5593
19982TIP3    H181437   1.046   5.688   1.546  0.1775  0.0352  0.4289
19982TIP3    H281438   1.044   5.543   1.504  2.0044 -0.5791  2.3807
19983TIP3   OH281439   1.185   1.283  16.756  0.6922 -0.3893  0.9664
19983TIP3    H181440   1.202   1.328  16.839  2.0191  0.1289  0.4439
19983TIP3    H281441   1.230   1.337  16.691 -0.0444 -0.9803 -0.0381
19984TIP3   OH281442   4.171   6.785   4.312  0.1364  0.8489  0.1440
19984TIP3    H181443   4.222   6.724   4.259  1.1967  2.4646 -0.7453
19984TIP3    H281444   4.094   6.805   4.259 -0.3874  0.0042  0.5898
19985TIP3   OH281445   2.065   5.524   1.379 -0.3795  0.2410 -0.4235
19985TIP3    H181446   2.119   5.553   1.453  0.9609 -1.6030 -0.6257
19985TIP3    H281447   2.099   5.572   1.304 -2.7754  3.3070  0.3543
19986TIP3   OH281448   2.772   2.125   1.798  0.4199 -0.3312 -0.6611
19986TIP3    H181449   2.682   2.156   1.794  1.3657  2.6740  0.0467
19986TIP3    H281450   2.789   2.111   1.891  0.6523 -0.9220 -0.7949
19987TIP3   OH281451   3.369   6.023  14.220 -0.7599 -0.1012 -0.5218
19987TIP3    H181452   3.434   5.964  14.182 -1.2750 -0.0808 -1.4570
19987TIP3    H281453   3.317   6.052  14.145 -1.2586  0.6078  0.0955
19988TIP3   OH281454   0.672   6.427  16.763 -0.3189  0.0475 -0.5854
19988TIP3    H181455   0.688   6.393  16.675 -0.8436 -2.1418  0.1179
19988TIP3    H281456   0.732   6.501  16.772  0.1556 -0.0697 -2.5548
19989TIP3   OH281457   6.048   5.116   1.934  0.0085 -0.1517 -0.4028
19989TIP3    H181458   6.094   5.068   2.004 -2.0676 -0.4222  0.8311
19989TIP3    H281459   6.097   5.095   1.855  2.8263  0.6795  1.0330
19990TIP3   OH281460   6.576   1.240  15.763  0.5428  0.4547 -0.0428
19990TIP3    H181461   6.591   1.322  15.716  0.9682  1.0735  1.1458
19990TIP3    H281462   6.518   1.265  15.835  1.4026 -0.0992  0.8570
19991TIP3   OH281463   5.876   0.545   2.383 -0.2287  0.3658 -0.7029
19991TIP3    H181464   5.964   0.509   2.376  0.4363  2.0535 -1.2552
19991TIP3    H281465   5.881   0.631   2.340 -1.6784  1.2635  0.8490
19992TIP3   OH281466   0.481   0.253  14.235  0.0973  0.8539 -0.5211
19992TIP3    H181467   0.508   0.183  14.294  0.6449  0.9450 -0.6614
19992TIP3    H281468   0.495   0.333  14.286  1.4975  0.9981 -1.1130
19993TIP3   OH281469   3.967   0.375   1.448 -0.0643 -0.4471  0.6603
19993TIP3    H181470   3.948   0.469   1.441  0.3072 -0.4850 -1.4295
19993TIP3    H281471   3.897   0.333   1.398  1.2191 -1.0838 -0.6518
19994TIP3   OH281472   1.943   3.480   3.482  0.2100 -0.1490 -0.2193
19994TIP3    H181473   1.901   3.540   3.545  1.1715  0.9866 -0.6383
19994TIP3    H281474   1.992   3.418   3.537 -0.6703 -0.4672  0.2147
19995TIP3   OH281475   2.700   1.221   2.087 -0.2199  0.0662  0.1074
19995TIP3    H181476   2.605   1.222   2.073  0.0136 -2.3358 -1.9004
19995TIP3    H281477   2.735   1.271   2.013  0.2850 -2.3453 -1.3214
19996TIP3   OH281478   2.729   0.747   5.422 -0.4482 -0.9289  0.3940
19996TIP3    H181479   2.803   0.803   5.399 -0.4819 -1.7124 -1.7047
19996TIP3    H281480   2.666   0.806   5.463  0.6368  0.0597  0.6692
19997TIP3   OH281481   2.492   6.254  16.756  0.3458 -0.3395 -0.1696
19997TIP3    H181482   2.533   6.341  16.752  0.2259 -0.3378 -1.8041
19997TIP3    H281483   2.418   6.265  16.816  1.1745  0.3229  0.7413
19998TIP3   OH281484   5.153   0.165  16.098 -0.0331  0.3772  0.0452
19998TIP3    H181485   5.216   0.237  16.098  1.5275 -0.9772 -0.5639
19998TIP3    H281486   5.068   0.209  16.109  0.7610  2.4367 -1.5250
19999TIP3   OH281487   2.255   4.575   5.182 -0.2473  0.0022 -0.5571
19999TIP3    H181488   2.246   4.565   5.087 -0.0544  0.1056 -0.5857
19999TIP3    H281489   2.337   4.624   5.193  0.9108 -1.9476 -0.2578
20000TIP3   OH281490   4.296   5.593  12.243 -0.2353 -0.1441 -0.2277
20000TIP3    H181491   4.253   5.672  12.208  1.1339  0.2072 -1.1446
20000TIP3    H281492   4.251   5.521  12.199 -1.7107  0.0925  0.8524
20001TIP3   OH281493   2.408   0.889  13.689 -0.0051  0.1650  0.2029
20001TIP3    H181494   2.467   0.962  13.666 -1.0457  0.7565 -0.6407
20001TIP3    H281495   2.329   0.932  13.722 -1.7933 -0.4197 -3.0339
20002TIP3   OH281496   0.912   1.717  14.081  0.0194 -0.5772 -0.3042
20002TIP3    H181497   0.951   1.692  14.165 -0.6889  1.6783  0.7305
20002TIP3    H281498   0.985   1.713  14.019  0.4152 -2.8610  0.2838
20003TIP3   OH281499   3.919   0.947  15.551 -0.3072 -0.2227 -0.2433
20003TIP3    H181500   3.937   1.000  15.474  1.4549 -0.4044  0.0122
20003TIP3    H281501   3.852   0.884  15.523  1.0011 -0.9146 -1.9136
20004TIP3   OH281502   3.826   6.065  14.930 -0.2231 -0.0769 -0.1202
20004TIP3    H181503   3.904   6.059  14.986  0.8754  0.7351 -1.5432
20004TIP3    H281504   3.789   6.151  14.951 -0.6437 -0.3869  0.4236
20005TIP3   OH281505   0.073   2.433   3.345  0.2653 -0.5291  0.2506
20005TIP3    H181506   0.162   2.467   3.341  0.1373 -0.2411 -0.1349
20005TIP3    H281507   0.044   2.429   3.254 -0.4672  0.3277  0.4389
20006TIP3   OH281508   0.983   1.722   0.087  0.2094  0.5284  0.3166
20006TIP3    H181509   0.915   1.675   0.038  1.0780  0.5150 -0.9092
20006TIP3    H281510   0.992   1.672   0.168 -1.8339  1.0169  0.8831
20007TIP3   OH281511   1.328   4.216  11.459  0.7348  0.1931 -0.5024
20007TIP3    H181512   1.337   4.198  11.553  3.1056 -0.0219 -0.7518
20007TIP3    H281513   1.248   4.268  11.453  0.7938  0.6109  1.6915
20008TIP3   OH281514   4.426   0.772   1.994 -0.0636 -0.3338  0.1916
20008TIP3    H181515   4.419   0.840   2.061 -0.7888 -2.4106  2.2789
20008TIP3    H281516   4.336   0.740   1.983  0.3394 -1.2638 -0.4313
20009TIP3   OH281517   4.808   3.031  13.728  0.1768  0.2625  0.6028
20009TIP3    H181518   4.765   3.091  13.667  0.4279 -1.2874 -1.1195
20009TIP3    H281519   4.901   3.036  13.704  0.3308 -0.0802  1.1196
20010TIP3   OH281520   2.740   0.809   3.205  0.6127  0.1531  0.1043
20010TIP3    H181521   2.802   0.833   3.274  0.3641 -1.9873  1.1061
20010TIP3    H281522   2.792   0.757   3.144  0.5196  0.9368 -0.6435
20011TIP3   OH281523   4.416   0.905   5.033  0.4331 -0.5346 -0.0576
20011TIP3    H181524   4.470   0.882   4.958 -0.9070 -1.1677 -0.8463
20011TIP3    H281525   4.478   0.915   5.105  1.6307 -0.8889 -1.0303
20012TIP3   OH281526   1.110   0.394   6.615  0.8049 -0.4225 -0.0581
20012TIP3    H181527   1.055   0.459   6.659 -0.1867 -1.0383 -0.3695
20012TIP3    H281528   1.168   0.445   6.558 -2.3718  0.0689 -3.0345
20013TIP3   OH281529   5.552   2.489  13.697 -0.2487 -0.2075 -0.2624
20013TIP3    H181530   5.517   2.419  13.752  0.7639  0.2242  0.9456
20013TIP3    H281531   5.643   2.465  13.682 -0.2747  0.1458 -0.9919
20014TIP3   OH281532   5.467   2.790  12.733  0.2563 -0.4418  0.3911
20014TIP3    H181533   5.427   2.704  12.720  0.8724 -0.7337  0.4106
20014TIP3    H281534   5.394   2.852  12.726  0.1871 -0.7682 -2.1645
20015TIP3   OH281535   3.110   2.063   5.146 -0.0899  0.2605 -0.2055
20015TIP3    H181536   3.134   2.154   5.125  0.5176  0.0707 -0.3522
20015TIP3    H281537   3.190   2.013   5.129 -0.8558 -0.5227 -1.5029
20016TIP3   OH281538   5.827   4.339  12.136  0.1054  0.2235 -0.4098
20016TIP3    H181539   5.873   4.264  12.172 -0.9819 -1.3135 -2.1282
20016TIP3    H281540   5.895   4.390  12.091  0.8804  0.4141  0.9424
20017TIP3   OH281541   0.347   3.889   1.902 -0.5099  0.1818 -0.5265
20017TIP3    H181542   0.301   3.815   1.862 -0.2875  0.7825 -1.9143
20017TIP3    H281543   0.278   3.949   1.928 -0.5395  0.8994 -2.2403
20018TIP3   OH281544   6.391   3.702   1.201  0.5006 -0.2027  0.1679
20018TIP3    H181545   6.300   3.673   1.212  0.1251  1.4734  1.6619
20018TIP3    H281546   6.386   3.773   1.138  1.1102 -1.7310 -1.6338
20019TIP3   OH281547   2.560   5.348   4.389  0.9195 -0.6974 -0.1553
20019TIP3    H181548   2.571   5.268   4.440 -1.0984 -0.8504  0.0810
20019TIP3    H281549   2.538   5.415   4.453  1.3104 -0.2425 -0.4922
20020TIP3   OH281550   3.692   2.209  15.960 -0.1954 -0.1959  0.0974
20020TIP3    H181551   3.611   2.168  15.989 -0.6309  0.6314  0.0543
20020TIP3    H281552   3.678   2.228  15.868  0.2790 -0.5983 -0.0619
20021TIP3   OH281553   2.548   1.963   6.019 -0.9754 -0.1009 -0.2663
20021TIP3    H181554   2.608   2.013   5.964  1.4166 -2.9984 -0.4501
20021TIP3    H281555   2.551   2.008   6.104  2.0812 -0.5375 -0.0642
20022TIP3   OH281556   5.600   4.938  11.709 -0.3980 -0.0749  0.0281
20022TIP3    H181557   5.506   4.951  11.724 -0.2064 -0.4399  1.6708
20022TIP3    H281558   5.609   4.843  11.698 -0.3834  0.0859 -1.3573
20023TIP3   OH281559   5.815   2.690   0.739  0.0404  0.1750 -0.2878
20023TIP3    H181560   5.806   2.666   0.831 -1.5979 -0.8913 -0.6840
20023TIP3    H281561   5.843   2.609   0.696  0.3195  0.5384 -0.7987
20024TIP3   OH281562   5.040   5.225  12.167 -0.0326 -0.5769  0.9259
20024TIP3    H181563   4.966   5.212  12.107 -0.0798  0.7911  0.6750
20024TIP3    H281564   5.059   5.137  12.200 -1.0708 -1.1062  0.1655
20025TIP3   OH281565   6.106   2.898   4.960  0.0053  0.0179  0.3328
20025TIP3    H181566   6.080   2.825   4.904 -1.4971 -0.7473  1.9927
20025TIP3    H281567   6.202   2.898   4.957 -0.0291 -0.9974 -0.9631
20026TIP3   OH281568   0.197   1.392   1.033 -0.2016 -0.3432 -0.3089
20026TIP3    H181569   0.151   1.406   1.116 -0.3378 -0.2643 -0.3961
20026TIP3    H281570   0.180   1.472   0.983 -1.3007 -0.9715 -0.9617
20027TIP3   OH281571   6.312   0.597  12.934 -0.4954  0.0028  0.0970
20027TIP3    H181572   6.232   0.650  12.937 -0.8158 -0.4502 -0.2938
20027TIP3    H281573   6.294   0.522  12.990 -1.4864 -1.6353 -2.3279
20028TIP3   OH281574   4.642   6.304   4.227  0.5366 -0.1694 -0.1434
20028TIP3    H181575   4.579   6.367   4.263 -1.3926 -0.0246 -3.5649
20028TIP3    H281576   4.683   6.264   4.304  0.2126  3.6381  2.1497
20029TIP3   OH281577   3.188   3.709   3.750 -0.7835  0.2600  0.3192
20029TIP3    H181578   3.181   3.733   3.843 -0.8541  0.4097  0.2756
20029TIP3    H281579   3.199   3.614   3.751  0.9332  0.4353  0.5654
20030TIP3   OH281580   6.180   2.800   3.566 -0.0936 -0.4515  0.2279
20030TIP3    H181581   6.258   2.835   3.609 -0.9910  0.3812  1.1762
20030TIP3    H281582   6.147   2.734   3.627  0.4482 -1.5624 -0.6513
20031TIP3   OH281583   2.804   4.302   4.534  0.2175 -0.0619 -0.9442
20031TIP3    H181584   2.752   4.314   4.455 -1.1813 -0.7252 -0.1299
20031TIP3    H281585   2.834   4.391   4.556 -0.4387  0.3053 -1.4979
20032TIP3   OH281586   5.620   6.318  16.608 -0.3257  0.0819 -0.7081
20032TIP3    H181587   5.618   6.282  16.696  1.7298  0.0928 -0.6414
20032TIP3    H281588   5.624   6.413  16.620  0.3485  0.0692 -0.7930
20033TIP3   OH281589   3.938   6.210  16.858  0.2339 -0.5096 -0.4191
20033TIP3    H181590   3.976   6.293  16.829  3.6265 -1.4025  1.2402
20033TIP3    H281591   3.886   6.181  16.783  0.3198  2.2811 -1.6397
20034TIP3   OH281592   5.132   3.538  12.976  0.1869 -0.1267 -0.0291
20034TIP3    H181593   5.105   3.582  13.057  1.5756  1.8992 -0.6548
20034TIP3    H281594   5.144   3.446  13.002 -0.2710  0.3215  1.8504
20035TIP3   OH281595   3.852   4.988  14.946 -0.5694  0.4940 -0.6418
20035TIP3    H181596   3.847   5.015  15.038  1.1888 -0.2562 -0.2951
20035TIP3    H281597   3.934   4.938  14.940 -0.4769  0.8245 -2.6833
20036TIP3   OH281598   1.288   3.532  17.231  0.6816  0.3991 -0.1475
20036TIP3    H181599   1.255   3.502  17.147  0.0047  0.9537 -0.0902
20036TIP3    H281600   1.331   3.615  17.212  0.3026  0.6547  0.0856
20037TIP3   OH281601   1.735   0.028   4.402  0.6761  0.0819 -0.0788
20037TIP3    H181602   1.788   0.095   4.359  0.0143  0.8483  0.2869
20037TIP3    H281603   1.691   0.074   4.473 -0.9515 -0.4046 -0.7545
20038TIP3   OH281604   0.920   3.681  11.134  0.1065  0.0679  0.2470
20038TIP3    H181605   0.975   3.689  11.056  0.0726  0.4012  0.2542
20038TIP3    H281606   0.939   3.760  11.184  0.2654 -0.2384  0.6662
20039TIP3   OH281607   5.036   3.761  14.145 -0.1009  0.0946  0.5500
20039TIP3    H181608   5.109   3.795  14.195 -1.2731  0.3952  2.0952
20039TIP3    H281609   5.076   3.710  14.074  1.6020  2.0262  0.0885
20040TIP3   OH281610   6.444   4.685  15.477  0.2011 -0.4466 -0.2888
20040TIP3    H181611   6.485   4.771  15.469 -0.8395  0.1195  0.3083
20040TIP3    H281612   6.394   4.690  15.558 -1.3436 -0.9910 -1.1865
20041TIP3   OH281613   3.825   4.140  14.519 -0.4004 -0.2098  0.3312
20041TIP3    H181614   3.804   4.184  14.602  1.0850  0.4937  0.3458
20041TIP3    H281615   3.784   4.054  14.527  0.4826 -0.4871  2.1740
20042TIP3   OH281616   0.519   0.182   1.933 -0.4558  0.8370 -0.0872
20042TIP3    H181617   0.526   0.276   1.915  0.7062  0.9327  0.8288
20042TIP3    H281618   0.425   0.165   1.937 -0.6715  1.9457 -0.3221
20043TIP3   OH281619   4.818   6.436  12.758 -0.0179 -0.0480  0.2172
20043TIP3    H181620   4.747   6.495  12.784 -0.9149 -1.4371  0.9421
20043TIP3    H281621   4.828   6.377  12.833  1.7773  0.0128  0.0440
20044TIP3   OH281622   5.647   4.304  15.947  0.3582  0.4464 -0.1668
20044TIP3    H181623   5.713   4.374  15.952  0.4069  0.3687  0.3970
20044TIP3    H281624   5.668   4.256  15.867 -0.0762  1.4766 -0.9078
20045TIP3   OH281625   3.172   5.374  10.669  0.0996 -0.0123 -0.0627
20045TIP3    H181626   3.248   5.339  10.716 -0.0622 -1.9430 -1.1806
20045TIP3    H281627   3.206   5.403  10.585 -0.0996  0.7903  0.1298
20046TIP3   OH281628   4.589   5.169   3.121 -0.2093 -0.4090 -0.6076
20046TIP3    H181629   4.645   5.244   3.139 -0.8400  0.0382 -0.4551
20046TIP3    H281630   4.520   5.174   3.189  0.6744 -2.0874  0.4542
20047TIP3   OH281631   6.404   5.108  16.715  0.1348 -0.4768 -0.5155
20047TIP3    H181632   6.371   5.154  16.638  1.2007  2.7577  0.8982
20047TIP3    H281633   6.492   5.079  16.690 -0.6659 -2.0856 -1.5274
20048TIP3   OH281634   6.060   4.099  11.003 -0.2136  0.1976 -0.4149
20048TIP3    H181635   6.042   4.054  10.921 -1.6387 -1.8550  0.9688
20048TIP3    H281636   6.062   4.029  11.069 -1.5202  2.0370  1.6770
20049TIP3   OH281637   5.087   6.405  14.533 -0.4861 -0.2764  0.6047
20049TIP3    H181638   5.017   6.355  14.491 -0.7831  0.6980 -0.0776
20049TIP3    H281639   5.060   6.496  14.525  1.0766  0.1488 -0.0890
20050TIP3   OH281640   4.482   3.399   1.313  0.1747  0.4930 -0.0057
20050TIP3    H181641   4.558   3.443   1.276  1.2054 -0.6899  0.6886
20050TIP3    H281642   4.515   3.316   1.347 -1.4848 -0.2059 -0.0119
20051TIP3   OH281643   5.580   4.941  13.571 -0.4467  0.3388  0.1962
20051TIP3    H181644   5.594   4.907  13.483  0.9285 -1.4303  1.0526
20051TIP3    H281645   5.486   4.937  13.584 -0.4651 -1.5244 -0.3899
20052TIP3   OH281646   4.446   5.347  17.158  0.5029  0.2495 -0.0129
20052TIP3    H181647   4.417   5.283  17.093  0.7710  0.9870 -0.8637
20052TIP3    H281648   4.412   5.430  17.126  0.0203  0.5159  1.1738
20053TIP3   OH281649   0.678   1.241  11.313  0.0625  0.3394 -0.2299
20053TIP3    H181650   0.734   1.316  11.293  1.1581 -0.4285 -0.0377
20053TIP3    H281651   0.701   1.176  11.247 -1.8333  0.6237 -1.2336
20054TIP3   OH281652   5.428   0.695   4.447  0.1750 -0.2819 -0.4346
20054TIP3    H181653   5.387   0.669   4.530  0.6460 -1.6106 -0.6059
20054TIP3    H281654   5.518   0.662   4.454  1.3993  3.0614  0.1535
20055TIP3   OH281655   6.792   5.998   0.236  0.0273  0.2255  0.6854
20055TIP3    H181656   6.705   5.989   0.276  0.3279 -1.0721  1.0905
20055TIP3    H281657   6.841   6.055   0.295 -0.6612  1.2650  0.2635
20056TIP3   OH281658   0.223   5.615  17.171 -0.7103 -0.0953 -0.0401
20056TIP3    H181659   0.156   5.549  17.188 -0.1605 -0.8786 -0.9009
20056TIP3    H281660   0.248   5.646  17.258 -1.4614 -0.5163  0.3375
20057TIP3   OH281661   1.996   0.150   0.041 -0.2527  0.5862 -0.0567
20057TIP3    H181662   1.969   0.134  -0.049 -1.1306  1.2617  0.0850
20057TIP3    H281663   2.057   0.079   0.061  0.2032  0.6234 -1.2901
20058TIP3   OH281664   2.575   0.985   0.767  1.0191  0.0597 -0.1995
20058TIP3    H181665   2.626   0.930   0.708  5.2345  1.2290  2.1160
20058TIP3    H281666   2.518   0.924   0.814  1.7656 -1.5796 -1.3880
20059TIP3   OH281667   2.613   2.221   0.184  0.5419  0.1088 -0.1009
20059TIP3    H181668   2.524   2.220   0.150  0.7579  0.8381 -0.7041
20059TIP3    H281669   2.660   2.282   0.127  1.1194  0.6952  0.9682
20060TIP3   OH281670   3.935   4.710   6.400  0.1446  0.6617  0.4807
20060TIP3    H181671   3.924   4.804   6.415 -1.2688  0.5248  0.3426
20060TIP3    H281672   3.869   4.688   6.335  1.3520 -0.1822 -0.4671
20061TIP3   OH281673   5.081   2.574   5.230 -0.0617 -0.4509 -0.2497
20061TIP3    H181674   5.153   2.560   5.168 -0.3855 -1.5923 -0.3770
20061TIP3    H281675   5.015   2.510   5.205 -1.4907  1.1464 -0.6617
20062TIP3   OH281676   4.722   6.267  16.006  0.0957 -0.4952 -0.0414
20062TIP3    H181677   4.815   6.283  15.989 -0.1679  1.7270  0.5155
20062TIP3    H281678   4.677   6.338  15.961 -1.1648  0.0245  1.9997
20063TIP3   OH281679   2.998   3.873  15.902 -0.1437 -0.1777 -0.3820
20063TIP3    H181680   3.050   3.879  15.822  1.0013  0.1304  0.3665
20063TIP3    H281681   2.925   3.933  15.888  1.6420  2.1660 -0.0353
20064TIP3   OH281682   0.964   4.724  13.786 -0.1224 -0.0166 -0.1546
20064TIP3    H181683   0.929   4.784  13.720  0.5631  0.7276  0.1633
20064TIP3    H281684   0.963   4.639  13.742 -1.3053  0.1702 -0.5260
20065TIP3   OH281685   5.202   1.889   0.698 -0.5047  0.4984  0.0916
20065TIP3    H181686   5.220   1.807   0.653 -1.8532 -1.0286  2.2965
20065TIP3    H281687   5.197   1.954   0.628 -0.5743 -1.4760 -1.7751
20066TIP3   OH281688   3.663   6.365   1.644 -0.8511 -0.1863 -0.3742
20066TIP3    H181689   3.612   6.385   1.723  0.1546 -3.4357  1.2216
20066TIP3    H281690   3.751   6.395   1.665 -0.4160 -1.7366  0.0869
20067TIP3   OH281691   1.905   1.595   3.479 -0.4310  0.4842  0.6346
20067TIP3    H181692   1.911   1.502   3.457 -2.0840  0.4820  0.1572
20067TIP3    H281693   1.971   1.608   3.547 -0.0339 -0.9837  0.5427
20068TIP3   OH281694   3.313   0.672  15.373 -0.3362 -0.1803  0.2841
20068TIP3    H181695   3.305   0.726  15.451 -2.6243 -1.4363  0.9576
20068TIP3    H281696   3.331   0.584  15.406 -1.4058 -0.7411 -0.5947
20069TIP3   OH281697   6.349   6.153   1.366 -0.2616 -0.8828  0.1827
20069TIP3    H181698   6.302   6.230   1.336  0.2613 -0.1831  1.1394
20069TIP3    H281699   6.441   6.170   1.344 -0.3087 -1.8103 -0.7868
20070TIP3   OH281700   4.113   5.840   3.065 -0.1841 -0.4298  0.8011
20070TIP3    H181701   4.081   5.753   3.090  1.8058 -0.8692  1.9430
20070TIP3    H281702   4.143   5.879   3.146  1.2444  0.3293 -0.0650
20071TIP3   OH281703   3.593   0.692  15.951  0.4616 -0.2699 -0.1113
20071TIP3    H181704   3.594   0.627  15.881  1.8625 -0.0209 -0.3260
20071TIP3    H281705   3.603   0.776  15.907 -3.9159  0.3936 -0.0917
20072TIP3   OH281706   5.386   2.338  12.178 -0.1845  0.1967 -0.2311
20072TIP3    H181707   5.412   2.250  12.149  1.4807  0.4443  0.4479
20072TIP3    H281708   5.347   2.325  12.264 -1.5444 -0.0708 -0.8720
20073TIP3   OH281709   2.101   3.685   0.820  0.4873 -0.0211 -0.4082
20073TIP3    H181710   2.134   3.774   0.821 -2.1476  1.0063  2.8931
20073TIP3    H281711   2.124   3.649   0.905 -0.2266 -1.8458 -0.9563
20074TIP3   OH281712   4.507   5.176   4.697  0.0734 -0.5163 -0.1075
20074TIP3    H181713   4.549   5.158   4.612  0.4400 -2.2427  0.4105
20074TIP3    H281714   4.557   5.249   4.733  0.7621 -0.6325 -0.8100
20075TIP3   OH281715   1.136   2.039   4.925 -0.2579 -0.1270  0.0825
20075TIP3    H181716   1.126   2.033   4.830  0.7870  2.5987 -0.2337
20075TIP3    H281717   1.051   2.072   4.956  0.1119  1.0771 -0.1584
20076TIP3   OH281718   3.580   0.399  16.459  0.4424 -0.0802  0.1679
20076TIP3    H181719   3.641   0.363  16.395  0.2062 -1.0649  0.4949
20076TIP3    H281720   3.495   0.362  16.436  0.3879 -0.5861  1.1480
20077TIP3   OH281721   4.703   3.756   2.627 -0.7831  0.1324  0.0879
20077TIP3    H181722   4.796   3.744   2.609 -0.9123  1.0822 -1.2428
20077TIP3    H281723   4.671   3.810   2.555 -2.8328 -1.9873 -0.6391
20078TIP3   OH281724   4.573   0.251  13.222  0.6428  0.1931 -0.0711
20078TIP3    H181725   4.593   0.326  13.278  0.7721 -1.0170  1.5472
20078TIP3    H281726   4.654   0.201  13.219  0.0399 -0.8088  0.3306
20079TIP3   OH281727   1.111   2.790  16.352  0.2216  0.1077 -0.0260
20079TIP3    H181728   1.116   2.884  16.336 -1.5489  0.4131  1.1307
20079TIP3    H281729   1.192   2.755  16.313  0.5191  1.9831 -1.1544
20080TIP3   OH281730   6.594   0.803   0.285 -1.1308  0.6183  0.6588
20080TIP3    H181731   6.609   0.819   0.192 -0.4677 -1.9034  0.2864
20080TIP3    H281732   6.660   0.857   0.330  0.1410  0.0002 -0.4343
20081TIP3   OH281733   3.464   2.064   2.304  0.0908  0.6462 -0.2230
20081TIP3    H181734   3.374   2.091   2.286 -0.0239 -0.3196 -1.1510
20081TIP3    H281735   3.510   2.078   2.221  0.9108  1.5802  0.3757
20082TIP3   OH281736   0.450   2.033   6.992  0.5279 -0.5604  0.5068
20082TIP3    H181737   0.516   2.081   6.942  0.1588  0.4810  0.9907
20082TIP3    H281738   0.499   1.967   7.041  1.0161 -0.8382 -0.3495
20083TIP3   OH281739   5.117   5.446  14.202 -0.2432  0.2318  0.2834
20083TIP3    H181740   5.038   5.430  14.150 -0.2712  0.4276  0.2667
20083TIP3    H281741   5.113   5.539  14.224 -0.0245  0.2390  0.2958
20084TIP3   OH281742   0.591   0.664   1.980  0.6928 -0.0260  0.4481
20084TIP3    H181743   0.528   0.664   2.052 -0.2788  0.0908 -0.3922
20084TIP3    H281744   0.645   0.587   1.996  0.4501 -0.0270  1.2772
20085TIP3   OH281745   6.379   2.347   5.341  0.6639  0.8328 -0.5543
20085TIP3    H181746   6.469   2.378   5.349  1.1038 -0.6494  0.4630
20085TIP3    H281747   6.352   2.327   5.431 -0.2436  0.0709 -0.9805
20086TIP3   OH281748   4.134   2.241  15.457  0.3795 -0.9157 -0.0944
20086TIP3    H181749   4.084   2.161  15.440  2.0463 -1.9777 -0.1472
20086TIP3    H281750   4.187   2.220  15.534  1.6623 -0.2715 -0.7853
20087TIP3   OH281751   6.594   3.361  13.574 -0.9215  0.4281  0.0553
20087TIP3    H181752   6.646   3.353  13.493 -1.1662 -0.5637 -0.0031
20087TIP3    H281753   6.538   3.284  13.575  1.3151 -1.2528  2.7650
20088TIP3   OH281754   6.535   0.191   3.847  0.3240 -0.1322 -0.1093
20088TIP3    H181755   6.576   0.180   3.933  0.9078  0.7648 -0.2566
20088TIP3    H281756   6.466   0.255   3.861  0.7921  0.4514 -0.4108
20089TIP3   OH281757   2.359   4.070  13.764 -0.0229 -0.2861 -0.4799
20089TIP3    H181758   2.346   4.028  13.678 -0.1692 -2.0381  0.3853
20089TIP3    H281759   2.387   3.999  13.821  0.7510  1.0195  0.7745
20090TIP3   OH281760   6.110   5.239   2.863 -0.3550 -0.1702  0.1658
20090TIP3    H181761   6.136   5.187   2.787  0.4634 -2.0132  1.6380
20090TIP3    H281762   6.017   5.221   2.874 -0.6410  0.6896 -0.8322
20091TIP3   OH281763   1.628   6.033   0.866  0.1428  0.0055 -0.0451
20091TIP3    H181764   1.564   6.025   0.795 -2.2155 -0.8109  2.0665
20091TIP3    H281765   1.622   6.124   0.894  0.8563  0.2520 -0.6834
20092TIP3   OH281766   0.480   5.197  11.575  0.0966  0.7583 -0.5799
20092TIP3    H181767   0.477   5.102  11.585 -0.8949  0.5096 -2.9964
20092TIP3    H281768   0.565   5.222  11.613 -0.0176 -0.9586  0.8786
20093TIP3   OH281769   2.350   4.628   4.070 -0.1324  0.2976 -0.1746
20093TIP3    H181770   2.435   4.643   4.029 -0.2260 -0.2333 -0.5769
20093TIP3    H281771   2.325   4.540   4.042 -0.6269  0.2901  0.2735
20094TIP3   OH281772   2.256   6.626  11.420  0.2091 -0.0181  0.1312
20094TIP3    H181773   2.286   6.717  11.412  1.1071 -0.4546 -1.7133
20094TIP3    H281774   2.163   6.634  11.441  0.6139  1.3271  1.5578
20095TIP3   OH281775   3.651   1.544   0.071 -0.9531  0.1936 -0.6957
20095TIP3    H181776   3.646   1.451   0.090  0.1301  0.4413  0.9036
20095TIP3    H281777   3.694   1.582   0.148 -2.1070  2.1170 -0.9600
20096TIP3   OH281778   4.414   1.074   2.501  0.6924 -0.9881  0.5578
20096TIP3    H181779   4.426   1.153   2.449 -0.0124 -0.8031  0.6793
20096TIP3    H281780   4.376   1.104   2.584 -0.9823 -1.6133  0.0323
20097TIP3   OH281781   6.529   0.878  12.547  0.0769  0.7088  0.3698
20097TIP3    H181782   6.507   0.801  12.599  1.6163  0.3574  0.5223
20097TIP3    H281783   6.561   0.842  12.464  0.1985  1.2027  0.2005
20098TIP3   OH281784   0.550   1.763  13.169 -0.0216 -0.9594 -0.0460
20098TIP3    H181785   0.592   1.827  13.227 -1.1361  0.1143 -0.3996
20098TIP3    H281786   0.608   1.687  13.171  1.8794  0.4409 -0.4447
20099TIP3   OH281787   2.259   0.899  11.111  0.1114  0.3458  0.2840
20099TIP3    H181788   2.270   0.981  11.063 -0.6632 -0.3785 -1.1847
20099TIP3    H281789   2.164   0.887  11.115  0.1973 -0.0436  1.2577
20100TIP3   OH281790   5.932   6.551   1.294 -0.4364 -0.5131  0.6774
20100TIP3    H181791   5.950   6.525   1.385 -0.9138 -1.4355  0.5095
20100TIP3    H281792   6.005   6.610   1.272 -0.6564  0.2357  1.8661
20101TIP3   OH281793   0.476   1.290  11.080 -0.0226 -0.3028  0.4747
20101TIP3    H181794   0.486   1.213  11.023 -0.0046  0.9258 -1.2110
20101TIP3    H281795   0.543   1.279  11.147  0.1877 -1.6012  0.0719
20102TIP3   OH281796   3.898   2.478  16.059 -0.1970  0.1586  0.2090
20102TIP3    H181797   3.978   2.528  16.075 -0.8852  0.4145  3.2408
20102TIP3    H281798   3.917   2.391  16.094 -0.2420 -0.6829 -1.8064
20103TIP3   OH281799   5.830   3.481   1.170  0.0199 -0.2666 -0.5825
20103TIP3    H181800   5.770   3.443   1.235 -0.5862 -0.5503 -1.3069
20103TIP3    H281801   5.881   3.406   1.139  0.9205  0.0072  0.1938
20104TIP3   OH281802   3.855   2.823  13.892  0.0751  0.3913  0.0736
20104TIP3    H181803   3.844   2.755  13.826 -0.2262 -0.7156  1.2333
20104TIP3    H281804   3.946   2.815  13.921  0.1186  0.6600  0.0127
20105TIP3   OH281805   6.756   4.488   6.737  0.0172  0.0727  0.0890
20105TIP3    H181806   6.808   4.434   6.796 -1.4415  0.6112  1.9104
20105TIP3    H281807   6.774   4.453   6.650  0.0547 -2.5052  1.1163
20106TIP3   OH281808   4.105   6.567   1.869  0.7565  0.4664 -0.5693
20106TIP3    H181809   4.049   6.527   1.936  4.1615 -2.7168  0.5483
20106TIP3    H281810   4.067   6.537   1.786 -1.5836  1.7811 -0.0200
20107TIP3   OH281811   6.268   5.966  13.369 -0.4723  0.3423  0.0018
20107TIP3    H181812   6.242   6.056  13.385  2.1277  1.4722 -1.7413
20107TIP3    H281813   6.248   5.952  13.276 -0.0540 -0.5706  0.0459
20108TIP3   OH281814   4.811   4.987  11.706 -0.0948 -0.0139 -0.4629
20108TIP3    H181815   4.748   5.057  11.724  0.0803 -0.0594  0.3496
20108TIP3    H281816   4.869   5.023  11.639  0.4155  0.8883  0.4468
20109TIP3   OH281817   5.679   0.223   0.731 -0.2873  0.0297 -0.4549
20109TIP3    H181818   5.762   0.238   0.686 -0.2236 -0.5196 -0.5187
20109TIP3    H281819   5.629   0.303   0.716 -0.2402 -0.1148 -1.4453
20110TIP3   OH281820   4.356   0.471   2.208  0.3668 -0.1426  0.2443
20110TIP3    H181821   4.264   0.447   2.207  0.9682 -2.5403  0.1982
20110TIP3    H281822   4.398   0.411   2.147  1.7916  1.7792 -0.7498
20111TIP3   OH281823   0.786   3.837   3.759 -1.1017 -0.3130 -0.4337
20111TIP3    H181824   0.861   3.870   3.710 -1.7748  0.1174 -1.1778
20111TIP3    H281825   0.762   3.908   3.819 -0.7133 -0.5763  0.0392
20112TIP3   OH281826   3.257   4.447   2.027 -0.0360  0.2826  0.0379
20112TIP3    H181827   3.332   4.396   2.057  0.4439  0.3977 -0.9614
20112TIP3    H281828   3.222   4.487   2.107 -0.2782 -1.3997  0.7954
20113TIP3   OH281829   2.555   5.262  10.455  0.7077  0.5626 -0.5627
20113TIP3    H181830   2.564   5.356  10.440  0.6941  0.6747  0.1139
20113TIP3    H281831   2.461   5.245  10.446  0.6148  0.7434  0.0093
20114TIP3   OH281832   1.440   6.640   4.776 -0.1015 -0.2165  0.3093
20114TIP3    H181833   1.456   6.677   4.862  0.9194 -1.0266  0.4857
20114TIP3    H281834   1.377   6.699   4.735 -2.4106 -1.0724  2.4653
20115TIP3   OH281835   3.619   0.703   4.792  0.2022  0.0426 -0.5138
20115TIP3    H181836   3.707   0.739   4.792 -0.4661  1.7580 -2.2650
20115TIP3    H281837   3.603   0.679   4.701 -0.9235 -0.8445 -0.0969
20116TIP3   OH281838   5.045   2.654   2.235 -0.6711  0.3774 -0.1077
20116TIP3    H181839   4.963   2.626   2.276  0.0720 -1.0556  0.4287
20116TIP3    H281840   5.110   2.647   2.305  0.3742 -0.8487 -1.1727
20117TIP3   OH281841   6.260   1.584   2.055 -0.3661  0.0519 -0.0275
20117TIP3    H181842   6.179   1.624   2.023 -1.1404 -1.4953 -0.0431
20117TIP3    H281843   6.293   1.534   1.979  0.3626  0.3158  0.1145
20118TIP3   OH281844   2.306   6.203   4.783  0.5211 -0.4328  0.1852
20118TIP3    H181845   2.376   6.244   4.835 -0.2427 -0.6881  1.4350
20118TIP3    H281846   2.269   6.275   4.732  0.8663 -0.0499  0.4720
20119TIP3   OH281847   5.075   1.438  12.212  0.6845  0.8752 -0.2536
20119TIP3    H181848   5.083   1.385  12.132  3.1565  1.6884 -0.5943
20119TIP3    H281849   5.137   1.397  12.273 -0.2055  1.0819  0.7949
20120TIP3   OH281850   5.352   4.022  10.902  0.2730 -0.0959 -0.2170
20120TIP3    H181851   5.348   3.932  10.871 -0.2856 -0.1301 -0.0446
20120TIP3    H281852   5.439   4.030  10.941  0.4457 -0.4620 -0.5205
20121TIP3   OH281853   0.852   4.260   5.638  0.4091  0.5566  0.2110
20121TIP3    H181854   0.846   4.301   5.725 -1.4820  0.5565  0.0979
20121TIP3    H281855   0.945   4.238   5.628  0.2904 -1.7605  3.3262
20122TIP3   OH281856   2.373   6.174   4.207  0.1223  0.6051 -0.1007
20122TIP3    H181857   2.293   6.219   4.180 -0.4837  0.1164  0.8512
20122TIP3    H281858   2.416   6.234   4.267  1.1973  1.4586 -1.6681
20123TIP3   OH281859   1.915   5.872   6.148 -0.0461 -0.4659 -0.2884
20123TIP3    H181860   1.886   5.796   6.198 -0.2095  0.0112  0.3483
20123TIP3    H281861   1.894   5.947   6.204 -0.1867  0.0686 -1.0490
20124TIP3   OH281862   4.152   4.417  13.220  0.1838  0.0905 -0.3278
20124TIP3    H181863   4.061   4.446  13.215 -0.1487 -1.0347 -0.9778
20124TIP3    H281864   4.188   4.462  13.296 -0.3253  2.1594 -1.2847
20125TIP3   OH281865   6.092   3.033   6.132  0.6656  0.0561  0.0138
20125TIP3    H181866   6.126   3.105   6.185  0.1584  0.3972 -0.1272
20125TIP3    H281867   6.052   3.075   6.057  0.3268 -0.3727 -0.0466
20126TIP3   OH281868   2.721   4.065  17.196 -0.7837 -0.6972  0.1418
20126TIP3    H181869   2.762   4.009  17.130  1.0192 -0.2727  0.8422
20126TIP3    H281870   2.674   4.132  17.146 -1.0787 -1.5322 -0.6968
20127TIP3   OH281871   4.927   2.236  13.443  0.3232  0.4806  0.5698
20127TIP3    H181872   4.870   2.311  13.460 -1.4287 -1.0752  1.7706
20127TIP3    H281873   4.916   2.181  13.520  2.2023 -0.6414  0.0518
20128TIP3   OH281874   3.743   6.538  12.906  0.6807  0.2353 -0.0480
20128TIP3    H181875   3.688   6.462  12.923 -0.1580  1.1793  1.4558
20128TIP3    H281876   3.717   6.567  12.818 -0.1150 -0.2337  0.0307
20129TIP3   OH281877   3.622   6.442   5.100 -0.0294  0.2457 -0.4102
20129TIP3    H181878   3.695   6.412   5.153 -0.3517 -0.7182 -0.5005
20129TIP3    H281879   3.546   6.394   5.133 -0.6898  1.4675 -0.1026
20130TIP3   OH281880   4.518   6.572   2.743 -0.1220  0.4901 -0.2225
20130TIP3    H181881   4.597   6.537   2.701 -0.1949 -0.9202  0.7480
20130TIP3    H281882   4.478   6.628   2.677  0.3405 -0.8022 -1.6289
20131TIP3   OH281883   3.734   1.567   4.054 -0.2346 -0.6149 -0.7354
20131TIP3    H181884   3.790   1.637   4.088 -0.5607  0.1781 -1.7917
20131TIP3    H281885   3.791   1.490   4.052 -0.8043 -1.2542  3.6218
20132TIP3   OH281886   1.971   2.135  15.966 -0.6303 -0.9817  0.6945
20132TIP3    H181887   2.041   2.126  15.901 -0.7095 -1.5277  0.6794
20132TIP3    H281888   1.898   2.173  15.919 -1.3162 -3.0831  0.0046
20133TIP3   OH281889   4.212   3.224   6.004  0.5746 -0.5606 -0.1287
20133TIP3    H181890   4.125   3.238   5.968  0.0777 -2.4851  0.2425
20133TIP3    H281891   4.202   3.236   6.098  1.3253  1.9379 -0.3334
20134TIP3   OH281892   4.863   4.588  10.814 -0.5091  0.6011  0.1336
20134TIP3    H181893   4.787   4.565  10.761 -1.0777 -0.2391  1.2850
20134TIP3    H281894   4.844   4.552  10.901  0.8360  1.0912  0.6538
20135TIP3   OH281895   1.788   2.229  15.735  0.4119 -0.5030 -0.0024
20135TIP3    H181896   1.770   2.278  15.815 -0.2699  0.7909 -0.9379
20135TIP3    H281897   1.702   2.198  15.706  0.1605  2.0401 -2.1426
20136TIP3   OH281898   5.072   3.442   1.436  0.4893 -0.0328  0.3425
20136TIP3    H181899   5.047   3.519   1.386  0.1812 -0.6214 -0.4326
20136TIP3    H281900   4.989   3.397   1.453  0.7879 -0.8292 -0.2804
20137TIP3   OH281901   6.043   1.595   2.714 -0.3636 -0.1716 -0.0509
20137TIP3    H181902   6.133   1.626   2.722 -0.0496 -1.0623 -0.1416
20137TIP3    H281903   5.990   1.667   2.748  0.4445 -0.2045  1.3063
20138TIP3   OH281904   1.786   1.527   5.852 -0.3308 -0.2357  0.7719
20138TIP3    H181905   1.704   1.564   5.886  0.1535 -0.6789  2.4963
20138TIP3    H281906   1.854   1.572   5.901  0.4016 -0.9645  0.4284
20139TIP3   OH281907   3.251   6.601   2.792 -0.0187 -0.2901  0.3141
20139TIP3    H181908   3.254   6.670   2.859  0.7613  0.2363 -0.2426
20139TIP3    H281909   3.333   6.613   2.743 -0.1115 -1.3085 -0.0948
20140TIP3   OH281910   1.307   2.528  12.542 -0.0308  0.6817  0.3582
20140TIP3    H181911   1.355   2.493  12.467  1.5983  1.4274  1.0385
20140TIP3    H281912   1.305   2.456  12.605  0.7246  0.8328  0.5627
20141TIP3   OH281913   6.085   6.622  14.546  0.1577 -0.5100 -0.7108
20141TIP3    H181914   6.109   6.715  14.547  0.2695 -0.5273 -1.3896
20141TIP3    H281915   6.031   6.610  14.624  2.4322 -0.4719  0.9287
20142TIP3   OH281916   1.409   5.756   5.249  0.5819 -0.8882  0.4365
20142TIP3    H181917   1.465   5.791   5.180 -0.1220 -0.9662 -0.1778
20142TIP3    H281918   1.462   5.687   5.289  0.6484 -1.4723 -0.6340
20143TIP3   OH281919   5.863   2.689  11.958 -0.3521 -0.2382 -0.3390
20143TIP3    H181920   5.853   2.720  11.868  0.3266 -3.6870 -1.6509
20143TIP3    H281921   5.779   2.650  11.979  0.1017 -1.1314 -0.1667
20144TIP3   OH281922   4.378   2.999   4.643 -0.1115 -0.6078 -0.4056
20144TIP3    H181923   4.285   3.020   4.641 -0.1547 -0.7179  0.1769
20144TIP3    H281924   4.391   2.938   4.570 -1.1855 -3.2982  1.5451
20145TIP3   OH281925   6.068   6.671  13.682 -0.5958  0.2369 -0.2786
20145TIP3    H181926   6.065   6.760  13.719 -3.6776  1.0338 -2.2667
20145TIP3    H281927   6.061   6.613  13.758 -1.9367  1.7503  0.7995
20146TIP3   OH281928   4.450   6.213   1.208  0.1081 -0.0646 -0.1174
20146TIP3    H181929   4.486   6.291   1.248 -0.6345  0.2572 -0.0611
20146TIP3    H281930   4.403   6.245   1.131  0.6012 -0.5569 -0.6210
20147TIP3   OH281931   2.911   5.668  16.865  0.4114 -0.2089  0.2517
20147TIP3    H181932   2.943   5.720  16.792 -0.4529  0.9507  0.6846
20147TIP3    H281933   2.854   5.727  16.914  0.9469 -0.9774  1.8488
20148TIP3   OH281934   3.265   5.210   2.575 -0.4414 -0.4400 -0.4359
20148TIP3    H181935   3.342   5.178   2.623  0.4133  0.6343 -1.0502
20148TIP3    H281936   3.223   5.132   2.541  1.1723 -0.9588 -1.2702
20149TIP3   OH281937   3.990   6.176   1.767 -0.1401 -0.2243 -0.3182
20149TIP3    H181938   4.056   6.237   1.735  0.5179 -0.5493  0.4214
20149TIP3    H281939   3.936   6.157   1.690  0.9960 -0.4501 -1.0646
20150TIP3   OH281940   1.561   2.765   4.014 -0.0936  0.4342  0.3991
20150TIP3    H181941   1.634   2.773   3.953  1.1936  0.9021  1.9693
20150TIP3    H281942   1.490   2.816   3.974  0.4203 -0.0415 -1.1419
20151TIP3   OH281943   1.016   5.919   3.332 -0.3376 -0.1873  0.0293
20151TIP3    H181944   1.111   5.915   3.342 -0.3947  0.2461  0.8219
20151TIP3    H281945   1.002   5.953   3.244  0.2701  2.3001  0.8540
20152TIP3   OH281946   2.429   3.731  13.403 -0.8921  0.3429 -0.2230
20152TIP3    H181947   2.460   3.729  13.313  1.4041  0.7336  0.5320
20152TIP3    H281948   2.335   3.710  13.397 -0.3316 -1.6464 -2.4761
20153TIP3   OH281949   5.271   4.026  12.692 -0.3842  0.7249  0.2466
20153TIP3    H181950   5.232   3.957  12.639 -0.6089  1.0216  0.0298
20153TIP3    H281951   5.210   4.038  12.765 -0.6876  1.1699 -0.0781
20154TIP3   OH281952   4.205   5.802  10.328 -0.1552  0.1269 -0.0985
20154TIP3    H181953   4.244   5.714  10.330 -0.3789  0.0348  0.2345
20154TIP3    H281954   4.271   5.857  10.287  0.7541  0.1911  1.4333
20155TIP3   OH281955   3.915   3.800  12.241  0.2841 -0.3549  0.4312
20155TIP3    H181956   4.001   3.809  12.199  1.2837 -1.2579  2.2246
20155TIP3    H281957   3.926   3.729  12.304 -1.2054  0.8357  2.0979
20156TIP3   OH281958   5.528   1.096   6.533  0.0584  0.0673  0.0760
20156TIP3    H181959   5.448   1.084   6.481 -0.0099 -0.2565  0.2525
20156TIP3    H281960   5.578   1.161   6.485 -1.7311  2.6564  1.6220
20157TIP3   OH281961   3.605   4.875   4.008 -0.1688 -0.3709 -0.4720
20157TIP3    H181962   3.660   4.951   3.989 -0.1333 -0.1806  0.3798
20157TIP3    H281963   3.666   4.808   4.038 -0.4758  0.1221  1.3263
20158TIP3   OH281964   4.306   5.107  16.377  0.1963 -0.2212  0.0038
20158TIP3    H181965   4.306   5.036  16.313  1.5939 -0.4317  0.2336
20158TIP3    H281966   4.230   5.161  16.353  0.0098 -0.9606 -1.0834
20159TIP3   OH281967   0.470   2.669  11.498  0.3317  0.0658  0.2272
20159TIP3    H181968   0.423   2.659  11.582 -0.1544  0.3694 -0.0034
20159TIP3    H281969   0.545   2.725  11.519  0.8919 -0.8695  0.7122
20160TIP3   OH281970   2.783   5.905  16.994 -0.3991 -0.1899  0.5267
20160TIP3    H181971   2.738   5.960  16.929  0.0796 -0.0528  0.3156
20160TIP3    H281972   2.865   5.950  17.012  0.0174 -0.8544  0.3131
20161TIP3   OH281973   2.005   1.564  16.298  0.3133 -0.4253 -0.0685
20161TIP3    H181974   2.033   1.482  16.257  1.4926  0.9521 -2.0630
20161TIP3    H281975   2.079   1.623  16.287 -1.3234  1.5897 -0.5966
20162TIP3   OH281976   2.456   5.784  13.412  0.8140  0.8277  0.3693
20162TIP3    H181977   2.515   5.791  13.487 -1.3668  0.3336  2.1824
20162TIP3    H281978   2.395   5.714  13.435 -0.1061  0.9117 -1.7018
20163TIP3   OH281979   0.406   6.348   5.255  0.0380  0.2222  0.5470
20163TIP3    H181980   0.477   6.291   5.282  0.3997  1.1678  1.6128
20163TIP3    H281981   0.426   6.433   5.294 -0.1810  1.2570 -1.4823
20164TIP3   OH281982   4.807   1.231  11.358 -0.2056  0.3065  0.7311
20164TIP3    H181983   4.763   1.294  11.301 -0.0432 -2.2628 -2.3604
20164TIP3    H281984   4.896   1.264  11.366 -0.1598  0.5730 -0.7523
20165TIP3   OH281985   5.389   5.137  13.932 -0.4111  0.0824  0.7394
20165TIP3    H181986   5.354   5.105  13.849 -0.4241 -2.5523  1.7095
20165TIP3    H281987   5.402   5.058  13.984  5.1540  1.0720  1.1343
20166TIP3   OH281988   0.599   0.613   5.667 -0.1387  0.3780  0.4647
20166TIP3    H181989   0.528   0.549   5.668  0.3344 -0.1738 -0.2933
20166TIP3    H281990   0.601   0.645   5.576  0.9161  0.0019  0.3428
20167TIP3   OH281991   0.691   2.335   4.747 -0.6710  0.1636  0.3666
20167TIP3    H181992   0.661   2.281   4.820 -0.3422  0.9606  1.1128
20167TIP3    H281993   0.695   2.424   4.784 -0.6335  0.5959 -0.6623
20168TIP3   OH281994   3.422   6.158  11.479  0.0730  0.3322  0.9050
20168TIP3    H181995   3.331   6.130  11.482 -0.4127  1.6652 -0.6955
20168TIP3    H281996   3.441   6.167  11.386  0.8904  3.1129  1.3112
20169TIP3   OH281997   4.259   0.790   0.807  0.0135 -0.5004 -0.4862
20169TIP3    H181998   4.226   0.856   0.746 -1.3901  0.3701  1.1570
20169TIP3    H281999   4.181   0.749   0.843  0.8329 -1.6344  0.0478
20170TIP3   OH282000   5.720   0.368  12.540  0.0453 -0.0064  0.1900
20170TIP3    H182001   5.740   0.375  12.633 -0.6650 -3.9015  0.7212
20170TIP3    H282002   5.771   0.293  12.510 -0.5121  0.5729 -2.3239
20171TIP3   OH282003   6.407   3.982   0.041  0.0011 -0.1792 -0.1420
20171TIP3    H182004   6.334   4.043   0.039 -2.0799 -2.6154 -0.6650
20171TIP3    H282005   6.383   3.913  -0.020  2.0747 -1.7694  0.7721
20172TIP3   OH282006   5.595   1.397   1.479 -0.0679  0.0844  0.4208
20172TIP3    H182007   5.631   1.485   1.490  1.6619 -0.4617 -0.6926
20172TIP3    H282008   5.575   1.390   1.386 -0.5905 -0.5733  0.5738
20173TIP3   OH282009   3.136   1.055  14.406  0.2913 -0.0708 -0.0861
20173TIP3    H182010   3.070   1.078  14.472  1.0459 -1.4401  1.1611
20173TIP3    H282011   3.170   1.140  14.376 -1.7371  0.6375 -0.4471
20174TIP3   OH282012   3.321   1.573   4.858  0.3344  0.1073  0.2604
20174TIP3    H182013   3.352   1.658   4.888  2.9624 -1.1288  1.3078
20174TIP3    H282014   3.334   1.575   4.763 -0.8336  1.3283  0.1236
20175TIP3   OH282015   0.484   3.045   1.691  0.0269 -0.4162 -0.0888
20175TIP3    H182016   0.394   3.035   1.661  0.4892 -0.6044 -1.4668
20175TIP3    H282017   0.499   2.969   1.748  0.3065 -2.1708 -2.4192
20176TIP3   OH282018   3.785   3.262   3.862  0.0355  0.0141 -0.8627
20176TIP3    H182019   3.790   3.298   3.950 -0.8718 -1.5959 -0.1374
20176TIP3    H282020   3.696   3.281   3.832 -0.1447 -0.7468 -0.8376
20177TIP3   OH282021   0.562   6.186   5.650 -0.0216 -0.1319  0.2378
20177TIP3    H182022   0.651   6.185   5.685 -0.0264 -2.4152  0.2489
20177TIP3    H282023   0.556   6.269   5.603  1.8890  0.3570  0.8138
20178TIP3   OH282024   4.798   5.264  16.219 -0.5302 -0.1808  0.2245
20178TIP3    H182025   4.807   5.169  16.222  0.7193 -0.0473  0.9293
20178TIP3    H282026   4.818   5.293  16.308 -1.3753  0.7094  0.1401
20179TIP3   OH282027   1.595   0.334  14.438  0.0104 -0.3585  0.1507
20179TIP3    H182028   1.572   0.283  14.361  1.7891 -3.6571  1.6743
20179TIP3    H282029   1.516   0.384  14.458 -0.1342  1.3822 -4.3449
20180TIP3   OH282030   2.815   2.574   1.619 -0.4088 -0.3552  0.0187
20180TIP3    H182031   2.805   2.521   1.540  0.1167 -1.0357  0.3992
20180TIP3    H282032   2.839   2.661   1.587 -2.1340 -0.1139 -0.6438
20181TIP3   OH282033   0.597   5.169  12.786  0.7773 -0.1267 -0.6501
20181TIP3    H182034   0.590   5.238  12.852 -0.0677  0.1642 -1.0345
20181TIP3    H282035   0.542   5.098  12.819  3.0519 -1.3587  0.6263
20182TIP3   OH282036   3.256   2.252  14.568  0.0079  0.3657  0.6967
20182TIP3    H182037   3.312   2.307  14.623 -0.0085 -0.1333  1.2210
20182TIP3    H282038   3.171   2.254  14.611  0.2713 -0.9054  1.3103
20183TIP3   OH282039   3.338   2.268   4.133  0.3387 -0.0603 -0.3573
20183TIP3    H182040   3.245   2.288   4.120  0.9849  2.0802 -1.8507
20183TIP3    H282041   3.372   2.342   4.182  1.8825  0.6138 -2.3842
20184TIP3   OH282042   4.095   3.763  14.750 -0.0428  0.5252  0.2032
20184TIP3    H182043   4.076   3.805  14.835 -4.2036 -1.8023  0.5478
20184TIP3    H282044   4.061   3.825  14.685 -0.5504  0.4993  0.4400
20185TIP3   OH282045   3.946   5.399  15.105 -0.5127 -0.3111  0.3781
20185TIP3    H182046   3.871   5.447  15.141 -0.1685 -0.0370  0.7330
20185TIP3    H282047   3.957   5.434  15.017 -0.6780 -0.2108  0.3972
20186TIP3   OH282048   6.089   2.883  13.603  0.3024  0.2279 -0.1362
20186TIP3    H182049   6.110   2.969  13.639  1.3576 -0.2177  0.3238
20186TIP3    H282050   6.064   2.830  13.678  1.4267 -0.3817 -0.1739
20187TIP3   OH282051   2.249   2.104  11.548  0.1902  0.3743  0.2189
20187TIP3    H182052   2.219   2.188  11.583  0.0282  0.2633  0.3496
20187TIP3    H282053   2.169   2.054  11.534  0.3441 -0.2332  1.3523
20188TIP3   OH282054   1.894   4.095   5.284  0.4191  0.3624  0.3225
20188TIP3    H182055   1.925   4.080   5.374  1.4285  1.4583  0.1707
20188TIP3    H282056   1.942   4.173   5.255 -1.1541  1.0176 -0.5745
20189TIP3   OH282057   6.777   2.592   0.646 -0.3266 -0.2218 -0.0604
20189TIP3    H182058   6.697   2.559   0.605 -0.8675  0.0841  0.7268
20189TIP3    H282059   6.752   2.607   0.737  0.6322 -0.1217  0.1899
20190TIP3   OH282060   4.040   3.061  13.382  0.4923  0.9279 -0.5088
20190TIP3    H182061   3.992   3.048  13.300  1.6762 -1.1082 -0.8890
20190TIP3    H282062   3.976   3.039  13.450  0.0148  1.0154 -0.9205
20191TIP3   OH282063   1.387   3.396  15.479  0.4126  0.7998 -0.7512
20191TIP3    H182064   1.478   3.385  15.453 -0.0824  2.0860 -3.1514
20191TIP3    H282065   1.342   3.320  15.442  0.3092  0.8287 -0.6857
20192TIP3   OH282066   2.561   6.373   0.550 -0.1749  0.2434 -0.6691
20192TIP3    H182067   2.644   6.356   0.595 -0.4504  0.9053  0.1022
20192TIP3    H282068   2.581   6.362   0.457  1.1086  1.7085 -0.5901
20193TIP3   OH282069   3.251   5.279  13.063 -0.0619  0.3213  0.0152
20193TIP3    H182070   3.310   5.280  12.987  0.4985  1.4597  0.4563
20193TIP3    H282071   3.276   5.356  13.114 -2.8835  1.6350 -0.5145
20194TIP3   OH282072   0.890   0.675  12.184 -0.3324 -0.0069 -0.5656
20194TIP3    H182073   0.801   0.706  12.170 -0.4943 -1.3507 -2.8113
20194TIP3    H282074   0.931   0.742  12.238 -2.6802  0.6452  0.4941
20195TIP3   OH282075   1.127   3.170  10.942  0.0216  0.1861 -0.0825
20195TIP3    H182076   1.121   3.090  10.994 -0.2693  0.8684  0.9270
20195TIP3    H282077   1.131   3.138  10.851 -1.5328 -0.9259  0.2080
20196TIP3   OH282078   5.587   2.927  13.956  0.3535 -0.1856  0.1177
20196TIP3    H182079   5.616   2.850  13.906 -0.0866 -0.9078  0.9624
20196TIP3    H282080   5.649   2.932  14.029  2.7150  2.4972 -1.9381
20197TIP3   OH282081   1.763   1.926  15.490 -0.3881 -0.5679  0.4030
20197TIP3    H182082   1.701   1.982  15.443 -1.5833 -1.9443  0.3271
20197TIP3    H282083   1.817   1.987  15.540 -0.3962  0.7908 -1.2045
20198TIP3   OH282084   0.606   5.478  13.228  0.7579  0.2528  0.1170
20198TIP3    H182085   0.556   5.450  13.305  2.1082  1.1132  1.3562
20198TIP3    H282086   0.609   5.574  13.236  0.7538  0.3643 -1.1225
20199TIP3   OH282087   1.112   1.108   5.748  0.3810  0.1763  0.4830
20199TIP3    H182088   1.077   1.146   5.667 -1.0008  1.6558  1.7339
20199TIP3    H282089   1.192   1.158   5.765  0.7047 -0.1775  0.0037
20200TIP3   OH282090   6.136   2.952   5.591  0.2682 -0.1672 -0.2040
20200TIP3    H182091   6.120   3.002   5.512 -1.4305  0.3016  0.4055
20200TIP3    H282092   6.072   2.881   5.588  0.2899 -0.2320  0.6637
20201TIP3   OH282093   2.643   1.721   3.476  0.1050  0.3183 -0.0576
20201TIP3    H182094   2.619   1.629   3.464 -2.0032  0.8996 -0.5443
20201TIP3    H282095   2.704   1.720   3.551 -0.7309 -1.3372  0.6441
20202TIP3   OH282096   1.621   4.546  10.949 -0.7781  0.6029  0.6993
20202TIP3    H182097   1.630   4.593  10.867 -1.1401 -1.1360 -0.3700
20202TIP3    H282098   1.530   4.560  10.975 -1.0904 -0.0993  0.0022
20203TIP3   OH282099   0.730   3.675  17.054  0.0007 -0.5534  0.1426
20203TIP3    H182100   0.720   3.766  17.080 -0.0954  0.0724 -1.9725
20203TIP3    H282101   0.730   3.626  17.136 -0.1822  1.3191  1.2826
20204TIP3   OH282102   0.835   3.527   5.715 -0.2076 -0.0031  0.2744
20204TIP3    H182103   0.875   3.516   5.802 -0.7560  1.6590  0.7389
20204TIP3    H282104   0.785   3.446   5.702  0.9595 -0.8547  0.9118
20205TIP3   OH282105   5.631   4.744  11.068  0.0853  0.6571 -0.2726
20205TIP3    H182106   5.614   4.828  11.026 -1.5166  0.7076  0.4435
20205TIP3    H282107   5.566   4.685  11.030  0.4935  0.0098  0.0362
20206TIP3   OH282108   5.261   2.464  16.213 -0.3013 -0.0165 -0.0306
20206TIP3    H182109   5.276   2.370  16.200  0.0773 -0.0330  0.5332
20206TIP3    H282110   5.193   2.468  16.281  0.0660  0.1318  0.3252
20207TIP3   OH282111   2.714   6.152   5.041  0.1120 -0.4088  0.0048
20207TIP3    H182112   2.659   6.120   4.969 -0.9153 -0.7196  0.9164
20207TIP3    H282113   2.748   6.236   5.008 -1.1085 -0.0859 -0.4856
20208TIP3   OH282114   1.711   0.766  15.903 -0.1318  0.5576  0.1371
20208TIP3    H182115   1.754   0.694  15.857  1.5161  1.8071 -0.3115
20208TIP3    H282116   1.759   0.775  15.985 -0.6557  0.8402  0.4200
20209TIP3   OH282117   1.787   0.243   2.287  0.0626 -0.0345  0.1343
20209TIP3    H182118   1.814   0.325   2.328 -2.0750  0.1466  1.2871
20209TIP3    H282119   1.782   0.180   2.359  1.3414 -1.0926 -0.6907
20210TIP3   OH282120   1.136   5.701  14.662 -0.2909  0.1311  0.1844
20210TIP3    H182121   1.210   5.710  14.602  0.8242 -0.9762  1.3489
20210TIP3    H282122   1.142   5.778  14.719  0.1739 -0.1160  0.4786
20211TIP3   OH282123   0.808   3.727  13.763 -0.4604 -0.3949 -0.2523
20211TIP3    H182124   0.787   3.820  13.766 -1.6971 -0.7177  1.9126
20211TIP3    H282125   0.740   3.689  13.707 -1.8694 -0.4736  1.4956
20212TIP3   OH282126   3.788   0.204   1.294  0.2857 -0.7509  0.2421
20212TIP3    H182127   3.725   0.269   1.264  0.1321 -1.3215 -0.7163
20212TIP3    H282128   3.763   0.124   1.246 -0.1903 -1.7871  2.1649
20213TIP3   OH282129   3.509   3.184  13.000  0.3766 -0.1932 -0.1987
20213TIP3    H182130   3.530   3.114  13.062  1.1490  0.5651  0.4137
20213TIP3    H282131   3.454   3.142  12.934 -0.4083 -1.0405  0.9628
20214TIP3   OH282132   0.708   6.071  14.177  0.2093 -0.6176  0.3412
20214TIP3    H182133   0.744   6.016  14.247 -0.7918  1.7479  2.7704
20214TIP3    H282134   0.782   6.085  14.117  1.5339 -1.2879  1.7849
20215TIP3   OH282135   2.510   2.539   1.678 -0.2089  0.1672  0.6091
20215TIP3    H182136   2.473   2.547   1.590 -1.3852 -0.8054  1.0098
20215TIP3    H282137   2.457   2.596   1.733  0.5161  0.7623  0.6912
20216TIP3   OH282138   5.003   1.904  10.568 -0.0044  0.3157  0.6150
20216TIP3    H182139   5.097   1.886  10.572 -0.2567 -1.1121  0.4040
20216TIP3    H282140   4.991   1.980  10.625  1.5143  1.5363 -0.6699
20217TIP3   OH282141   1.026   3.886  15.649 -0.0361  1.1686  0.0538
20217TIP3    H182142   0.948   3.928  15.612 -1.6959 -0.9146  1.0491
20217TIP3    H282143   1.040   3.810  15.593  2.5527  2.6481 -1.3609
20218TIP3   OH282144   0.688   4.807  12.385 -0.2841  0.1130 -0.0030
20218TIP3    H182145   0.696   4.859  12.464  0.1831  0.0532 -0.0061
20218TIP3    H282146   0.678   4.872  12.315  1.3747  0.2514 -0.1320
20219TIP3   OH282147   4.951   6.092  12.477  0.2801 -0.5166  0.1307
20219TIP3    H182148   4.928   6.034  12.550  0.1877 -1.4640 -0.6583
20219TIP3    H282149   4.867   6.113  12.436  0.5130 -1.4615 -0.8290
20220TIP3   OH282150   3.680   6.761   3.458 -0.1321 -0.1966  0.2104
20220TIP3    H182151   3.647   6.843   3.421  0.1537  0.2600  0.9644
20220TIP3    H282152   3.721   6.716   3.385 -0.0353  0.4634 -0.1400
20221TIP3   OH282153   2.555   1.586   5.146 -0.1691 -0.3965 -0.5655
20221TIP3    H182154   2.649   1.568   5.143  0.1265  1.2266 -1.5335
20221TIP3    H282155   2.542   1.656   5.083 -2.0973 -0.8342 -0.6753
20222TIP3   OH282156   5.649   4.108  16.181  0.1029  0.2082 -0.1413
20222TIP3    H182157   5.632   4.117  16.087 -1.5984 -1.5737 -0.0284
20222TIP3    H282158   5.743   4.126  16.191  0.2640  0.5323 -2.1524
20223TIP3   OH282159   1.911   6.261   0.309  0.4328 -0.4150 -0.2334
20223TIP3    H182160   1.995   6.217   0.322  0.1827 -0.9542 -0.4107
20223TIP3    H282161   1.846   6.194   0.329  0.0352  0.2977  0.9254
20224TIP3   OH282162   4.569   4.338   5.038 -0.6685 -0.2279  0.4824
20224TIP3    H182163   4.522   4.296   5.110  0.4984 -2.1225  0.1589
20224TIP3    H282164   4.554   4.282   4.962  1.3230 -0.3674  0.1664
20225TIP3   OH282165   1.348   4.691  13.821 -0.3926 -0.6250  0.4073
20225TIP3    H182166   1.274   4.712  13.879 -0.3850  0.9348 -0.1140
20225TIP3    H282167   1.310   4.633  13.755 -1.7384  1.9889 -1.1825
20226TIP3   OH282168   3.311   2.450   0.786  0.4514 -0.0635 -0.3857
20226TIP3    H182169   3.217   2.468   0.795  0.1711 -1.1145 -1.1863
20226TIP3    H282170   3.353   2.534   0.804 -0.5746  0.1200  1.2360
20227TIP3   OH282171   0.572   3.269   3.398  0.1476 -0.0042 -0.0845
20227TIP3    H182172   0.538   3.311   3.477 -0.4997  1.3943 -1.0945
20227TIP3    H282173   0.659   3.237   3.424  0.5906  1.8210  0.7481
20228TIP3   OH282174   5.380   5.517   4.131 -0.5258  0.5944  0.7487
20228TIP3    H182175   5.434   5.577   4.079 -0.3901  0.4413  0.7146
20228TIP3    H282176   5.413   5.527   4.221  1.3401 -1.4520  0.3294
20229TIP3   OH282177   0.336   2.267  16.057 -0.0965  0.4139  0.1679
20229TIP3    H182178   0.285   2.207  16.003 -0.7176  0.3850  0.7699
20229TIP3    H282179   0.353   2.343  16.001 -1.0880  0.5644  0.0717
20230TIP3   OH282180   2.348   4.218  15.866 -0.9570 -0.5072  0.3878
20230TIP3    H182181   2.261   4.179  15.861 -0.7588 -0.7735 -1.1986
20230TIP3    H282182   2.408   4.144  15.859 -0.5958 -0.1276 -0.6067
20231TIP3   OH282183   6.322   3.435   5.459  0.1656 -0.1028 -0.1688
20231TIP3    H182184   6.289   3.394   5.538 -0.9116  0.1846 -0.4533
20231TIP3    H282185   6.403   3.478   5.485  0.5032 -1.1106  0.4696
20232CLA    CLA82186   6.408   5.981   2.984 -0.5683  0.5948  0.2253
20233LIG     O182187   3.437   2.941  16.680  0.2724 -0.0565 -0.2431
20233LIG     O282188   3.558   2.754  16.707 -0.0570  0.1319  0.4659
20233LIG     O382189   3.245   2.622  16.691  0.4790 -0.0372 -0.1174
20233LIG     O482190   3.691   3.929  16.444 -0.2142 -0.0818  0.2902
20233LIG      N82191   3.658   3.255  16.518 -0.0769  0.6860 -0.0510
20233LIG     C182192   3.733   3.126  16.550 -1.0893  0.5559 -0.6674
20233LIG     C282193   3.554   3.193  16.431  0.5092  0.7694  0.3999
20233LIG     C382194   3.740   3.059  16.405  0.3208 -0.3977 -0.1080
20233LIG     C482195   3.621   3.119  16.324  0.1655 -0.1296  0.1517
20233LIG     C582196   3.662   3.042  16.645  0.3360 -0.7639 -0.0027
20233LIG     C682197   3.459   3.102  16.503 -0.2281  0.8869  0.0289
20233LIG     C782198   3.527   2.991  16.582  0.1390  0.6261  0.2191
20233LIG     C882199   3.582   3.326  16.643  0.4532 -0.1836  0.3542
20233LIG     C982200   3.747   3.353  16.443 -0.4939 -0.3481 -0.0248
20233LIG    C1082201   3.479   3.431  16.610 -0.2081  0.0557  0.0055
20233LIG    C1182202   3.546   3.558  16.564  0.3245 -0.4436 -0.2596
20233LIG    C1282203   3.461   2.825  16.734  0.0432 -0.3429  0.3939
20233LIG    C1382204   3.512   3.611  16.439  0.5735 -0.2548 -0.0261
20233LIG    C1482205   3.630   3.626  16.646  0.2040 -0.3698  0.2631
20233LIG    C1582206   3.357   2.786  16.836 -0.3377  0.5198 -0.5857
20233LIG    C1682207   3.550   3.741  16.414 -0.4563 -0.8525 -0.0858
20233LIG    C1782208   3.683   3.752  16.616  0.3917 -0.6521  0.7571
20233LIG    C1882209   3.221   2.743  16.764 -0.8385 -0.5933 -0.0550
20233LIG    C1982210   3.330   2.895  16.941  0.0792 -0.8758  0.1293
20233LIG    C2082211   3.638   3.812  16.495  0.5246 -0.1720  0.2949
20233LIG    C2182212   3.436   2.915  17.034 -0.1927 -0.4964  0.5694
20233LIG    C2282213   3.206   2.964  16.962  0.5012 -0.5186 -0.0647
20233LIG    C2382214   3.419   2.998  17.145 -0.0693 -0.0885  0.3367
20233LIG    C2482215   3.191   3.043  17.075 -0.6930 -0.7027 -0.3750
20233LIG    C2582216   3.753   4.018  16.534  0.2631  0.0595 -0.4267
20233LIG    C2682217   3.299   3.074  17.160 -0.3118 -0.0684 -0.5024
20233LIG    C2782218   3.794   4.147  16.459  0.6552 -0.6311 -0.4995
20233LIG    C2882219   3.897   4.128  16.353  0.6659  0.1548 -0.4113
20233LIG    C2982220   3.922   4.268  16.291 -0.5058  0.3308 -0.0111
20233LIG     H182221   3.837   3.136  16.588 -0.4744 -2.0027 -1.5199
20233LIG     H282222   3.489   3.271  16.386 -4.4740 -2.0698  2.1677
20233LIG     H382223   3.733   2.949  16.407  2.0391 -0.5193 -0.0135
20233LIG     H482224   3.837   3.084  16.359  0.7658  0.2061  1.1342
20233LIG     H582225   3.649   3.198  16.252  0.6252 -0.8737 -0.4860
20233LIG     H682226   3.560   3.043  16.273  1.1062 -0.0160 -1.1775
20233LIG     H782227   3.642   3.095  16.741 -1.5103 -1.6842  0.1398
20233LIG     H882228   3.721   2.950  16.666 -0.0836 -1.0487 -0.0711
20233LIG     H982229   3.392   3.066  16.422  0.3574  0.7379 -0.3895
20233LIG    H1082230   3.385   3.159  16.564 -0.8220 -1.0212  1.1444
20233LIG    H1182231   3.544   2.903  16.516 -0.1023 -2.0684  3.5758
20233LIG    H1282232   3.649   3.357  16.721 -0.4043 -4.0628  2.7729
20233LIG    H1382233   3.538   3.249  16.704  2.9871  0.7286  3.4396
20233LIG    H1482234   3.828   3.378  16.511 -1.6292  2.8323  0.2315
20233LIG    H1582235   3.689   3.441  16.417  0.1920  0.0797 -0.1429
20233LIG    H1682236   3.791   3.305  16.357 -0.3245 -0.3406  0.0572
20233LIG    H1782237   3.409   3.454  16.694  0.5110  0.9364  0.3714
20233LIG    H1882238   3.415   3.385  16.531  0.7335  2.1171 -2.0346
20233LIG    H1982239   3.443   3.562  16.373  1.8332 -2.1161  0.0176
20233LIG    H2082240   3.664   3.570  16.732  0.2269 -1.7001 -0.5918
20233LIG    H2182241   3.391   2.694  16.888 -0.8905  1.1039  0.8247
20233LIG    H2282242   3.510   3.795  16.330  0.2961 -2.7813 -1.7254
20233LIG    H2382243   3.750   3.802  16.683  2.9558 -0.2155 -2.0094
20233LIG    H2482244   3.144   2.749  16.845  0.3458  1.0642  0.9742
20233LIG    H2582245   3.194   2.821  16.690 -0.3456  0.4999  0.8995
20233LIG    H2682246   3.518   2.844  17.033 -1.1725 -1.6192 -0.6001
20233LIG    H2782247   3.123   2.957  16.894  0.6266 -2.8494 -0.0397
20233LIG    H2882248   3.166   2.607  16.638  0.3858 -1.4538  0.3805
20233LIG    H2982249   3.504   3.028  17.205  2.4195 -0.2823 -2.9793
20233LIG    H3082250   3.099   3.098  17.091  0.0521  0.9113 -1.5270
20233LIG    H3182251   3.854   3.981  16.561 -0.0673 -1.7579 -1.6750
20233LIG    H3282252   3.687   4.038  16.622  1.2573  1.9541 -0.0865
20233LIG    H3382253   3.280   3.149  17.235  0.4473 -1.7855  1.4538
20233LIG    H3482254   3.840   4.219  16.530  0.1650 -1.2581  0.4637
20233LIG    H3582255   3.701   4.186  16.413 -0.0709 -2.7645 -0.9038
20233LIG    H3682256   3.846   4.061  16.280  0.6278 -0.0662 -0.1819
20233LIG    H3782257   3.993   4.094  16.395  1.0132 -1.9682 -2.7945
20233LIG    H3882258   3.977   4.251  16.196  0.4872 -0.1612  0.6351
20233LIG    H3982259   3.992   4.318  16.361  1.8544 -1.9839 -0.5995
20233LIG    H4082260   3.831   4.330  16.279 -0.3760  0.6954  0.8093
   6.82013   6.82013  17.29240
